GROningen MAchine for Chemical Simulation
95940
    1G5    HO5'    1   5.268   6.640   3.443
    1G5     O5'    2   5.260   6.601   3.530
    1G5     C5'    3   5.269   6.461   3.509
    1G5     H5'    4   5.194   6.424   3.439
    1G5    H5''    5   5.259   6.409   3.605
    1G5     C4'    6   5.401   6.418   3.441
    1G5     H4'    7   5.379   6.340   3.368
    1G5     O4'    8   5.449   6.519   3.361
    1G5     C1'    9   5.587   6.505   3.355
    1G5     H1'   10   5.628   6.493   3.255
    1G5      N9   11   5.649   6.627   3.419
    1G5      C8   12   5.586   6.737   3.464
    1G5      H8   13   5.479   6.738   3.480
    1G5      N7   14   5.665   6.837   3.506
    1G5      C5   15   5.797   6.785   3.477
    1G5      C6   16   5.932   6.837   3.486
    1G5      O6   17   5.969   6.947   3.522
    1G5      N1   18   6.028   6.752   3.438
    1G5      H1   19   6.119   6.796   3.436
    1G5      C2   20   6.007   6.639   3.375
    1G5      N2   21   6.113   6.577   3.322
    1G5     H21   22   6.209   6.608   3.314
    1G5     H22   23   6.092   6.491   3.272
    1G5      N3   24   5.885   6.582   3.374
    1G5      C4   25   5.786   6.655   3.431
    1G5     C3'   26   5.510   6.376   3.534
    1G5     H3'   27   5.527   6.456   3.606
    1G5     C2'   28   5.627   6.383   3.438
    1G5     H2'   29   5.725   6.389   3.484
    1G5     O2'   30   5.617   6.269   3.350
    1G5    HO2'   31   5.701   6.255   3.304
    1G5     O3'   32   5.483   6.237   3.578
    2G        P   33   5.554   6.188   3.710
    2G      OP1   34   5.525   6.044   3.717
    2G      OP2   35   5.517   6.267   3.838
    2G      O5'   36   5.700   6.207   3.687
    2G      C5'   37   5.777   6.105   3.624
    2G      H5'   38   5.739   6.082   3.524
    2G     H5''   39   5.770   6.013   3.681
    2G      C4'   40   5.918   6.162   3.615
    2G      H4'   41   5.974   6.095   3.550
    2G      O4'   42   5.931   6.300   3.582
    2G      C1'   43   6.043   6.368   3.635
    2G      H1'   44   6.109   6.399   3.554
    2G       N9   45   6.003   6.491   3.701
    2G       C8   46   5.890   6.515   3.770
    2G       H8   47   5.805   6.450   3.784
    2G       N7   48   5.883   6.634   3.825
    2G       C5   49   6.007   6.697   3.788
    2G       C6   50   6.053   6.832   3.801
    2G       O6   51   5.997   6.929   3.856
    2G       N1   52   6.183   6.846   3.753
    2G       H1   53   6.215   6.941   3.743
    2G       C2   54   6.251   6.745   3.692
    2G       N2   55   6.367   6.781   3.639
    2G      H21   56   6.401   6.874   3.653
    2G      H22   57   6.422   6.702   3.607
    2G       N3   58   6.204   6.627   3.664
    2G       C4   59   6.082   6.607   3.718
    2G      C3'   60   5.981   6.168   3.751
    2G      H3'   61   5.920   6.212   3.830
    2G      C2'   62   6.103   6.265   3.729
    2G      H2'   63   6.136   6.310   3.823
    2G      O2'   64   6.207   6.195   3.662
    2G     HO2'   65   6.211   6.100   3.670
    2G      O3'   66   6.012   6.035   3.793
    3G        P   67   6.031   6.004   3.947
    3G      OP1   68   6.054   5.863   3.966
    3G      OP2   69   5.908   6.055   4.013
    3G      O5'   70   6.157   6.088   3.998
    3G      C5'   71   6.289   6.059   3.953
    3G      H5'   72   6.290   6.036   3.847
    3G     H5''   73   6.311   5.963   4.000
    3G      C4'   74   6.395   6.163   3.998
    3G      H4'   75   6.488   6.120   3.962
    3G      O4'   76   6.368   6.292   3.936
    3G      C1'   77   6.388   6.397   4.031
    3G      H1'   78   6.449   6.481   3.999
    3G       N9   79   6.259   6.464   4.058
    3G       C8   80   6.134   6.410   4.082
    3G       H8   81   6.112   6.305   4.070
    3G       N7   82   6.036   6.490   4.110
    3G       C5   83   6.107   6.614   4.104
    3G       C6   84   6.057   6.752   4.117
    3G       O6   85   5.950   6.797   4.152
    3G       N1   86   6.151   6.846   4.102
    3G       H1   87   6.124   6.943   4.105
    3G       C2   88   6.278   6.819   4.079
    3G       N2   89   6.357   6.922   4.086
    3G      H21   90   6.322   7.016   4.101
    3G      H22   91   6.455   6.907   4.065
    3G       N3   92   6.331   6.696   4.068
    3G       C4   93   6.242   6.601   4.080
    3G      C3'   94   6.396   6.190   4.144
    3G      H3'   95   6.290   6.174   4.165
    3G      C2'   96   6.442   6.338   4.155
    3G      H2'   97   6.399   6.371   4.249
    3G      O2'   98   6.588   6.357   4.151
    3G     HO2'   99   6.628   6.304   4.220
    3G      O3'  100   6.484   6.109   4.211
    4U        P  101   6.453   6.035   4.347
    4U      OP1  102   6.571   5.984   4.416
    4U      OP2  103   6.344   5.939   4.312
    4U      O5'  104   6.393   6.144   4.453
    4U      C5'  105   6.481   6.244   4.520
    4U      H5'  106   6.554   6.278   4.446
    4U     H5''  107   6.534   6.186   4.595
    4U      C4'  108   6.416   6.355   4.589
    4U      H4'  109   6.493   6.404   4.649
    4U      O4'  110   6.347   6.447   4.506
    4U      C1'  111   6.224   6.497   4.572
    4U      H1'  112   6.247   6.600   4.598
    4U       N1  113   6.098   6.475   4.501
    4U       C6  114   6.048   6.356   4.456
    4U       H6  115   6.118   6.274   4.455
    4U       C5  116   5.922   6.340   4.410
    4U       H5  117   5.886   6.244   4.376
    4U       C4  118   5.837   6.454   4.382
    4U       O4  119   5.721   6.453   4.332
    4U       N3  120   5.892   6.569   4.430
    4U       H3  121   5.827   6.646   4.433
    4U       C2  122   6.017   6.588   4.483
    4U       O2  123   6.032   6.700   4.528
    4U      C3'  124   6.312   6.300   4.690
    4U      H3'  125   6.262   6.214   4.646
    4U      C2'  126   6.218   6.419   4.703
    4U      H2'  127   6.121   6.374   4.720
    4U      O2'  128   6.253   6.509   4.803
    4U     HO2'  129   6.285   6.461   4.880
    4U      O3'  130   6.370   6.268   4.820
    5U        P  131   6.288   6.181   4.923
    5U      OP1  132   6.382   6.109   5.010
    5U      OP2  133   6.175   6.111   4.852
    5U      O5'  134   6.222   6.302   4.994
    5U      C5'  135   6.290   6.377   5.092
    5U      H5'  136   6.379   6.424   5.049
    5U     H5''  137   6.315   6.307   5.172
    5U      C4'  138   6.197   6.484   5.168
    5U      H4'  139   6.252   6.524   5.253
    5U      O4'  140   6.158   6.594   5.083
    5U      C1'  141   6.025   6.635   5.121
    5U      H1'  142   6.035   6.736   5.162
    5U       N1  143   5.919   6.622   5.017
    5U       C6  144   5.932   6.537   4.905
    5U       H6  145   6.018   6.473   4.900
    5U       C5  146   5.858   6.549   4.793
    5U       H5  147   5.885   6.492   4.705
    5U       C4  148   5.746   6.641   4.796
    5U       O4  149   5.675   6.671   4.699
    5U       N3  150   5.724   6.698   4.916
    5U       H3  151   5.637   6.747   4.925
    5U       C2  152   5.809   6.702   5.028
    5U       O2  153   5.782   6.765   5.119
    5U      C3'  154   6.067   6.417   5.217
    5U      H3'  155   6.029   6.360   5.132
    5U      C2'  156   5.987   6.548   5.239
    5U      H2'  157   5.880   6.529   5.235
    5U      O2'  158   6.015   6.605   5.369
    5U     HO2'  159   6.050   6.538   5.428
    5U      O3'  160   6.057   6.343   5.336
    6A        P  161   5.956   6.223   5.346
    6A      OP1  162   5.958   6.185   5.488
    6A      OP2  163   5.998   6.124   5.244
    6A      O5'  164   5.808   6.271   5.315
    6A      C5'  165   5.742   6.336   5.417
    6A      H5'  166   5.814   6.406   5.461
    6A     H5''  167   5.709   6.265   5.493
    6A      C4'  168   5.629   6.434   5.363
    6A      H4'  169   5.610   6.510   5.439
    6A      O4'  170   5.657   6.512   5.250
    6A      C1'  171   5.543   6.527   5.168
    6A      H1'  172   5.521   6.628   5.134
    6A       N9  173   5.553   6.435   5.053
    6A       C8  174   5.660   6.359   5.004
    6A       H8  175   5.747   6.356   5.069
    6A       N7  176   5.652   6.322   4.883
    6A       C5  177   5.531   6.379   4.837
    6A       C6  178   5.471   6.403   4.712
    6A       N6  179   5.511   6.365   4.592
    6A      H61  180   5.449   6.380   4.514
    6A      H62  181   5.588   6.300   4.581
    6A       N1  182   5.361   6.483   4.704
    6A       C2  183   5.312   6.538   4.814
    6A       H2  184   5.233   6.611   4.802
    6A       N3  185   5.364   6.524   4.934
    6A       C4  186   5.474   6.452   4.940
    6A      C3'  187   5.492   6.366   5.335
    6A      H3'  188   5.508   6.275   5.277
    6A      C2'  189   5.426   6.467   5.250
    6A      H2'  190   5.349   6.423   5.186
    6A      O2'  191   5.353   6.564   5.331
    6A     HO2'  192   5.343   6.523   5.417
    6A      O3'  193   5.429   6.335   5.451
    7G        P  194   5.351   6.198   5.467
    7G      OP1  195   5.277   6.197   5.595
    7G      OP2  196   5.437   6.086   5.425
    7G      O5'  197   5.255   6.213   5.346
    7G      C5'  198   5.132   6.280   5.359
    7G      H5'  199   5.148   6.382   5.394
    7G     H5''  200   5.072   6.221   5.430
    7G      C4'  201   5.053   6.284   5.225
    7G      H4'  202   4.960   6.333   5.256
    7G      O4'  203   5.115   6.358   5.117
    7G      C1'  204   5.109   6.278   4.996
    7G      H1'  205   5.089   6.339   4.908
    7G       N9  206   5.228   6.197   4.964
    7G       C8  207   5.343   6.175   5.032
    7G       H8  208   5.351   6.200   5.137
    7G       N7  209   5.433   6.120   4.956
    7G       C5  210   5.378   6.089   4.835
    7G       C6  211   5.426   6.021   4.714
    7G       O6  212   5.532   5.974   4.686
    7G       N1  213   5.324   6.013   4.619
    7G       H1  214   5.341   5.965   4.531
    7G       C2  215   5.197   6.061   4.630
    7G       N2  216   5.118   6.054   4.528
    7G      H21  217   5.148   5.995   4.451
    7G      H22  218   5.025   6.092   4.535
    7G       N3  219   5.156   6.131   4.739
    7G       C4  220   5.251   6.134   4.839
    7G      C3'  221   5.020   6.149   5.165
    7G      H3'  222   5.108   6.087   5.182
    7G      C2'  223   4.996   6.184   5.022
    7G      H2'  224   4.992   6.098   4.955
    7G      O2'  225   4.876   6.252   4.996
    7G     HO2'  226   4.805   6.210   5.045
    7G      O3'  227   4.910   6.093   5.237
    8G        P  228   4.907   5.947   5.290
    8G      OP1  229   4.779   5.930   5.367
    8G      OP2  230   5.042   5.922   5.356
    8G      O5'  231   4.900   5.860   5.162
    8G      C5'  232   4.785   5.864   5.085
    8G      H5'  233   4.741   5.961   5.063
    8G     H5''  234   4.699   5.814   5.130
    8G      C4'  235   4.815   5.798   4.951
    8G      H4'  236   4.719   5.789   4.899
    8G      O4'  237   4.901   5.873   4.867
    8G      C1'  238   4.976   5.780   4.794
    8G      H1'  239   4.974   5.788   4.685
    8G       N9  240   5.119   5.779   4.833
    8G       C8  241   5.174   5.809   4.952
    8G       H8  242   5.117   5.844   5.036
    8G       N7  243   5.305   5.774   4.957
    8G       C5  244   5.333   5.725   4.834
    8G       C6  245   5.454   5.666   4.784
    8G       O6  246   5.560   5.658   4.832
    8G       N1  247   5.443   5.628   4.654
    8G       H1  248   5.527   5.623   4.598
    8G       C2  249   5.320   5.610   4.594
    8G       N2  250   5.304   5.539   4.488
    8G      H21  251   5.384   5.516   4.431
    8G      H22  252   5.210   5.513   4.461
    8G       N3  253   5.203   5.654   4.642
    8G       C4  254   5.218   5.717   4.757
    8G      C3'  255   4.858   5.652   4.963
    8G      H3'  256   4.946   5.646   5.027
    8G      C2'  257   4.913   5.642   4.828
    8G      H2'  258   4.990   5.566   4.826
    8G      O2'  259   4.811   5.604   4.732
    8G     HO2'  260   4.758   5.536   4.775
    8G      O3'  261   4.756   5.555   4.994
    9G        P  262   4.786   5.431   5.079
    9G      OP1  263   4.655   5.376   5.134
    9G      OP2  264   4.886   5.471   5.185
    9G      O5'  265   4.849   5.321   4.984
    9G      C5'  266   4.797   5.275   4.865
    9G      H5'  267   4.743   5.344   4.801
    9G     H5''  268   4.731   5.191   4.889
    9G      C4'  269   4.914   5.222   4.777
    9G      H4'  270   4.865   5.199   4.683
    9G      O4'  271   5.003   5.331   4.742
    9G      C1'  272   5.139   5.278   4.736
    9G      H1'  273   5.181   5.314   4.642
    9G       N9  274   5.224   5.327   4.846
    9G       C8  275   5.185   5.392   4.953
    9G       H8  276   5.085   5.418   4.983
    9G       N7  277   5.282   5.436   5.025
    9G       C5  278   5.396   5.390   4.960
    9G       C6  279   5.535   5.398   4.993
    9G       O6  280   5.588   5.455   5.083
    9G       N1  281   5.622   5.338   4.899
    9G       H1  282   5.719   5.342   4.927
    9G       C2  283   5.575   5.272   4.792
    9G       N2  284   5.653   5.192   4.724
    9G      H21  285   5.752   5.207   4.736
    9G      H22  286   5.615   5.132   4.652
    9G       N3  287   5.445   5.254   4.765
    9G       C4  288   5.357   5.316   4.851
    9G      C3'  289   4.996   5.105   4.826
    9G      H3'  290   5.029   5.129   4.927
    9G      C2'  291   5.119   5.124   4.731
    9G      H2'  292   5.206   5.065   4.760
    9G      O2'  293   5.090   5.079   4.591
    9G     HO2'  294   5.174   5.078   4.544
    9G      O3'  295   4.925   4.984   4.805
   10U        P  296   4.947   4.857   4.891
   10U      OP1  297   4.866   4.746   4.839
   10U      OP2  298   4.926   4.889   5.036
   10U      O5'  299   5.098   4.822   4.868
   10U      C5'  300   5.140   4.755   4.755
   10U      H5'  301   5.106   4.801   4.663
   10U     H5''  302   5.088   4.659   4.751
   10U      C4'  303   5.289   4.725   4.747
   10U      H4'  304   5.314   4.671   4.655
   10U      O4'  305   5.364   4.839   4.766
   10U      C1'  306   5.489   4.809   4.832
   10U      H1'  307   5.576   4.816   4.766
   10U       N1  308   5.490   4.908   4.951
   10U       C6  309   5.385   4.924   5.040
   10U       H6  310   5.295   4.864   5.028
   10U       C5  311   5.382   5.026   5.126
   10U       H5  312   5.296   5.033   5.191
   10U       C4  313   5.500   5.110   5.144
   10U       O4  314   5.505   5.208   5.214
   10U       N3  315   5.615   5.062   5.079
   10U       H3  316   5.699   5.117   5.087
   10U       C2  317   5.609   4.974   4.972
   10U       O2  318   5.710   4.953   4.896
   10U      C3'  319   5.335   4.637   4.856
   10U      H3'  320   5.276   4.679   4.938
   10U      C2'  321   5.482   4.665   4.886
   10U      H2'  322   5.515   4.662   4.990
   10U      O2'  323   5.568   4.575   4.809
   10U     HO2'  324   5.657   4.566   4.845
   10U      O3'  325   5.303   4.500   4.850
   11U        P  326   5.247   4.421   4.977
   11U      OP1  327   5.185   4.299   4.929
   11U      OP2  328   5.164   4.510   5.060
   11U      O5'  329   5.371   4.385   5.071
   11U      C5'  330   5.470   4.286   5.032
   11U      H5'  331   5.516   4.311   4.936
   11U     H5''  332   5.424   4.190   5.010
   11U      C4'  333   5.578   4.268   5.140
   11U      H4'  334   5.646   4.192   5.101
   11U      O4'  335   5.656   4.385   5.136
   11U      C1'  336   5.725   4.401   5.252
   11U      H1'  337   5.827   4.366   5.241
   11U       N1  338   5.714   4.547   5.285
   11U       C6  339   5.596   4.614   5.257
   11U       H6  340   5.511   4.550   5.236
   11U       C5  341   5.585   4.749   5.271
   11U       H5  342   5.490   4.798   5.260
   11U       C4  343   5.693   4.826   5.317
   11U       O4  344   5.695   4.943   5.340
   11U       N3  345   5.813   4.757   5.341
   11U       H3  346   5.894   4.807   5.375
   11U       C2  347   5.827   4.621   5.324
   11U       O2  348   5.941   4.574   5.332
   11U      C3'  349   5.539   4.257   5.288
   11U      H3'  350   5.449   4.313   5.315
   11U      C2'  351   5.661   4.309   5.361
   11U      H2'  352   5.639   4.369   5.450
   11U      O2'  353   5.758   4.204   5.394
   11U     HO2'  354   5.718   4.125   5.358
   11U      O3'  355   5.523   4.127   5.325
   12A        P  356   5.388   4.086   5.391
   12A      OP1  357   5.403   3.942   5.405
   12A      OP2  358   5.272   4.141   5.322
   12A      O5'  359   5.392   4.149   5.537
   12A      C5'  360   5.485   4.104   5.638
   12A      H5'  361   5.575   4.066   5.588
   12A     H5''  362   5.446   4.015   5.688
   12A      C4'  363   5.520   4.216   5.737
   12A      H4'  364   5.587   4.183   5.817
   12A      O4'  365   5.553   4.331   5.671
   12A      C1'  366   5.506   4.448   5.735
   12A      H1'  367   5.587   4.508   5.778
   12A       N9  368   5.427   4.530   5.639
   12A       C8  369   5.340   4.492   5.532
   12A       H8  370   5.326   4.387   5.509
   12A       N7  371   5.278   4.589   5.465
   12A       C5  372   5.337   4.704   5.532
   12A       C6  373   5.324   4.846   5.516
   12A       N6  374   5.265   4.895   5.409
   12A      H61  375   5.263   4.996   5.415
   12A      H62  376   5.216   4.840   5.340
   12A       N1  377   5.388   4.933   5.592
   12A       C2  378   5.460   4.882   5.689
   12A       H2  379   5.512   4.952   5.752
   12A       N3  380   5.488   4.756   5.716
   12A       C4  381   5.428   4.667   5.632
   12A      C3'  382   5.391   4.264   5.807
   12A      H3'  383   5.314   4.265   5.730
   12A      C2'  384   5.410   4.409   5.849
   12A      H2'  385   5.320   4.469   5.859
   12A      O2'  386   5.498   4.420   5.964
   12A     HO2'  387   5.521   4.332   5.994
   12A      O3'  388   5.368   4.185   5.922
   13G        P  389   5.219   4.157   5.976
   13G      OP1  390   5.235   4.083   6.103
   13G      OP2  391   5.141   4.094   5.870
   13G      O5'  392   5.151   4.296   6.015
   13G      C5'  393   5.189   4.363   6.136
   13G      H5'  394   5.297   4.379   6.126
   13G     H5''  395   5.170   4.300   6.223
   13G      C4'  396   5.137   4.500   6.161
   13G      H4'  397   5.168   4.521   6.264
   13G      O4'  398   5.200   4.589   6.069
   13G      C1'  399   5.118   4.702   6.048
   13G      H1'  400   5.175   4.790   6.075
   13G       N9  401   5.084   4.708   5.903
   13G       C8  402   5.086   4.606   5.811
   13G       H8  403   5.117   4.504   5.829
   13G       N7  404   5.063   4.642   5.687
   13G       C5  405   5.036   4.784   5.702
   13G       C6  406   4.987   4.877   5.605
   13G       O6  407   4.957   4.857   5.488
   13G       N1  408   4.972   5.005   5.653
   13G       H1  409   4.952   5.081   5.590
   13G       C2  410   4.984   5.033   5.786
   13G       N2  411   4.964   5.159   5.805
   13G      H21  412   4.932   5.220   5.731
   13G      H22  413   4.983   5.194   5.898
   13G       N3  414   5.028   4.947   5.887
   13G       C4  415   5.041   4.823   5.835
   13G      C3'  416   4.988   4.527   6.144
   13G      H3'  417   4.963   4.495   6.043
   13G      C2'  418   4.987   4.677   6.127
   13G      H2'  419   4.897   4.706   6.072
   13G      O2'  420   5.006   4.751   6.242
   13G     HO2'  421   4.958   4.708   6.313
   13G      O3'  422   4.910   4.476   6.249
   14G        P  423   4.748   4.456   6.230
   14G      OP1  424   4.694   4.453   6.370
   14G      OP2  425   4.715   4.349   6.133
   14G      O5'  426   4.689   4.596   6.170
   14G      C5'  427   4.673   4.712   6.241
   14G      H5'  428   4.776   4.725   6.276
   14G     H5''  429   4.605   4.686   6.321
   14G      C4'  430   4.623   4.835   6.172
   14G      H4'  431   4.614   4.913   6.248
   14G      O4'  432   4.706   4.868   6.063
   14G      C1'  433   4.633   4.906   5.947
   14G      H1'  434   4.670   5.004   5.917
   14G       N9  435   4.646   4.813   5.833
   14G       C8  436   4.680   4.681   5.836
   14G       H8  437   4.692   4.626   5.928
   14G       N7  438   4.699   4.636   5.714
   14G       C5  439   4.669   4.740   5.627
   14G       C6  440   4.670   4.751   5.482
   14G       O6  441   4.695   4.665   5.393
   14G       N1  442   4.633   4.884   5.443
   14G       H1  443   4.619   4.895   5.344
   14G       C2  444   4.604   4.989   5.525
   14G       N2  445   4.556   5.098   5.470
   14G      H21  446   4.537   5.103   5.371
   14G      H22  447   4.531   5.173   5.532
   14G       N3  448   4.599   4.980   5.659
   14G       C4  449   4.636   4.852   5.700
   14G      C3'  450   4.482   4.817   6.104
   14G      H3'  451   4.477   4.712   6.073
   14G      C2'  452   4.490   4.906   5.983
   14G      H2'  453   4.424   4.879   5.901
   14G      O2'  454   4.456   5.048   6.009
   14G     HO2'  455   4.401   5.056   6.088
   14G      O3'  456   4.375   4.845   6.191
   15G        P  457   4.229   4.791   6.160
   15G      OP1  458   4.132   4.836   6.256
   15G      OP2  459   4.240   4.644   6.151
   15G      O5'  460   4.182   4.838   6.012
   15G      C5'  461   4.122   4.964   5.981
   15G      H5'  462   4.185   5.049   6.007
   15G     H5''  463   4.031   4.965   6.041
   15G      C4'  464   4.083   4.968   5.835
   15G      H4'  465   4.028   5.059   5.812
   15G      O4'  466   4.203   4.951   5.759
   15G      C1'  467   4.181   4.877   5.641
   15G      H1'  468   4.219   4.932   5.555
   15G       N9  469   4.258   4.750   5.635
   15G       C8  470   4.292   4.665   5.734
   15G       H8  471   4.280   4.692   5.838
   15G       N7  472   4.353   4.552   5.695
   15G       C5  473   4.364   4.572   5.557
   15G       C6  474   4.431   4.496   5.458
   15G       O6  475   4.489   4.389   5.473
   15G       N1  476   4.422   4.555   5.331
   15G       H1  477   4.474   4.513   5.256
   15G       C2  478   4.348   4.668   5.302
   15G       N2  479   4.342   4.712   5.182
   15G      H21  480   4.378   4.665   5.099
   15G      H22  481   4.280   4.789   5.163
   15G       N3  482   4.293   4.744   5.395
   15G       C4  483   4.302   4.690   5.523
   15G      C3'  484   3.996   4.849   5.786
   15G      H3'  485   4.024   4.755   5.835
   15G      C2'  486   4.031   4.854   5.642
   15G      H2'  487   4.001   4.756   5.604
   15G      O2'  488   3.972   4.969   5.570
   15G     HO2'  489   3.882   4.974   5.604
   15G      O3'  490   3.855   4.881   5.802
   16U        P  491   3.764   4.752   5.833
   16U      OP1  492   3.629   4.795   5.857
   16U      OP2  493   3.827   4.684   5.944
   16U      O5'  494   3.766   4.661   5.704
   16U      C5'  495   3.704   4.702   5.588
   16U      H5'  496   3.730   4.800   5.549
   16U     H5''  497   3.597   4.697   5.612
   16U      C4'  498   3.744   4.600   5.481
   16U      H4'  499   3.704   4.632   5.385
   16U      O4'  500   3.877   4.573   5.457
   16U      C1'  501   3.897   4.452   5.391
   16U      H1'  502   3.918   4.473   5.287
   16U       N1  503   4.008   4.382   5.461
   16U       C6  504   4.012   4.375   5.597
   16U       H6  505   3.924   4.411   5.649
   16U       C5  506   4.105   4.308   5.664
   16U       H5  507   4.103   4.310   5.772
   16U       C4  508   4.219   4.253   5.594
   16U       O4  509   4.313   4.206   5.648
   16U       N3  510   4.215   4.269   5.457
   16U       H3  511   4.290   4.226   5.404
   16U       C2  512   4.109   4.322   5.388
   16U       O2  513   4.126   4.331   5.271
   16U      C3'  514   3.687   4.459   5.511
   16U      H3'  515   3.712   4.433   5.614
   16U      C2'  516   3.771   4.377   5.409
   16U      H2'  517   3.795   4.279   5.451
   16U      O2'  518   3.706   4.359   5.280
   16U     HO2'  519   3.619   4.322   5.293
   16U      O3'  520   3.554   4.455   5.492
   17U        P  521   3.460   4.336   5.538
   17U      OP1  522   3.319   4.388   5.539
   17U      OP2  523   3.515   4.262   5.657
   17U      O5'  524   3.475   4.234   5.412
   17U      C5'  525   3.382   4.221   5.309
   17U      H5'  526   3.371   4.310   5.248
   17U     H5''  527   3.285   4.196   5.351
   17U      C4'  528   3.425   4.116   5.203
   17U      H4'  529   3.366   4.127   5.112
   17U      O4'  530   3.562   4.141   5.170
   17U      C1'  531   3.640   4.024   5.174
   17U      H1'  532   3.682   4.010   5.074
   17U       N1  533   3.743   4.027   5.280
   17U       C6  534   3.720   4.008   5.418
   17U       H6  535   3.618   4.013   5.453
   17U       C5  536   3.830   3.995   5.499
   17U       H5  537   3.811   3.984   5.604
   17U       C4  538   3.964   4.000   5.456
   17U       O4  539   4.063   3.991   5.530
   17U       N3  540   3.975   4.016   5.322
   17U       H3  541   4.068   4.003   5.287
   17U       C2  542   3.871   4.017   5.232
   17U       O2  543   3.908   4.037   5.114
   17U      C3'  544   3.422   3.976   5.256
   17U      H3'  545   3.424   3.981   5.365
   17U      C2'  546   3.550   3.905   5.201
   17U      H2'  547   3.593   3.838   5.276
   17U      O2'  548   3.521   3.846   5.077
   17U     HO2'  549   3.453   3.781   5.093
   17U      O3'  550   3.295   3.915   5.218
   18A        P  551   3.257   3.771   5.281
   18A      OP1  552   3.107   3.761   5.269
   18A      OP2  553   3.314   3.767   5.420
   18A      O5'  554   3.325   3.667   5.180
   18A      C5'  555   3.266   3.636   5.051
   18A      H5'  556   3.251   3.729   4.997
   18A     H5''  557   3.170   3.585   5.068
   18A      C4'  558   3.341   3.540   4.963
   18A      H4'  559   3.279   3.513   4.878
   18A      O4'  560   3.451   3.605   4.913
   18A      C1'  561   3.567   3.519   4.924
   18A      H1'  562   3.608   3.522   4.822
   18A       N9  563   3.671   3.568   5.020
   18A       C8  564   3.662   3.555   5.154
   18A       H8  565   3.575   3.524   5.210
   18A       N7  566   3.765   3.595   5.217
   18A       C5  567   3.848   3.634   5.114
   18A       C6  568   3.976   3.692   5.118
   18A       N6  569   4.058   3.709   5.215
   18A      H61  570   4.134   3.774   5.198
   18A      H62  571   4.037   3.676   5.307
   18A       N1  572   4.028   3.737   5.007
   18A       C2  573   3.961   3.722   4.893
   18A       H2  574   4.006   3.770   4.807
   18A       N3  575   3.836   3.679   4.882
   18A       C4  576   3.783   3.638   4.993
   18A      C3'  577   3.385   3.404   5.027
   18A      H3'  578   3.408   3.434   5.129
   18A      C2'  579   3.516   3.376   4.955
   18A      H2'  580   3.582   3.316   5.018
   18A      O2'  581   3.498   3.327   4.825
   18A     HO2'  582   3.466   3.237   4.833
   18A      O3'  583   3.284   3.300   5.035
   19G        P  584   3.315   3.166   5.111
   19G      OP1  585   3.182   3.107   5.161
   19G      OP2  586   3.424   3.191   5.210
   19G      O5'  587   3.373   3.074   5.003
   19G      C5'  588   3.281   3.021   4.911
   19G      H5'  589   3.221   3.107   4.883
   19G     H5''  590   3.208   2.957   4.960
   19G      C4'  591   3.357   2.947   4.797
   19G      H4'  592   3.287   2.905   4.725
   19G      O4'  593   3.453   3.045   4.740
   19G      C1'  594   3.585   2.977   4.735
   19G      H1'  595   3.629   2.979   4.635
   19G       N9  596   3.683   3.040   4.825
   19G       C8  597   3.709   3.019   4.965
   19G       H8  598   3.667   2.937   5.021
   19G       N7  599   3.797   3.100   5.015
   19G       C5  600   3.825   3.187   4.911
   19G       C6  601   3.915   3.299   4.899
   19G       O6  602   3.988   3.348   4.993
   19G       N1  603   3.923   3.360   4.777
   19G       H1  604   3.983   3.441   4.769
   19G       C2  605   3.843   3.315   4.666
   19G       N2  606   3.865   3.383   4.558
   19G      H21  607   3.924   3.464   4.542
   19G      H22  608   3.798   3.355   4.488
   19G       N3  609   3.767   3.206   4.672
   19G       C4  610   3.762   3.150   4.791
   19G      C3'  611   3.445   2.833   4.844
   19G      H3'  612   3.471   2.837   4.949
   19G      C2'  613   3.570   2.830   4.759
   19G      H2'  614   3.654   2.797   4.820
   19G      O2'  615   3.560   2.765   4.633
   19G     HO2'  616   3.543   2.671   4.640
   19G      O3'  617   3.373   2.709   4.827
   20G        P  618   3.409   2.571   4.892
   20G      OP1  619   3.293   2.479   4.880
   20G      OP2  620   3.469   2.600   5.023
   20G      O5'  621   3.526   2.517   4.794
   20G      C5'  622   3.504   2.409   4.706
   20G      H5'  623   3.441   2.433   4.620
   20G     H5''  624   3.471   2.316   4.751
   20G      C4'  625   3.641   2.378   4.640
   20G      H4'  626   3.620   2.307   4.560
   20G      O4'  627   3.709   2.494   4.595
   20G      C1'  628   3.845   2.485   4.607
   20G      H1'  629   3.895   2.478   4.510
   20G       N9  630   3.877   2.604   4.686
   20G       C8  631   3.853   2.625   4.819
   20G       H8  632   3.799   2.556   4.882
   20G       N7  633   3.903   2.743   4.860
   20G       C5  634   3.957   2.803   4.747
   20G       C6  635   4.025   2.924   4.738
   20G       O6  636   4.050   3.009   4.824
   20G       N1  637   4.062   2.944   4.607
   20G       H1  638   4.134   3.015   4.595
   20G       C2  639   4.033   2.866   4.500
   20G       N2  640   4.068   2.907   4.383
   20G      H21  641   4.134   2.984   4.376
   20G      H22  642   4.066   2.839   4.308
   20G       N3  643   3.971   2.744   4.511
   20G       C4  644   3.935   2.721   4.637
   20G      C3'  645   3.737   2.318   4.744
   20G      H3'  646   3.716   2.371   4.837
   20G      C2'  647   3.873   2.355   4.687
   20G      H2'  648   3.945   2.376   4.766
   20G      O2'  649   3.921   2.266   4.590
   20G     HO2'  650   3.916   2.180   4.631
   20G      O3'  651   3.706   2.184   4.761
   21G3       P  652   3.799   2.081   4.833
   21G3     OP1  653   3.716   1.965   4.872
   21G3     OP2  654   3.874   2.154   4.937
   21G3     O5'  655   3.902   2.031   4.722
   21G3     C5'  656   3.874   1.956   4.606
   21G3     H5'  657   3.799   2.006   4.544
   21G3    H5''  658   3.822   1.865   4.633
   21G3     C4'  659   3.996   1.916   4.520
   21G3     H4'  660   3.958   1.854   4.439
   21G3     O4'  661   4.068   2.023   4.464
   21G3     C1'  662   4.204   2.023   4.516
   21G3     H1'  663   4.277   2.041   4.437
   21G3      N9  664   4.226   2.144   4.603
   21G3      C8  665   4.213   2.161   4.743
   21G3      H8  666   4.185   2.079   4.806
   21G3      N7  667   4.246   2.283   4.789
   21G3      C5  668   4.259   2.355   4.675
   21G3      C6  669   4.274   2.496   4.653
   21G3      O6  670   4.266   2.588   4.737
   21G3      N1  671   4.297   2.534   4.518
   21G3      H1  672   4.280   2.631   4.496
   21G3      C2  673   4.310   2.444   4.420
   21G3      N2  674   4.352   2.491   4.304
   21G3     H21  675   4.378   2.588   4.297
   21G3     H22  676   4.362   2.434   4.221
   21G3      N3  677   4.296   2.312   4.434
   21G3      C4  678   4.275   2.269   4.564
   21G3     C3'  679   4.093   1.834   4.589
   21G3     H3'  680   4.067   1.834   4.695
   21G3     C2'  681   4.228   1.891   4.573
   21G3     H2'  682   4.279   1.888   4.669
   21G3     O2'  683   4.298   1.814   4.471
   21G3    HO2'  684   4.229   1.749   4.461
   21G3     O3'  685   4.091   1.701   4.530
   21G3    HO3'  686   4.014   1.656   4.564
   22Cl-    Cl-  687   9.008   3.530   7.773
   23Cl-    Cl-  688   6.305   1.815   6.653
   24Cl-    Cl-  689   9.684   6.106   5.643
   25Cl-    Cl-  690   9.286   1.664   5.247
   26Cl-    Cl-  691   0.312   7.735   8.938
   27Cl-    Cl-  692   8.170   1.698   6.376
   28Cl-    Cl-  693   4.158   4.482   4.245
   29Cl-    Cl-  694   7.299   4.148   2.834
   30Cl-    Cl-  695   2.747   3.148   3.620
   31Cl-    Cl-  696   8.701   6.047   0.212
   32Cl-    Cl-  697   4.503   0.229   1.751
   33Cl-    Cl-  698   8.736   6.720   2.846
   34Cl-    Cl-  699   1.585   5.817   4.059
   35Cl-    Cl-  700   4.278   9.008   6.843
   36Cl-    Cl-  701   1.527   4.395   8.067
   37Cl-    Cl-  702   0.531   6.535   1.709
   38Cl-    Cl-  703   1.412   7.699   2.917
   39Cl-    Cl-  704   3.065   6.414   1.537
   40Cl-    Cl-  705   7.726   0.237   8.481
   41Cl-    Cl-  706   6.850   1.542   3.702
   42Cl-    Cl-  707   2.863   1.026   5.712
   43Cl-    Cl-  708   9.414   4.729   1.838
   44Cl-    Cl-  709   2.630   2.448   0.329
   45Cl-    Cl-  710   0.103   1.126   4.773
   46Cl-    Cl-  711   4.788   3.349   3.464
   47Cl-    Cl-  712   4.292   6.874   1.402
   48Cl-    Cl-  713   8.156   7.696   0.598
   49Cl-    Cl-  714   9.450   7.536   8.470
   50Cl-    Cl-  715   1.198   7.930   6.052
   51Cl-    Cl-  716   5.944   9.795   0.390
   52Cl-    Cl-  717   3.711   2.282   8.569
   53Cl-    Cl-  718   6.391   7.254   9.065
   54Cl-    Cl-  719   4.614   4.528   6.898
   55Cl-    Cl-  720   6.175   4.015   4.457
   56Cl-    Cl-  721   6.817   7.883   0.061
   57Cl-    Cl-  722   5.517   5.112   4.279
   58Cl-    Cl-  723   6.940   7.183   3.518
   59Cl-    Cl-  724   2.530   2.973   1.395
   60Cl-    Cl-  725   5.328   9.134   4.181
   61Cl-    Cl-  726   4.537   0.333   7.872
   62Cl-    Cl-  727   0.612   0.795   7.212
   63Cl-    Cl-  728   3.961   5.009   3.388
   64Cl-    Cl-  729   5.827   3.962   1.608
   65Cl-    Cl-  730   8.156   9.713   2.190
   66Cl-    Cl-  731   2.963   6.479   5.552
   67Cl-    Cl-  732   1.586   9.663   0.980
   68Cl-    Cl-  733   3.264   6.326   8.614
   69Cl-    Cl-  734   8.800   4.049   6.775
   70Cl-    Cl-  735   9.667   3.106   9.861
   71Cl-    Cl-  736   7.584   3.036   5.452
   72Cl-    Cl-  737   0.431   7.943   1.218
   73Cl-    Cl-  738   3.907   6.948   8.011
   74Cl-    Cl-  739   4.060   8.859   4.517
   75Cl-    Cl-  740   2.207   5.202   2.003
   76Cl-    Cl-  741   1.588   2.351   0.292
   77Cl-    Cl-  742   2.036   5.488   8.509
   78Cl-    Cl-  743   9.552   5.992   4.745
   79Cl-    Cl-  744   7.919   9.331   3.908
   80Cl-    Cl-  745   0.232   4.900   7.656
   81Cl-    Cl-  746   4.929   5.485   0.379
   82Cl-    Cl-  747   4.137   5.754   7.592
   83Cl-    Cl-  748   0.207   4.641   9.770
   84Cl-    Cl-  749   2.654   6.560   0.609
   85Cl-    Cl-  750   2.253   1.330   5.907
   86Cl-    Cl-  751   1.156   6.839   4.077
   87Cl-    Cl-  752   5.264   5.916   7.827
   88Cl-    Cl-  753   1.933   7.081   3.170
   89Cl-    Cl-  754   5.959   3.342   8.778
   90Cl-    Cl-  755   1.842   4.453   7.171
   91Cl-    Cl-  756   0.993   8.662   7.443
   92Cl-    Cl-  757   7.443   8.061   1.605
   93Cl-    Cl-  758   5.815   5.393   1.536
   94Cl-    Cl-  759   6.966   0.512   5.308
   95Cl-    Cl-  760   9.731   4.718   4.468
   96Cl-    Cl-  761   7.568   0.755   6.623
   97Cl-    Cl-  762   7.995   7.937   5.535
   98Cl-    Cl-  763   7.802   4.595   4.075
   99Cl-    Cl-  764   8.280   0.567   4.092
  100Cl-    Cl-  765   6.251   4.286   3.135
  101Cl-    Cl-  766   6.005   1.840   5.354
  102Cl-    Cl-  767   7.888   4.947   0.274
  103Cl-    Cl-  768   5.479   1.096   2.264
  104Cl-    Cl-  769   8.203   2.298   9.745
  105Cl-    Cl-  770   1.199   1.891   6.259
  106Cl-    Cl-  771   6.311   7.844   6.903
  107K+      K+  772   8.122   6.410   0.781
  108K+      K+  773   4.246   4.052   5.885
  109K+      K+  774   6.189   7.479   7.750
  110K+      K+  775   0.157   5.065   0.226
  111K+      K+  776   7.449   9.094   7.003
  112K+      K+  777   9.742   2.398   9.098
  113K+      K+  778   8.709   3.508   1.498
  114K+      K+  779   8.702   0.738   6.609
  115K+      K+  780   5.521   4.695   7.017
  116K+      K+  781   4.915   0.530   1.454
  117K+      K+  782   4.461   4.035   3.659
  118K+      K+  783   2.198   2.909   4.376
  119K+      K+  784   4.553   4.498   6.581
  120K+      K+  785   3.725   4.513   9.782
  121K+      K+  786   8.918   7.249   3.838
  122K+      K+  787   9.216   4.866   0.109
  123K+      K+  788   2.246   8.735   2.740
  124K+      K+  789   5.904   0.404   1.330
  125K+      K+  790   6.537   5.523   4.536
  126K+      K+  791   5.781   6.582   4.082
  127K+      K+  792   1.839   0.269   2.342
  128K+      K+  793   2.594   8.237   1.551
  129K+      K+  794   3.794   7.183   7.048
  130K+      K+  795   5.785   5.438   5.272
  131K+      K+  796   7.169   8.429   9.360
  132K+      K+  797   9.866   5.635   5.416
  133K+      K+  798   7.968   0.762   3.873
  134K+      K+  799   2.357   2.636   2.976
  135K+      K+  800   4.535   4.365   5.752
  136K+      K+  801   4.822   5.276   6.258
  137K+      K+  802   7.429   7.448   0.787
  138K+      K+  803   1.287   9.118   3.009
  139K+      K+  804   5.060   5.567   7.793
  140K+      K+  805   5.952   1.627   5.720
  141K+      K+  806   2.940   1.652   5.334
  142K+      K+  807   4.535   9.294   7.242
  143K+      K+  808   5.612   8.880   8.077
  144K+      K+  809   2.097   1.475   7.370
  145K+      K+  810   0.050   9.573   0.864
  146K+      K+  811   3.123   0.345   7.138
  147K+      K+  812   6.018   7.865   5.192
  148K+      K+  813   6.225   4.575   5.275
  149K+      K+  814   4.227   1.047   7.399
  150K+      K+  815   3.704   2.751   4.396
  151K+      K+  816   2.283   6.529   3.474
  152K+      K+  817   0.602   1.810   6.594
  153K+      K+  818   2.848   0.231   5.369
  154K+      K+  819   0.814   7.519   1.779
  155K+      K+  820   3.191   5.637   7.271
  156K+      K+  821   4.740   4.236   5.429
  157K+      K+  822   8.133   3.525   6.714
  158K+      K+  823   2.097   0.039   9.692
  159K+      K+  824   9.771   7.648   4.273
  160K+      K+  825   5.842   6.599   2.133
  161K+      K+  826   5.009   4.591   5.399
  162K+      K+  827   4.853   4.954   4.549
  163K+      K+  828   8.025   3.439   3.502
  164K+      K+  829   5.421   5.673   5.184
  165K+      K+  830   6.898   9.779   0.354
  166K+      K+  831   3.565   5.553   3.960
  167K+      K+  832   1.035   6.477   4.859
  168K+      K+  833   4.897   5.887   3.467
  169K+      K+  834   9.434   2.791   8.350
  170K+      K+  835   7.960   6.332   7.578
  171K+      K+  836   3.902   5.884   6.980
  172K+      K+  837   5.424   3.546   2.101
  173K+      K+  838   2.625   5.580   3.087
  174K+      K+  839   3.101   6.509   8.811
  175K+      K+  840   0.578   5.350   6.361
  176K+      K+  841   0.158   6.621   5.151
  177K+      K+  842   9.571   1.774   2.340
  178K+      K+  843   6.700   5.640   8.661
  179K+      K+  844   1.486   1.828   8.785
  180K+      K+  845   0.662   2.379   1.202
  181K+      K+  846   2.842   1.531   4.320
  182K+      K+  847   4.646   7.866   1.826
  183K+      K+  848   3.389   3.470   6.017
  184K+      K+  849   6.419   0.733   4.283
  185K+      K+  850   5.751   6.067   4.805
  186K+      K+  851   7.441   5.172   4.355
  187K+      K+  852   8.836   5.392   2.952
  188K+      K+  853   7.569   2.997   7.699
  189K+      K+  854   7.505   4.682   3.051
  190K+      K+  855   4.745   8.577   9.337
  191K+      K+  856   7.196   4.181   6.265
  192K+      K+  857   5.194   7.867   2.853
  193K+      K+  858   3.969   4.488   2.204
  194K+      K+  859   4.125   4.680   1.416
  195K+      K+  860   5.886   7.331   1.326
  196K+      K+  861   4.028   2.876   5.060
  197K+      K+  862   2.403   2.589   9.283
  198K+      K+  863   3.878   8.912   4.833
  199K+      K+  864   1.453   5.055   2.127
  200K+      K+  865   1.478   4.101   7.344
  201K+      K+  866   8.498   1.055   7.525
  202K+      K+  867   7.759   7.298   1.874
  203K+      K+  868   5.699   0.551   3.707
  204K+      K+  869   5.565   4.320   2.468
  205K+      K+  870   7.688   2.011   4.992
  206K+      K+  871   7.859   9.368   4.723
  207K+      K+  872   1.164   1.493   4.820
  208K+      K+  873   6.656   4.904   3.000
  209K+      K+  874   6.866   3.376   8.747
  210K+      K+  875   9.007   7.388   9.784
  211K+      K+  876   9.241   8.070   8.077
  212WAT      O  877   0.916   3.178   8.442
  212WAT     H1  878   0.959   3.244   8.503
  212WAT     H2  879   0.872   3.227   8.366
  213WAT      O  880   4.536   4.143   2.881
  213WAT     H1  881   4.479   4.223   2.901
  213WAT     H2  882   4.631   4.172   2.869
  214WAT      O  883   3.173   3.407   8.962
  214WAT     H1  884   3.177   3.430   8.865
  214WAT     H2  885   3.078   3.391   8.989
  215WAT      O  886   1.689   2.846   9.712
  215WAT     H1  887   1.788   2.859   9.704
  215WAT     H2  888   1.668   2.749   9.722
  216WAT      O  889   9.774   6.889   0.567
  216WAT     H1  890   9.840   6.958   0.596
  216WAT     H2  891   9.812   6.837   0.491
  217WAT      O  892   3.243   8.467   8.601
  217WAT     H1  893   3.171   8.426   8.545
  217WAT     H2  894   3.204   8.494   8.689
  218WAT      O  895   0.814   5.546   6.881
  218WAT     H1  896   0.752   5.468   6.873
  218WAT     H2  897   0.816   5.597   6.795
  219WAT      O  898   3.730   2.137   1.011
  219WAT     H1  899   3.825   2.151   1.041
  219WAT     H2  900   3.703   2.043   1.028
  220WAT      O  901   8.363   1.399   5.594
  220WAT     H1  902   8.312   1.483   5.612
  220WAT     H2  903   8.417   1.374   5.675
  221WAT      O  904   6.188   8.177   0.463
  221WAT     H1  905   6.093   8.177   0.432
  221WAT     H2  906   6.249   8.168   0.385
  222WAT      O  907   9.367   0.278   1.980
  222WAT     H1  908   9.424   0.307   1.904
  222WAT     H2  909   9.326   0.358   2.024
  223WAT      O  910   0.345   0.176   8.207
  223WAT     H1  911   0.431   0.161   8.157
  223WAT     H2  912   0.306   0.263   8.179
  224WAT      O  913   0.529   3.168   8.203
  224WAT     H1  914   0.559   3.251   8.249
  224WAT     H2  915   0.449   3.189   8.146
  225WAT      O  916   4.261   1.610   0.763
  225WAT     H1  917   4.284   1.529   0.711
  225WAT     H2  918   4.227   1.584   0.853
  226WAT      O  919   5.212   6.016   7.256
  226WAT     H1  920   5.182   6.010   7.352
  226WAT     H2  921   5.155   6.082   7.208
  227WAT      O  922   6.578   4.934   4.247
  227WAT     H1  923   6.540   4.905   4.334
  227WAT     H2  924   6.525   5.011   4.211
  228WAT      O  925   2.143   7.949   1.937
  228WAT     H1  926   2.195   7.877   1.890
  228WAT     H2  927   2.177   7.957   2.031
  229WAT      O  928   7.591   3.648   0.215
  229WAT     H1  929   7.530   3.706   0.268
  229WAT     H2  930   7.569   3.655   0.118
  230WAT      O  931   5.379   1.383   2.428
  230WAT     H1  932   5.453   1.435   2.472
  230WAT     H2  933   5.415   1.334   2.349
  231WAT      O  934   1.562   6.214   3.268
  231WAT     H1  935   1.519   6.123   3.272
  231WAT     H2  936   1.660   6.203   3.253
  232WAT      O  937   2.049   9.483   0.311
  232WAT     H1  938   2.139   9.515   0.342
  232WAT     H2  939   2.054   9.386   0.288
  233WAT      O  940   8.688   0.589   0.347
  233WAT     H1  941   8.769   0.620   0.397
  233WAT     H2  942   8.698   0.612   0.250
  234WAT      O  943   4.885   7.760   1.745
  234WAT     H1  944   4.898   7.783   1.649
  234WAT     H2  945   4.923   7.669   1.762
  235WAT      O  946   0.150   0.735   0.789
  235WAT     H1  947   0.082   0.718   0.718
  235WAT     H2  948   0.158   0.833   0.805
  236WAT      O  949   6.327   0.139   8.106
  236WAT     H1  950   6.347   0.058   8.162
  236WAT     H2  951   6.408   0.197   8.102
  237WAT      O  952   3.477   8.389   0.020
  237WAT     H1  953   3.523   8.453  -0.041
  237WAT     H2  954   3.486   8.422   0.115
  238WAT      O  955   1.598   8.890   3.316
  238WAT     H1  956   1.566   8.858   3.405
  238WAT     H2  957   1.653   8.819   3.273
  239WAT      O  958   6.188   2.536   4.098
  239WAT     H1  959   6.255   2.607   4.121
  239WAT     H2  960   6.183   2.525   3.999
  240WAT      O  961   2.361   5.899   9.121
  240WAT     H1  962   2.355   5.917   9.023
  240WAT     H2  963   2.269   5.902   9.161
  241WAT      O  964   2.705   3.904   3.146
  241WAT     H1  965   2.652   3.847   3.082
  241WAT     H2  966   2.797   3.865   3.157
  242WAT      O  967   6.445   3.735   7.692
  242WAT     H1  968   6.425   3.739   7.790
  242WAT     H2  969   6.384   3.669   7.648
  243WAT      O  970   8.848   8.970   0.221
  243WAT     H1  971   8.846   8.962   0.321
  243WAT     H2  972   8.793   8.897   0.181
  244WAT      O  973   5.304   4.118   2.393
  244WAT     H1  974   5.220   4.068   2.374
  244WAT     H2  975   5.287   4.189   2.460
  245WAT      O  976   0.069   5.219   1.999
  245WAT     H1  977   0.154   5.225   1.946
  245WAT     H2  978   0.086   5.245   2.093
  246WAT      O  979   1.310   0.481   4.879
  246WAT     H1  980   1.231   0.540   4.893
  246WAT     H2  981   1.345   0.494   4.786
  247WAT      O  982   1.911   9.730   4.833
  247WAT     H1  983   1.837   9.782   4.791
  247WAT     H2  984   1.930   9.649   4.778
  248WAT      O  985   4.176   1.324   4.759
  248WAT     H1  986   4.143   1.297   4.850
  248WAT     H2  987   4.104   1.309   4.692
  249WAT      O  988   0.007   2.567   0.686
  249WAT     H1  989  -0.046   2.503   0.630
  249WAT     H2  990   0.103   2.565   0.658
  250WAT      O  991   0.370   9.829   2.603
  250WAT     H1  992   0.320   9.801   2.521
  250WAT     H2  993   0.462   9.858   2.577
  251WAT      O  994   3.433   0.112   9.555
  251WAT     H1  995   3.403   0.057   9.633
  251WAT     H2  996   3.374   0.094   9.477
  252WAT      O  997   1.662   8.223   8.474
  252WAT     H1  998   1.696   8.226   8.380
  252WAT     H2  999   1.699   8.143   8.521
  253WAT      O 1000   5.966   2.993   4.580
  253WAT     H1 1001   5.909   3.072   4.557
  253WAT     H2 1002   5.939   2.915   4.524
  254WAT      O 1003   9.727   0.595   6.059
  254WAT     H1 1004   9.735   0.662   5.985
  254WAT     H2 1005   9.757   0.505   6.025
  255WAT      O 1006   3.648   6.525   4.927
  255WAT     H1 1007   3.584   6.506   4.852
  255WAT     H2 1008   3.604   6.502   5.014
  256WAT      O 1009   9.751   1.699   9.799
  256WAT     H1 1010   9.811   1.639   9.851
  256WAT     H2 1011   9.735   1.659   9.708
  257WAT      O 1012   6.417   3.275   3.349
  257WAT     H1 1013   6.446   3.351   3.291
  257WAT     H2 1014   6.350   3.307   3.416
  258WAT      O 1015   0.360   0.593   6.178
  258WAT     H1 1016   0.358   0.691   6.157
  258WAT     H2 1017   0.278   0.569   6.229
  259WAT      O 1018   8.878   9.772   4.829
  259WAT     H1 1019   8.955   9.753   4.767
  259WAT     H2 1020   8.814   9.835   4.785
  260WAT      O 1021   9.054   3.840   9.434
  260WAT     H1 1022   9.063   3.877   9.342
  260WAT     H2 1023   8.971   3.785   9.440
  261WAT      O 1024   0.374   8.600   1.187
  261WAT     H1 1025   0.361   8.503   1.207
  261WAT     H2 1026   0.436   8.609   1.109
  262WAT      O 1027   5.718   8.939   6.623
  262WAT     H1 1028   5.737   8.889   6.708
  262WAT     H2 1029   5.798   8.935   6.563
  263WAT      O 1030   2.798   9.802   9.822
  263WAT     H1 1031   2.811   9.901   9.832
  263WAT     H2 1032   2.873   9.754   9.866
  264WAT      O 1033   8.517   1.273   2.882
  264WAT     H1 1034   8.481   1.245   2.971
  264WAT     H2 1035   8.464   1.229   2.810
  265WAT      O 1036   8.234   1.404   5.948
  265WAT     H1 1037   8.168   1.467   5.987
  265WAT     H2 1038   8.186   1.327   5.906
  266WAT      O 1039   9.492   0.188   6.200
  266WAT     H1 1040   9.588   0.168   6.182
  266WAT     H2 1041   9.434   0.126   6.147
  267WAT      O 1042   0.839   1.152   4.757
  267WAT     H1 1043   0.871   1.217   4.826
  267WAT     H2 1044   0.741   1.138   4.769
  268WAT      O 1045   5.393   6.911   5.261
  268WAT     H1 1046   5.386   7.011   5.266
  268WAT     H2 1047   5.348   6.879   5.178
  269WAT      O 1048   0.031   8.534   8.628
  269WAT     H1 1049   0.026   8.486   8.716
  269WAT     H2 1050  -0.034   8.493   8.564
  270WAT      O 1051   6.249   5.147   3.029
  270WAT     H1 1052   6.222   5.173   3.122
  270WAT     H2 1053   6.175   5.095   2.986
  271WAT      O 1054   5.362   9.200   9.352
  271WAT     H1 1055   5.271   9.193   9.393
  271WAT     H2 1056   5.415   9.270   9.399
  272WAT      O 1057   2.090   6.549   5.709
  272WAT     H1 1058   2.080   6.643   5.742
  272WAT     H2 1059   2.178   6.541   5.661
  273WAT      O 1060   5.425   6.595   9.710
  273WAT     H1 1061   5.419   6.558   9.617
  273WAT     H2 1062   5.517   6.582   9.746
  274WAT      O 1063   9.374   5.192   2.010
  274WAT     H1 1064   9.320   5.111   2.033
  274WAT     H2 1065   9.411   5.182   1.917
  275WAT      O 1066   8.522   7.575   5.903
  275WAT     H1 1067   8.603   7.621   5.868
  275WAT     H2 1068   8.442   7.602   5.849
  276WAT      O 1069   2.781   8.567   7.414
  276WAT     H1 1070   2.700   8.627   7.408
  276WAT     H2 1071   2.773   8.509   7.495
  277WAT      O 1072   6.427   1.239   1.346
  277WAT     H1 1073   6.453   1.269   1.438
  277WAT     H2 1074   6.365   1.305   1.304
  278WAT      O 1075   1.993   9.388   0.696
  278WAT     H1 1076   2.062   9.334   0.744
  278WAT     H2 1077   1.926   9.422   0.761
  279WAT      O 1078   7.127   4.312   7.233
  279WAT     H1 1079   7.041   4.292   7.280
  279WAT     H2 1080   7.128   4.407   7.202
  280WAT      O 1081   3.721   4.380   3.725
  280WAT     H1 1082   3.744   4.371   3.822
  280WAT     H2 1083   3.796   4.344   3.669
  281WAT      O 1084   5.297   5.173   5.761
  281WAT     H1 1085   5.260   5.154   5.669
  281WAT     H2 1086   5.263   5.261   5.793
  282WAT      O 1087   3.534   1.971   2.739
  282WAT     H1 1088   3.591   1.923   2.672
  282WAT     H2 1089   3.529   2.068   2.715
  283WAT      O 1090   6.906   1.033   2.216
  283WAT     H1 1091   6.968   0.986   2.278
  283WAT     H2 1092   6.938   1.022   2.122
  284WAT      O 1093   2.696   6.807   7.833
  284WAT     H1 1094   2.642   6.799   7.749
  284WAT     H2 1095   2.681   6.726   7.890
  285WAT      O 1096   2.866   4.649   6.291
  285WAT     H1 1097   2.799   4.601   6.347
  285WAT     H2 1098   2.877   4.743   6.326
  286WAT      O 1099   1.908   3.324   0.575
  286WAT     H1 1100   1.908   3.273   0.489
  286WAT     H2 1101   1.913   3.260   0.652
  287WAT      O 1102   5.248   6.282   1.300
  287WAT     H1 1103   5.172   6.231   1.261
  287WAT     H2 1104   5.213   6.361   1.350
  288WAT      O 1105   9.193   4.831   2.901
  288WAT     H1 1106   9.171   4.757   2.964
  288WAT     H2 1107   9.261   4.799   2.835
  289WAT      O 1108   6.496   5.017   7.898
  289WAT     H1 1109   6.440   5.090   7.937
  289WAT     H2 1110   6.487   4.934   7.953
  290WAT      O 1111   6.464   5.305   6.103
  290WAT     H1 1112   6.558   5.293   6.070
  290WAT     H2 1113   6.404   5.321   6.025
  291WAT      O 1114   0.774   9.367   1.353
  291WAT     H1 1115   0.854   9.394   1.406
  291WAT     H2 1116   0.790   9.278   1.310
  292WAT      O 1117   1.302   2.105   9.790
  292WAT     H1 1118   1.298   2.165   9.870
  292WAT     H2 1119   1.210   2.069   9.771
  293WAT      O 1120   3.621   1.303   0.205
  293WAT     H1 1121   3.651   1.398   0.202
  293WAT     H2 1122   3.683   1.246   0.150
  294WAT      O 1123   2.890   5.352   2.155
  294WAT     H1 1124   2.880   5.451   2.165
  294WAT     H2 1125   2.850   5.307   2.235
  295WAT      O 1126   6.650   2.327   0.949
  295WAT     H1 1127   6.589   2.262   0.906
  295WAT     H2 1128   6.694   2.383   0.878
  296WAT      O 1129   1.441   8.360   4.783
  296WAT     H1 1130   1.490   8.442   4.815
  296WAT     H2 1131   1.390   8.383   4.700
  297WAT      O 1132   1.438   8.122   1.025
  297WAT     H1 1133   1.347   8.165   1.021
  297WAT     H2 1134   1.428   8.027   1.052
  298WAT      O 1135   8.770   4.479   1.818
  298WAT     H1 1136   8.779   4.553   1.884
  298WAT     H2 1137   8.850   4.480   1.757
  299WAT      O 1138   0.630   6.828   6.755
  299WAT     H1 1139   0.717   6.792   6.791
  299WAT     H2 1140   0.596   6.900   6.815
  300WAT      O 1141   0.383   2.307   0.506
  300WAT     H1 1142   0.462   2.312   0.445
  300WAT     H2 1143   0.318   2.241   0.470
  301WAT      O 1144   6.563   3.931   9.522
  301WAT     H1 1145   6.651   3.903   9.559
  301WAT     H2 1146   6.512   3.983   9.590
  302WAT      O 1147   6.768   6.635   9.343
  302WAT     H1 1148   6.709   6.558   9.318
  302WAT     H2 1149   6.784   6.692   9.263
  303WAT      O 1150   8.968   3.890   3.021
  303WAT     H1 1151   8.956   3.904   2.923
  303WAT     H2 1152   9.053   3.839   3.037
  304WAT      O 1153   4.422   0.435   4.377
  304WAT     H1 1154   4.411   0.480   4.466
  304WAT     H2 1155   4.393   0.339   4.384
  305WAT      O 1156   8.133   8.162   0.542
  305WAT     H1 1157   8.051   8.110   0.519
  305WAT     H2 1158   8.154   8.151   0.639
  306WAT      O 1159   4.953   5.057   6.143
  306WAT     H1 1160   4.958   4.990   6.069
  306WAT     H2 1161   5.043   5.070   6.183
  307WAT      O 1162   6.329   5.326   2.492
  307WAT     H1 1163   6.321   5.230   2.518
  307WAT     H2 1164   6.330   5.333   2.392
  308WAT      O 1165   6.236   8.054   7.593
  308WAT     H1 1166   6.215   7.958   7.573
  308WAT     H2 1167   6.241   8.066   7.693
  309WAT      O 1168   9.093   5.402   5.473
  309WAT     H1 1169   9.097   5.435   5.567
  309WAT     H2 1170   9.000   5.372   5.453
  310WAT      O 1171   6.823   4.245   1.928
  310WAT     H1 1172   6.888   4.213   1.860
  310WAT     H2 1173   6.833   4.344   1.939
  311WAT      O 1174   2.429   2.064   5.562
  311WAT     H1 1175   2.419   2.123   5.482
  311WAT     H2 1176   2.381   1.977   5.545
  312WAT      O 1177   0.057   6.381   1.129
  312WAT     H1 1178   0.089   6.389   1.224
  312WAT     H2 1179   0.099   6.300   1.087
  313WAT      O 1180   1.211   5.217   0.935
  313WAT     H1 1181   1.231   5.187   0.842
  313WAT     H2 1182   1.287   5.273   0.969
  314WAT      O 1183   5.860   0.399   8.656
  314WAT     H1 1184   5.788   0.360   8.597
  314WAT     H2 1185   5.916   0.461   8.602
  315WAT      O 1186   8.489   3.329   6.156
  315WAT     H1 1187   8.481   3.428   6.168
  315WAT     H2 1188   8.531   3.289   6.238
  316WAT      O 1189   3.459   3.129   5.883
  316WAT     H1 1190   3.493   3.161   5.795
  316WAT     H2 1191   3.441   3.030   5.878
  317WAT      O 1192   7.925   9.696   1.835
  317WAT     H1 1193   7.913   9.728   1.929
  317WAT     H2 1194   7.853   9.631   1.812
  318WAT      O 1195   8.790   4.857   1.014
  318WAT     H1 1196   8.729   4.915   0.961
  318WAT     H2 1197   8.879   4.852   0.969
  319WAT      O 1198   3.973   2.987   6.778
  319WAT     H1 1199   3.959   3.002   6.875
  319WAT     H2 1200   3.909   3.044   6.725
  320WAT      O 1201   7.283   5.918   9.753
  320WAT     H1 1202   7.289   5.949   9.658
  320WAT     H2 1203   7.324   5.827   9.761
  321WAT      O 1204   4.361   8.794   0.034
  321WAT     H1 1205   4.265   8.802   0.061
  321WAT     H2 1206   4.413   8.872   0.068
  322WAT      O 1207   6.723   5.330   0.974
  322WAT     H1 1208   6.735   5.232   0.960
  322WAT     H2 1209   6.733   5.378   0.887
  323WAT      O 1210   4.542   8.445   8.934
  323WAT     H1 1211   4.603   8.419   9.009
  323WAT     H2 1212   4.527   8.365   8.875
  324WAT      O 1213   5.744   3.189   0.144
  324WAT     H1 1214   5.659   3.162   0.190
  324WAT     H2 1215   5.786   3.109   0.102
  325WAT      O 1216   4.115   2.969   8.083
  325WAT     H1 1217   4.115   2.869   8.091
  325WAT     H2 1218   4.183   2.997   8.015
  326WAT      O 1219   4.705   0.361   1.323
  326WAT     H1 1220   4.719   0.340   1.420
  326WAT     H2 1221   4.683   0.458   1.312
  327WAT      O 1222   7.065   5.952   4.369
  327WAT     H1 1223   6.982   6.007   4.355
  327WAT     H2 1224   7.041   5.855   4.369
  328WAT      O 1225   4.517   9.354   2.877
  328WAT     H1 1226   4.585   9.313   2.816
  328WAT     H2 1227   4.426   9.342   2.838
  329WAT      O 1228   2.867   5.867   0.594
  329WAT     H1 1229   2.919   5.951   0.575
  329WAT     H2 1230   2.916   5.788   0.558
  330WAT      O 1231   8.133   0.544   4.548
  330WAT     H1 1232   8.148   0.615   4.617
  330WAT     H2 1233   8.165   0.577   4.459
  331WAT      O 1234   8.684   0.909   8.210
  331WAT     H1 1235   8.741   0.841   8.255
  331WAT     H2 1236   8.637   0.964   8.278
  332WAT      O 1237   7.082   2.341   3.406
  332WAT     H1 1238   7.143   2.420   3.399
  332WAT     H2 1239   7.082   2.307   3.500
  333WAT      O 1240   1.983   2.971   3.663
  333WAT     H1 1241   1.948   3.060   3.636
  333WAT     H2 1242   2.006   2.918   3.582
  334WAT      O 1243   0.276   7.786   2.454
  334WAT     H1 1244   0.324   7.706   2.420
  334WAT     H2 1245   0.202   7.758   2.515
  335WAT      O 1246   3.915   0.455   6.705
  335WAT     H1 1247   3.860   0.530   6.668
  335WAT     H2 1248   3.984   0.492   6.767
  336WAT      O 1249   3.857   9.730   5.120
  336WAT     H1 1250   3.795   9.805   5.142
  336WAT     H2 1251   3.887   9.686   5.205
  337WAT      O 1252   1.325   2.250   0.136
  337WAT     H1 1253   1.410   2.292   0.166
  337WAT     H2 1254   1.257   2.322   0.120
  338WAT      O 1255   9.406   4.274   2.916
  338WAT     H1 1256   9.359   4.221   2.845
  338WAT     H2 1257   9.493   4.231   2.938
  339WAT      O 1258   9.681   7.907   4.774
  339WAT     H1 1259   9.586   7.898   4.804
  339WAT     H2 1260   9.700   8.002   4.752
  340WAT      O 1261   4.093   4.959   4.550
  340WAT     H1 1262   4.061   5.041   4.598
  340WAT     H2 1263   4.021   4.925   4.490
  341WAT      O 1264   8.503   1.439   6.633
  341WAT     H1 1265   8.443   1.519   6.645
  341WAT     H2 1266   8.466   1.362   6.685
  342WAT      O 1267   9.556   2.467   3.280
  342WAT     H1 1268   9.588   2.560   3.297
  342WAT     H2 1269   9.613   2.424   3.211
  343WAT      O 1270   7.607   7.049   1.814
  343WAT     H1 1271   7.570   7.042   1.906
  343WAT     H2 1272   7.666   6.970   1.795
  344WAT      O 1273   2.345   6.034   8.574
  344WAT     H1 1274   2.268   6.097   8.561
  344WAT     H2 1275   2.314   5.941   8.557
  345WAT      O 1276   7.075   0.269   1.849
  345WAT     H1 1277   7.096   0.289   1.753
  345WAT     H2 1278   6.994   0.320   1.877
  346WAT      O 1279   7.365   1.113   0.362
  346WAT     H1 1280   7.287   1.053   0.379
  346WAT     H2 1281   7.425   1.072   0.293
  347WAT      O 1282   5.880   8.991   0.430
  347WAT     H1 1283   5.895   8.996   0.529
  347WAT     H2 1284   5.968   8.998   0.382
  348WAT      O 1285   8.786   4.999   0.606
  348WAT     H1 1286   8.732   4.925   0.646
  348WAT     H2 1287   8.755   5.087   0.643
  349WAT      O 1288   9.187   4.996   4.915
  349WAT     H1 1289   9.149   4.916   4.962
  349WAT     H2 1290   9.117   5.068   4.912
  350WAT      O 1291   8.805   1.681   1.688
  350WAT     H1 1292   8.818   1.582   1.702
  350WAT     H2 1293   8.736   1.715   1.751
  351WAT      O 1294   4.825   6.050   4.620
  351WAT     H1 1295   4.764   5.974   4.641
  351WAT     H2 1296   4.862   6.089   4.704
  352WAT      O 1297   4.166   0.682   9.457
  352WAT     H1 1298   4.204   0.751   9.395
  352WAT     H2 1299   4.130   0.728   9.538
  353WAT      O 1300   8.190   3.696   0.465
  353WAT     H1 1301   8.285   3.694   0.433
  353WAT     H2 1302   8.147   3.782   0.436
  354WAT      O 1303   8.243   8.120   4.069
  354WAT     H1 1304   8.326   8.087   4.114
  354WAT     H2 1305   8.223   8.213   4.099
  355WAT      O 1306   5.838   9.799   5.512
  355WAT     H1 1307   5.840   9.896   5.535
  355WAT     H2 1308   5.921   9.775   5.461
  356WAT      O 1309   3.049   1.195   9.134
  356WAT     H1 1310   3.137   1.229   9.168
  356WAT     H2 1311   3.048   1.200   9.034
  357WAT      O 1312   3.661   8.159   1.619
  357WAT     H1 1313   3.579   8.211   1.642
  357WAT     H2 1314   3.742   8.216   1.634
  358WAT      O 1315   4.671   3.467   1.097
  358WAT     H1 1316   4.724   3.550   1.079
  358WAT     H2 1317   4.662   3.415   1.013
  359WAT      O 1318   2.452   2.329   9.297
  359WAT     H1 1319   2.515   2.298   9.226
  359WAT     H2 1320   2.411   2.250   9.343
  360WAT      O 1321   7.270   4.116   0.546
  360WAT     H1 1322   7.272   4.164   0.634
  360WAT     H2 1323   7.335   4.158   0.484
  361WAT      O 1324   5.958   0.955   2.500
  361WAT     H1 1325   5.956   0.858   2.476
  361WAT     H2 1326   5.888   1.003   2.448
  362WAT      O 1327   4.626   1.911   5.865
  362WAT     H1 1328   4.566   1.948   5.935
  362WAT     H2 1329   4.721   1.934   5.885
  363WAT      O 1330   1.494   3.352   5.034
  363WAT     H1 1331   1.497   3.398   5.122
  363WAT     H2 1332   1.413   3.293   5.031
  364WAT      O 1333   8.752   2.104   2.856
  364WAT     H1 1334   8.817   2.106   2.932
  364WAT     H2 1335   8.796   2.141   2.774
  365WAT      O 1336   3.016   4.027   0.143
  365WAT     H1 1337   3.012   4.126   0.159
  365WAT     H2 1338   3.000   3.979   0.229
  366WAT      O 1339   7.859   4.773   7.730
  366WAT     H1 1340   7.842   4.870   7.715
  366WAT     H2 1341   7.826   4.720   7.652
  367WAT      O 1342   1.270   4.334   9.736
  367WAT     H1 1343   1.259   4.244   9.695
  367WAT     H2 1344   1.365   4.363   9.727
  368WAT      O 1345   8.829   3.801   3.260
  368WAT     H1 1346   8.741   3.802   3.212
  368WAT     H2 1347   8.903   3.807   3.193
  369WAT      O 1348   8.188   8.375   7.678
  369WAT     H1 1349   8.240   8.363   7.594
  369WAT     H2 1350   8.153   8.469   7.682
  370WAT      O 1351   5.095   2.988   1.040
  370WAT     H1 1352   5.138   2.939   0.965
  370WAT     H2 1353   5.034   3.058   1.004
  371WAT      O 1354   9.066   1.031   8.703
  371WAT     H1 1355   9.019   0.988   8.781
  371WAT     H2 1356   9.163   1.043   8.726
  372WAT      O 1357   8.564   3.166   7.051
  372WAT     H1 1358   8.549   3.068   7.062
  372WAT     H2 1359   8.527   3.196   6.963
  373WAT      O 1360   2.460   8.618   0.969
  373WAT     H1 1361   2.488   8.525   0.946
  373WAT     H2 1362   2.495   8.682   0.900
  374WAT      O 1363   0.500   4.281   3.945
  374WAT     H1 1364   0.551   4.206   3.986
  374WAT     H2 1365   0.505   4.361   4.005
  375WAT      O 1366   9.839   8.276   0.886
  375WAT     H1 1367   9.862   8.186   0.924
  375WAT     H2 1368   9.771   8.320   0.944
  376WAT      O 1369   6.050   8.044   4.155
  376WAT     H1 1370   6.068   7.947   4.143
  376WAT     H2 1371   6.024   8.084   4.067
  377WAT      O 1372   3.240   4.058   2.361
  377WAT     H1 1373   3.157   4.007   2.383
  377WAT     H2 1374   3.263   4.045   2.264
  378WAT      O 1375   2.931   0.132   7.717
  378WAT     H1 1376   2.921   0.044   7.763
  378WAT     H2 1377   2.882   0.202   7.769
  379WAT      O 1378   6.719   7.113   7.480
  379WAT     H1 1379   6.793   7.050   7.503
  379WAT     H2 1380   6.756   7.199   7.447
  380WAT      O 1381   6.939   3.425   6.336
  380WAT     H1 1382   6.923   3.327   6.347
  380WAT     H2 1383   7.037   3.444   6.345
  381WAT      O 1384   8.488   5.596   6.157
  381WAT     H1 1385   8.438   5.556   6.234
  381WAT     H2 1386   8.499   5.694   6.172
  382WAT      O 1387   0.464   2.333   3.417
  382WAT     H1 1388   0.425   2.414   3.375
  382WAT     H2 1389   0.488   2.352   3.513
  383WAT      O 1390   8.271   1.532   2.811
  383WAT     H1 1391   8.347   1.546   2.747
  383WAT     H2 1392   8.300   1.555   2.904
  384WAT      O 1393   0.663   2.058   7.822
  384WAT     H1 1394   0.743   2.017   7.867
  384WAT     H2 1395   0.657   2.025   7.728
  385WAT      O 1396   6.254   6.262   0.253
  385WAT     H1 1397   6.280   6.296   0.343
  385WAT     H2 1398   6.246   6.162   0.256
  386WAT      O 1399   9.709   8.226   1.781
  386WAT     H1 1400   9.796   8.276   1.770
  386WAT     H2 1401   9.658   8.265   1.857
  387WAT      O 1402   1.418   3.710   2.271
  387WAT     H1 1403   1.421   3.805   2.301
  387WAT     H2 1404   1.323   3.679   2.269
  388WAT      O 1405   5.122   2.617   4.511
  388WAT     H1 1406   5.059   2.565   4.569
  388WAT     H2 1407   5.117   2.584   4.417
  389WAT      O 1408   4.540   1.369   3.088
  389WAT     H1 1409   4.605   1.294   3.091
  389WAT     H2 1410   4.477   1.355   3.011
  390WAT      O 1411   8.399   0.921   0.904
  390WAT     H1 1412   8.438   0.869   0.980
  390WAT     H2 1413   8.368   1.010   0.938
  391WAT      O 1414   6.375   2.343   9.383
  391WAT     H1 1415   6.326   2.335   9.470
  391WAT     H2 1416   6.318   2.309   9.309
  392WAT      O 1417   3.591   0.022   7.605
  392WAT     H1 1418   3.532  -0.038   7.659
  392WAT     H2 1419   3.632  -0.030   7.530
  393WAT      O 1420   0.193   1.687   0.864
  393WAT     H1 1421   0.280   1.735   0.866
  393WAT     H2 1422   0.172   1.650   0.954
  394WAT      O 1423   5.733   3.745   3.758
  394WAT     H1 1424   5.721   3.818   3.826
  394WAT     H2 1425   5.780   3.782   3.678
  395WAT      O 1426   4.019   0.351   8.570
  395WAT     H1 1427   4.065   0.429   8.613
  395WAT     H2 1428   3.926   0.344   8.605
  396WAT      O 1429   4.870   5.699   2.774
  396WAT     H1 1430   4.875   5.783   2.828
  396WAT     H2 1431   4.961   5.679   2.736
  397WAT      O 1432   0.900   1.749   9.237
  397WAT     H1 1433   0.879   1.663   9.191
  397WAT     H2 1434   0.999   1.763   9.239
  398WAT      O 1435   5.723   1.026   9.422
  398WAT     H1 1436   5.660   1.021   9.500
  398WAT     H2 1437   5.743   1.121   9.401
  399WAT      O 1438   8.844   0.650   2.737
  399WAT     H1 1439   8.911   0.582   2.707
  399WAT     H2 1440   8.888   0.716   2.797
  400WAT      O 1441   2.679   9.737   1.364
  400WAT     H1 1442   2.667   9.673   1.288
  400WAT     H2 1443   2.608   9.722   1.432
  401WAT      O 1444   8.435   9.485   9.836
  401WAT     H1 1445   8.387   9.555   9.889
  401WAT     H2 1446   8.501   9.529   9.775
  402WAT      O 1447   6.756   8.657   9.454
  402WAT     H1 1448   6.660   8.660   9.481
  402WAT     H2 1449   6.808   8.722   9.510
  403WAT      O 1450   2.609   4.535   4.670
  403WAT     H1 1451   2.669   4.456   4.681
  403WAT     H2 1452   2.636   4.587   4.589
  404WAT      O 1453   6.052   3.394   4.112
  404WAT     H1 1454   6.025   3.302   4.138
  404WAT     H2 1455   5.974   3.456   4.121
  405WAT      O 1456   0.477   3.569   2.310
  405WAT     H1 1457   0.576   3.557   2.305
  405WAT     H2 1458   0.433   3.507   2.246
  406WAT      O 1459   4.736   3.193   6.516
  406WAT     H1 1460   4.692   3.264   6.572
  406WAT     H2 1461   4.831   3.184   6.544
  407WAT      O 1462   4.019   8.153   6.185
  407WAT     H1 1463   4.055   8.083   6.247
  407WAT     H2 1464   3.924   8.173   6.209
  408WAT      O 1465   9.248   1.168   5.938
  408WAT     H1 1466   9.167   1.175   5.880
  408WAT     H2 1467   9.228   1.207   6.028
  409WAT      O 1468   6.050   4.109   0.834
  409WAT     H1 1469   6.141   4.138   0.806
  409WAT     H2 1470   5.982   4.146   0.770
  410WAT      O 1471   7.578   6.212   1.853
  410WAT     H1 1472   7.612   6.118   1.845
  410WAT     H2 1473   7.497   6.214   1.911
  411WAT      O 1474   3.563   7.091   6.169
  411WAT     H1 1475   3.574   7.131   6.079
  411WAT     H2 1476   3.643   7.035   6.191
  412WAT      O 1477   8.224   6.416   0.495
  412WAT     H1 1478   8.205   6.514   0.496
  412WAT     H2 1479   8.197   6.378   0.407
  413WAT      O 1480   5.136   3.833   6.787
  413WAT     H1 1481   5.125   3.769   6.711
  413WAT     H2 1482   5.048   3.848   6.831
  414WAT      O 1483   7.551   7.677   0.855
  414WAT     H1 1484   7.499   7.753   0.818
  414WAT     H2 1485   7.642   7.675   0.815
  415WAT      O 1486   4.818   0.154   4.382
  415WAT     H1 1487   4.760   0.105   4.447
  415WAT     H2 1488   4.769   0.235   4.349
  416WAT      O 1489   2.656   0.232   3.856
  416WAT     H1 1490   2.686   0.143   3.824
  416WAT     H2 1491   2.558   0.242   3.842
  417WAT      O 1492   4.673   0.705   9.759
  417WAT     H1 1493   4.601   0.660   9.810
  417WAT     H2 1494   4.693   0.794   9.801
  418WAT      O 1495   7.794   0.379   5.155
  418WAT     H1 1496   7.863   0.451   5.142
  418WAT     H2 1497   7.828   0.313   5.223
  419WAT      O 1498   7.158   6.278   1.276
  419WAT     H1 1499   7.065   6.251   1.301
  419WAT     H2 1500   7.194   6.341   1.344
  420WAT      O 1501   0.512   2.236   3.904
  420WAT     H1 1502   0.510   2.306   3.976
  420WAT     H2 1503   0.420   2.225   3.865
  421WAT      O 1504   1.400   5.668   5.521
  421WAT     H1 1505   1.473   5.626   5.575
  421WAT     H2 1506   1.416   5.767   5.515
  422WAT      O 1507   2.918   6.397   6.075
  422WAT     H1 1508   2.985   6.455   6.121
  422WAT     H2 1509   2.839   6.384   6.134
  423WAT      O 1510   7.721   4.254   2.985
  423WAT     H1 1511   7.630   4.294   2.971
  423WAT     H2 1512   7.776   4.315   3.042
  424WAT      O 1513   7.142   7.023   0.786
  424WAT     H1 1514   7.125   7.046   0.691
  424WAT     H2 1515   7.056   7.012   0.835
  425WAT      O 1516   3.278   6.879   9.306
  425WAT     H1 1517   3.261   6.913   9.399
  425WAT     H2 1518   3.198   6.827   9.275
  426WAT      O 1519   5.896   2.879   0.301
  426WAT     H1 1520   5.885   2.924   0.212
  426WAT     H2 1521   5.968   2.810   0.295
  427WAT      O 1522   0.044   5.189   0.821
  427WAT     H1 1523  -0.016   5.203   0.900
  427WAT     H2 1524   0.079   5.095   0.823
  428WAT      O 1525   2.273   4.896   5.905
  428WAT     H1 1526   2.319   4.950   5.834
  428WAT     H2 1527   2.177   4.924   5.911
  429WAT      O 1528   0.125   9.653   3.931
  429WAT     H1 1529   0.132   9.556   3.907
  429WAT     H2 1530   0.217   9.692   3.942
  430WAT      O 1531   7.238   7.901   7.990
  430WAT     H1 1532   7.170   7.917   8.061
  430WAT     H2 1533   7.323   7.869   8.031
  431WAT      O 1534   9.428   5.067   5.969
  431WAT     H1 1535   9.406   5.139   6.036
  431WAT     H2 1536   9.498   5.007   6.007
  432WAT      O 1537   0.608   2.586   5.715
  432WAT     H1 1538   0.535   2.620   5.657
  432WAT     H2 1539   0.694   2.631   5.690
  433WAT      O 1540   0.481   2.775   7.506
  433WAT     H1 1541   0.564   2.796   7.558
  433WAT     H2 1542   0.445   2.859   7.465
  434WAT      O 1543   6.733   9.828   8.387
  434WAT     H1 1544   6.645   9.862   8.419
  434WAT     H2 1545   6.721   9.738   8.345
  435WAT      O 1546   5.865   4.446   3.932
  435WAT     H1 1547   5.932   4.384   3.891
  435WAT     H2 1548   5.786   4.393   3.964
  436WAT      O 1549   2.216   8.456   7.589
  436WAT     H1 1550   2.180   8.548   7.604
  436WAT     H2 1551   2.142   8.395   7.564
  437WAT      O 1552   5.668   3.506   1.878
  437WAT     H1 1553   5.751   3.517   1.824
  437WAT     H2 1554   5.640   3.594   1.916
  438WAT      O 1555   2.624   2.445   4.299
  438WAT     H1 1556   2.621   2.544   4.311
  438WAT     H2 1557   2.535   2.405   4.322
  439WAT      O 1558   7.639   5.693   6.503
  439WAT     H1 1559   7.559   5.749   6.483
  439WAT     H2 1560   7.610   5.608   6.547
  440WAT      O 1561   2.968   1.185   9.445
  440WAT     H1 1562   2.981   1.087   9.429
  440WAT     H2 1563   3.048   1.221   9.493
  441WAT      O 1564   1.876   9.214   9.823
  441WAT     H1 1565   1.812   9.179   9.892
  441WAT     H2 1566   1.884   9.313   9.832
  442WAT      O 1567   0.499   2.756   6.461
  442WAT     H1 1568   0.468   2.826   6.524
  442WAT     H2 1569   0.582   2.787   6.414
  443WAT      O 1570   9.610   5.283   3.994
  443WAT     H1 1571   9.690   5.318   3.945
  443WAT     H2 1572   9.556   5.360   4.029
  444WAT      O 1573   4.786   4.712   4.409
  444WAT     H1 1574   4.763   4.634   4.468
  444WAT     H2 1575   4.884   4.710   4.388
  445WAT      O 1576   3.232   8.526   2.309
  445WAT     H1 1577   3.288   8.473   2.245
  445WAT     H2 1578   3.137   8.526   2.279
  446WAT      O 1579   3.008   1.420   4.834
  446WAT     H1 1580   2.913   1.450   4.843
  446WAT     H2 1581   3.067   1.484   4.884
  447WAT      O 1582   7.613   5.366   1.366
  447WAT     H1 1583   7.528   5.402   1.328
  447WAT     H2 1584   7.617   5.388   1.464
  448WAT      O 1585   3.927   0.948   6.899
  448WAT     H1 1586   3.846   0.964   6.842
  448WAT     H2 1587   4.008   0.940   6.842
  449WAT      O 1588   1.924   0.685   0.484
  449WAT     H1 1589   1.838   0.731   0.504
  449WAT     H2 1590   1.975   0.670   0.568
  450WAT      O 1591   0.750   2.333   1.497
  450WAT     H1 1592   0.760   2.301   1.592
  450WAT     H2 1593   0.684   2.408   1.495
  451WAT      O 1594   4.282   9.724   5.600
  451WAT     H1 1595   4.317   9.817   5.593
  451WAT     H2 1596   4.225   9.716   5.682
  452WAT      O 1597   2.143   6.621   7.364
  452WAT     H1 1598   2.201   6.562   7.420
  452WAT     H2 1599   2.074   6.565   7.318
  453WAT      O 1600   5.332   3.916   2.595
  453WAT     H1 1601   5.319   3.991   2.530
  453WAT     H2 1602   5.424   3.923   2.635
  454WAT      O 1603   5.881   1.090   4.657
  454WAT     H1 1604   5.944   1.070   4.732
  454WAT     H2 1605   5.788   1.097   4.692
  455WAT      O 1606   2.174   8.248   3.414
  455WAT     H1 1607   2.108   8.194   3.466
  455WAT     H2 1608   2.259   8.257   3.466
  456WAT      O 1609   9.636   7.504   4.453
  456WAT     H1 1610   9.701   7.443   4.498
  456WAT     H2 1611   9.576   7.546   4.522
  457WAT      O 1612   1.793   1.722   3.983
  457WAT     H1 1613   1.792   1.623   3.974
  457WAT     H2 1614   1.868   1.759   3.927
  458WAT      O 1615   1.826   5.076   1.835
  458WAT     H1 1616   1.806   5.110   1.743
  458WAT     H2 1617   1.854   5.153   1.893
  459WAT      O 1618   6.121   7.797   2.214
  459WAT     H1 1619   6.082   7.743   2.289
  459WAT     H2 1620   6.148   7.887   2.249
  460WAT      O 1621   4.352   7.480   6.694
  460WAT     H1 1622   4.256   7.496   6.673
  460WAT     H2 1623   4.384   7.549   6.760
  461WAT      O 1624   0.981   5.254   6.719
  461WAT     H1 1625   0.999   5.331   6.780
  461WAT     H2 1626   1.039   5.261   6.638
  462WAT      O 1627   2.266   4.049   6.035
  462WAT     H1 1628   2.305   4.075   6.124
  462WAT     H2 1629   2.167   4.066   6.036
  463WAT      O 1630   9.696   6.466   1.447
  463WAT     H1 1631   9.686   6.368   1.427
  463WAT     H2 1632   9.660   6.519   1.370
  464WAT      O 1633   1.222   7.929   9.349
  464WAT     H1 1634   1.169   7.857   9.393
  464WAT     H2 1635   1.179   8.018   9.367
  465WAT      O 1636   5.323   2.550   6.392
  465WAT     H1 1637   5.273   2.510   6.315
  465WAT     H2 1638   5.412   2.506   6.400
  466WAT      O 1639   4.256   3.793   1.349
  466WAT     H1 1640   4.274   3.699   1.320
  466WAT     H2 1641   4.164   3.820   1.321
  467WAT      O 1642   4.592   2.696   4.468
  467WAT     H1 1643   4.667   2.755   4.437
  467WAT     H2 1644   4.629   2.607   4.494
  468WAT      O 1645   8.289   4.772   4.318
  468WAT     H1 1646   8.219   4.838   4.291
  468WAT     H2 1647   8.323   4.724   4.237
  469WAT      O 1648   0.162   9.283   5.388
  469WAT     H1 1649   0.110   9.282   5.473
  469WAT     H2 1650   0.254   9.249   5.405
  470WAT      O 1651   6.340   8.212   5.462
  470WAT     H1 1652   6.392   8.261   5.391
  470WAT     H2 1653   6.248   8.194   5.429
  471WAT      O 1654   9.152   1.054   5.046
  471WAT     H1 1655   9.165   1.047   5.145
  471WAT     H2 1656   9.058   1.029   5.022
  472WAT      O 1657   8.451   9.114   8.416
  472WAT     H1 1658   8.356   9.087   8.426
  472WAT     H2 1659   8.504   9.082   8.494
  473WAT      O 1660   5.883   6.019   1.633
  473WAT     H1 1661   5.892   6.053   1.540
  473WAT     H2 1662   5.973   5.986   1.665
  474WAT      O 1663   8.740   6.701   6.822
  474WAT     H1 1664   8.735   6.688   6.723
  474WAT     H2 1665   8.662   6.756   6.852
  475WAT      O 1666   6.793   1.062   4.065
  475WAT     H1 1667   6.815   1.160   4.070
  475WAT     H2 1668   6.704   1.046   4.108
  476WAT      O 1669   9.745   1.824   4.840
  476WAT     H1 1670   9.705   1.799   4.928
  476WAT     H2 1671   9.733   1.748   4.776
  477WAT      O 1672   0.271   3.694   5.042
  477WAT     H1 1673   0.214   3.734   5.114
  477WAT     H2 1674   0.281   3.760   4.967
  478WAT      O 1675   1.535   8.570   2.164
  478WAT     H1 1676   1.557   8.625   2.084
  478WAT     H2 1677   1.493   8.627   2.234
  479WAT      O 1678   7.693   8.678   2.585
  479WAT     H1 1679   7.611   8.644   2.632
  479WAT     H2 1680   7.772   8.669   2.646
  480WAT      O 1681   7.414   3.496   9.414
  480WAT     H1 1682   7.474   3.418   9.429
  480WAT     H2 1683   7.407   3.516   9.317
  481WAT      O 1684   2.759   7.998   8.432
  481WAT     H1 1685   2.790   8.046   8.513
  481WAT     H2 1686   2.784   7.901   8.438
  482WAT      O 1687   2.540   2.859   0.006
  482WAT     H1 1688   2.630   2.876   0.047
  482WAT     H2 1689   2.490   2.946  -0.003
  483WAT      O 1690   4.920   4.725   6.522
  483WAT     H1 1691   4.876   4.813   6.544
  483WAT     H2 1692   4.905   4.661   6.598
  484WAT      O 1693   0.045   4.740   2.558
  484WAT     H1 1694  -0.028   4.801   2.527
  484WAT     H2 1695   0.085   4.776   2.642
  485WAT      O 1696   6.945   2.636   3.694
  485WAT     H1 1697   6.931   2.576   3.773
  485WAT     H2 1698   7.041   2.635   3.668
  486WAT      O 1699   7.728   1.427   8.895
  486WAT     H1 1700   7.666   1.409   8.819
  486WAT     H2 1701   7.807   1.367   8.888
  487WAT      O 1702   5.900   5.588   9.431
  487WAT     H1 1703   5.881   5.634   9.517
  487WAT     H2 1704   5.813   5.563   9.387
  488WAT      O 1705   1.010   3.823   9.525
  488WAT     H1 1706   1.015   3.760   9.603
  488WAT     H2 1707   1.059   3.783   9.447
  489WAT      O 1708   3.801   5.018   7.016
  489WAT     H1 1709   3.721   5.053   7.063
  489WAT     H2 1710   3.854   4.959   7.078
  490WAT      O 1711   0.174   8.560   4.286
  490WAT     H1 1712   0.075   8.555   4.299
  490WAT     H2 1713   0.214   8.470   4.307
  491WAT      O 1714   0.996   1.262   0.788
  491WAT     H1 1715   1.007   1.357   0.819
  491WAT     H2 1716   1.079   1.211   0.811
  492WAT      O 1717   2.249   6.656   6.320
  492WAT     H1 1718   2.232   6.754   6.324
  492WAT     H2 1719   2.203   6.617   6.240
  493WAT      O 1720   8.799   2.050   5.164
  493WAT     H1 1721   8.817   1.978   5.231
  493WAT     H2 1722   8.884   2.071   5.115
  494WAT      O 1723   3.628   5.252   8.077
  494WAT     H1 1724   3.550   5.217   8.129
  494WAT     H2 1725   3.711   5.202   8.104
  495WAT      O 1726   8.340   3.306   8.264
  495WAT     H1 1727   8.342   3.373   8.190
  495WAT     H2 1728   8.423   3.313   8.318
  496WAT      O 1729   6.880   3.847   4.238
  496WAT     H1 1730   6.920   3.829   4.328
  496WAT     H2 1731   6.881   3.764   4.183
  497WAT      O 1732   4.877   2.744   2.372
  497WAT     H1 1733   4.828   2.693   2.302
  497WAT     H2 1734   4.860   2.842   2.361
  498WAT      O 1735   0.997   7.705   1.841
  498WAT     H1 1736   1.079   7.666   1.882
  498WAT     H2 1737   1.011   7.803   1.825
  499WAT      O 1738   8.667   2.658   8.196
  499WAT     H1 1739   8.661   2.562   8.221
  499WAT     H2 1740   8.697   2.666   8.101
  500WAT      O 1741   7.276   9.689   0.480
  500WAT     H1 1742   7.216   9.765   0.455
  500WAT     H2 1743   7.253   9.609   0.425
  501WAT      O 1744   6.983   5.560   2.119
  501WAT     H1 1745   6.915   5.632   2.107
  501WAT     H2 1746   7.064   5.582   2.064
  502WAT      O 1747   9.152   6.950   6.136
  502WAT     H1 1748   9.123   7.026   6.079
  502WAT     H2 1749   9.222   6.982   6.201
  503WAT      O 1750   5.160   3.769   4.722
  503WAT     H1 1751   5.260   3.773   4.714
  503WAT     H2 1752   5.131   3.810   4.809
  504WAT      O 1753   4.834   5.362   3.077
  504WAT     H1 1754   4.763   5.353   3.146
  504WAT     H2 1755   4.904   5.291   3.091
  505WAT      O 1756   3.382   8.507   3.794
  505WAT     H1 1757   3.467   8.455   3.783
  505WAT     H2 1758   3.308   8.460   3.746
  506WAT      O 1759   2.562   7.531   5.356
  506WAT     H1 1760   2.521   7.462   5.296
  506WAT     H2 1761   2.572   7.494   5.448
  507WAT      O 1762   7.933   1.583   0.618
  507WAT     H1 1763   7.937   1.618   0.711
  507WAT     H2 1764   8.013   1.613   0.567
  508WAT      O 1765   4.670   9.683   0.685
  508WAT     H1 1766   4.747   9.745   0.668
  508WAT     H2 1767   4.605   9.728   0.746
  509WAT      O 1768   3.628   6.799   7.376
  509WAT     H1 1769   3.654   6.749   7.459
  509WAT     H2 1770   3.534   6.776   7.351
  510WAT      O 1771   9.253   8.285   7.217
  510WAT     H1 1772   9.317   8.275   7.293
  510WAT     H2 1773   9.167   8.325   7.250
  511WAT      O 1774   9.351   9.674   4.443
  511WAT     H1 1775   9.315   9.756   4.397
  511WAT     H2 1776   9.334   9.681   4.541
  512WAT      O 1777   7.213   9.657   7.712
  512WAT     H1 1778   7.168   9.702   7.636
  512WAT     H2 1779   7.220   9.720   7.789
  513WAT      O 1780   3.050   1.141   6.896
  513WAT     H1 1781   3.017   1.071   6.961
  513WAT     H2 1782   2.980   1.156   6.826
  514WAT      O 1783   5.592   3.338   9.059
  514WAT     H1 1784   5.576   3.413   8.995
  514WAT     H2 1785   5.546   3.359   9.146
  515WAT      O 1786   5.248   2.050   7.338
  515WAT     H1 1787   5.288   2.141   7.333
  515WAT     H2 1788   5.243   2.010   7.246
  516WAT      O 1789   5.203   9.260   8.808
  516WAT     H1 1790   5.286   9.204   8.814
  516WAT     H2 1791   5.132   9.221   8.866
  517WAT      O 1792   1.446   7.112   0.737
  517WAT     H1 1793   1.411   7.092   0.829
  517WAT     H2 1794   1.370   7.128   0.675
  518WAT      O 1795   4.874   2.794   0.374
  518WAT     H1 1796   4.819   2.769   0.294
  518WAT     H2 1797   4.945   2.859   0.346
  519WAT      O 1798   1.687   7.589   1.858
  519WAT     H1 1799   1.681   7.687   1.878
  519WAT     H2 1800   1.738   7.575   1.773
  520WAT      O 1801   0.443   4.648   8.874
  520WAT     H1 1802   0.486   4.619   8.960
  520WAT     H2 1803   0.454   4.746   8.863
  521WAT      O 1804   3.514   2.280   3.750
  521WAT     H1 1805   3.601   2.279   3.798
  521WAT     H2 1806   3.467   2.367   3.767
  522WAT      O 1807   9.683   1.412   2.939
  522WAT     H1 1808   9.678   1.510   2.920
  522WAT     H2 1809   9.677   1.362   2.852
  523WAT      O 1810   1.366   0.565   3.908
  523WAT     H1 1811   1.350   0.493   3.975
  523WAT     H2 1812   1.305   0.553   3.830
  524WAT      O 1813   8.506   0.235   5.509
  524WAT     H1 1814   8.500   0.268   5.603
  524WAT     H2 1815   8.521   0.312   5.448
  525WAT      O 1816   0.711   0.717   6.198
  525WAT     H1 1817   0.779   0.777   6.241
  525WAT     H2 1818   0.748   0.682   6.112
  526WAT      O 1819   8.924   4.154   8.598
  526WAT     H1 1820   8.878   4.129   8.513
  526WAT     H2 1821   8.858   4.193   8.661
  527WAT      O 1822   1.730   8.338   9.287
  527WAT     H1 1823   1.688   8.282   9.216
  527WAT     H2 1824   1.826   8.312   9.298
  528WAT      O 1825   6.564   3.419   5.130
  528WAT     H1 1826   6.526   3.468   5.208
  528WAT     H2 1827   6.648   3.464   5.100
  529WAT      O 1828   8.800   0.963   3.581
  529WAT     H1 1829   8.857   1.031   3.537
  529WAT     H2 1830   8.737   0.923   3.514
  530WAT      O 1831   0.727   4.894   7.786
  530WAT     H1 1832   0.823   4.867   7.776
  530WAT     H2 1833   0.686   4.842   7.861
  531WAT      O 1834   4.763   0.933   2.113
  531WAT     H1 1835   4.671   0.919   2.077
  531WAT     H2 1836   4.819   0.979   2.044
  532WAT      O 1837   2.285   3.531   4.691
  532WAT     H1 1838   2.260   3.598   4.761
  532WAT     H2 1839   2.236   3.552   4.606
  533WAT      O 1840   6.369   4.203   4.645
  533WAT     H1 1841   6.313   4.283   4.664
  533WAT     H2 1842   6.311   4.133   4.602
  534WAT      O 1843   1.774   5.310   0.196
  534WAT     H1 1844   1.833   5.331   0.118
  534WAT     H2 1845   1.719   5.229   0.175
  535WAT      O 1846   3.709   3.384   8.667
  535WAT     H1 1847   3.804   3.416   8.657
  535WAT     H2 1848   3.694   3.306   8.605
  536WAT      O 1849   4.299   4.409   8.883
  536WAT     H1 1850   4.321   4.458   8.967
  536WAT     H2 1851   4.335   4.316   8.889
  537WAT      O 1852   6.309   8.667   3.878
  537WAT     H1 1853   6.396   8.715   3.869
  537WAT     H2 1854   6.322   8.583   3.932
  538WAT      O 1855   0.443   8.752   4.988
  538WAT     H1 1856   0.344   8.748   4.999
  538WAT     H2 1857   0.474   8.671   4.937
  539WAT      O 1858   8.486   1.299   7.680
  539WAT     H1 1859   8.479   1.327   7.776
  539WAT     H2 1860   8.397   1.268   7.647
  540WAT      O 1861   6.882   1.993   2.251
  540WAT     H1 1862   6.961   1.932   2.249
  540WAT     H2 1863   6.800   1.940   2.271
  541WAT      O 1864   7.956   1.346   6.565
  541WAT     H1 1865   7.895   1.269   6.544
  541WAT     H2 1866   8.003   1.328   6.651
  542WAT      O 1867   5.990   2.893   1.425
  542WAT     H1 1868   5.939   2.929   1.347
  542WAT     H2 1869   6.044   2.966   1.466
  543WAT      O 1870   7.518   0.916   2.417
  543WAT     H1 1871   7.425   0.950   2.402
  543WAT     H2 1872   7.520   0.817   2.401
  544WAT      O 1873   2.637   3.106   0.222
  544WAT     H1 1874   2.541   3.111   0.194
  544WAT     H2 1875   2.692   3.161   0.159
  545WAT      O 1876   5.227   5.141   6.234
  545WAT     H1 1877   5.298   5.172   6.170
  545WAT     H2 1878   5.264   5.067   6.290
  546WAT      O 1879   6.671   5.448   3.670
  546WAT     H1 1880   6.649   5.536   3.628
  546WAT     H2 1881   6.689   5.380   3.598
  547WAT      O 1882   5.663   6.854   5.340
  547WAT     H1 1883   5.565   6.864   5.323
  547WAT     H2 1884   5.706   6.809   5.261
  548WAT      O 1885   4.194   6.976   4.761
  548WAT     H1 1886   4.199   6.970   4.861
  548WAT     H2 1887   4.194   6.884   4.722
  549WAT      O 1888   2.255   5.805   4.979
  549WAT     H1 1889   2.342   5.850   4.995
  549WAT     H2 1890   2.221   5.766   5.065
  550WAT      O 1891   1.099   6.758   3.771
  550WAT     H1 1892   1.057   6.808   3.846
  550WAT     H2 1893   1.182   6.712   3.803
  551WAT      O 1894   2.653   1.876   0.818
  551WAT     H1 1895   2.610   1.965   0.805
  551WAT     H2 1896   2.613   1.811   0.753
  552WAT      O 1897   0.587   1.990   4.023
  552WAT     H1 1898   0.628   1.912   3.976
  552WAT     H2 1899   0.585   2.069   3.961
  553WAT      O 1900   0.081   8.076   8.585
  553WAT     H1 1901   0.173   8.115   8.578
  553WAT     H2 1902   0.081   8.002   8.652
  554WAT      O 1903   7.241   6.851   3.200
  554WAT     H1 1904   7.306   6.801   3.257
  554WAT     H2 1905   7.213   6.794   3.123
  555WAT      O 1906   9.733   7.603   0.926
  555WAT     H1 1907   9.715   7.533   0.856
  555WAT     H2 1908   9.656   7.609   0.988
  556WAT      O 1909   4.265   6.426   3.347
  556WAT     H1 1910   4.203   6.486   3.398
  556WAT     H2 1911   4.245   6.331   3.369
  557WAT      O 1912   8.169   6.654   1.476
  557WAT     H1 1913   8.189   6.746   1.443
  557WAT     H2 1914   8.073   6.632   1.457
  558WAT      O 1915   3.320   8.648   4.551
  558WAT     H1 1916   3.354   8.591   4.476
  558WAT     H2 1917   3.391   8.658   4.620
  559WAT      O 1918   4.711   1.771   1.159
  559WAT     H1 1919   4.781   1.795   1.227
  559WAT     H2 1920   4.752   1.771   1.068
  560WAT      O 1921   1.167   3.708   8.286
  560WAT     H1 1922   1.071   3.704   8.312
  560WAT     H2 1923   1.218   3.760   8.355
  561WAT      O 1924   6.602   8.064   1.278
  561WAT     H1 1925   6.648   7.995   1.334
  561WAT     H2 1926   6.665   8.140   1.261
  562WAT      O 1927   6.720   6.379   2.632
  562WAT     H1 1928   6.741   6.475   2.650
  562WAT     H2 1929   6.799   6.336   2.587
  563WAT      O 1930   4.812   4.167   8.766
  563WAT     H1 1931   4.728   4.115   8.750
  563WAT     H2 1932   4.880   4.108   8.811
  564WAT      O 1933   7.660   4.154   0.649
  564WAT     H1 1934   7.636   4.105   0.733
  564WAT     H2 1935   7.693   4.088   0.581
  565WAT      O 1936   8.755   1.028   4.080
  565WAT     H1 1937   8.800   0.995   3.997
  565WAT     H2 1938   8.707   1.113   4.060
  566WAT      O 1939   0.501   6.853   9.712
  566WAT     H1 1940   0.566   6.788   9.752
  566WAT     H2 1941   0.475   6.921   9.780
  567WAT      O 1942   5.925   4.321   9.723
  567WAT     H1 1943   5.848   4.378   9.752
  567WAT     H2 1944   5.962   4.357   9.636
  568WAT      O 1945   7.556   2.415   2.373
  568WAT     H1 1946   7.503   2.500   2.365
  568WAT     H2 1947   7.560   2.387   2.469
  569WAT      O 1948   2.519   7.884   6.345
  569WAT     H1 1949   2.616   7.881   6.321
  569WAT     H2 1950   2.498   7.809   6.408
  570WAT      O 1951   0.983   9.833   3.808
  570WAT     H1 1952   0.975   9.740   3.772
  570WAT     H2 1953   0.969   9.833   3.907
  571WAT      O 1954   4.872   2.471   6.008
  571WAT     H1 1955   4.915   2.412   5.939
  571WAT     H2 1956   4.943   2.513   6.065
  572WAT      O 1957   0.891   9.278   6.541
  572WAT     H1 1958   0.881   9.312   6.447
  572WAT     H2 1959   0.847   9.342   6.604
  573WAT      O 1960   1.821   4.787   6.937
  573WAT     H1 1961   1.818   4.770   7.035
  573WAT     H2 1962   1.743   4.845   6.911
  574WAT      O 1963   5.677   6.022   8.208
  574WAT     H1 1964   5.661   5.933   8.250
  574WAT     H2 1965   5.594   6.053   8.161
  575WAT      O 1966   2.341   2.839   7.679
  575WAT     H1 1967   2.258   2.861   7.627
  575WAT     H2 1968   2.415   2.900   7.650
  576WAT      O 1969   3.594   8.076   2.816
  576WAT     H1 1970   3.556   8.114   2.900
  576WAT     H2 1971   3.644   7.992   2.837
  577WAT      O 1972   5.984   5.803   7.220
  577WAT     H1 1973   6.005   5.722   7.276
  577WAT     H2 1974   6.007   5.885   7.271
  578WAT      O 1975   0.851   6.761   4.409
  578WAT     H1 1976   0.949   6.763   4.388
  578WAT     H2 1977   0.800   6.807   4.336
  579WAT      O 1978   2.570   0.545   8.162
  579WAT     H1 1979   2.489   0.555   8.220
  579WAT     H2 1980   2.594   0.634   8.124
  580WAT      O 1981   2.242   8.568   1.852
  580WAT     H1 1982   2.171   8.513   1.809
  580WAT     H2 1983   2.223   8.665   1.837
  581WAT      O 1984   0.425   7.965   2.154
  581WAT     H1 1985   0.428   7.980   2.055
  581WAT     H2 1986   0.330   7.975   2.186
  582WAT      O 1987   7.714   0.496   9.380
  582WAT     H1 1988   7.717   0.596   9.374
  582WAT     H2 1989   7.701   0.457   9.289
  583WAT      O 1990   5.965   8.308   8.563
  583WAT     H1 1991   5.911   8.247   8.620
  583WAT     H2 1992   5.938   8.297   8.467
  584WAT      O 1993   7.526   8.294   7.455
  584WAT     H1 1994   7.503   8.333   7.544
  584WAT     H2 1995   7.610   8.335   7.421
  585WAT      O 1996   3.653   9.067   1.427
  585WAT     H1 1997   3.610   9.027   1.347
  585WAT     H2 1998   3.674   9.163   1.410
  586WAT      O 1999   1.876   3.689   5.104
  586WAT     H1 2000   1.875   3.646   5.194
  586WAT     H2 2001   1.796   3.748   5.094
  587WAT      O 2002   8.721   8.138   7.543
  587WAT     H1 2003   8.807   8.148   7.494
  587WAT     H2 2004   8.645   8.160   7.481
  588WAT      O 2005   4.468   6.685   3.608
  588WAT     H1 2006   4.481   6.705   3.510
  588WAT     H2 2007   4.548   6.717   3.659
  589WAT      O 2008   5.461   8.241   7.187
  589WAT     H1 2009   5.548   8.255   7.236
  589WAT     H2 2010   5.456   8.305   7.110
  590WAT      O 2011   5.759   8.232   9.717
  590WAT     H1 2012   5.788   8.196   9.806
  590WAT     H2 2013   5.793   8.325   9.706
  591WAT      O 2014   6.443   9.143   5.601
  591WAT     H1 2015   6.518   9.132   5.666
  591WAT     H2 2016   6.368   9.192   5.646
  592WAT      O 2017   0.941   6.392   1.123
  592WAT     H1 2018   0.926   6.485   1.091
  592WAT     H2 2019   1.039   6.378   1.141
  593WAT      O 2020   9.298   0.170   6.852
  593WAT     H1 2021   9.355   0.094   6.884
  593WAT     H2 2022   9.229   0.190   6.921
  594WAT      O 2023   3.349   3.516   9.149
  594WAT     H1 2024   3.437   3.497   9.104
  594WAT     H2 2025   3.276   3.510   9.082
  595WAT      O 2026   0.396   2.779   5.269
  595WAT     H1 2027   0.476   2.838   5.255
  595WAT     H2 2028   0.381   2.725   5.186
  596WAT      O 2029   0.756   8.974   4.832
  596WAT     H1 2030   0.855   8.978   4.815
  596WAT     H2 2031   0.738   8.920   4.914
  597WAT      O 2032   8.732   0.379   3.933
  597WAT     H1 2033   8.662   0.356   4.000
  597WAT     H2 2034   8.788   0.299   3.914
  598WAT      O 2035   9.561   7.729   6.908
  598WAT     H1 2036   9.649   7.696   6.874
  598WAT     H2 2037   9.537   7.814   6.861
  599WAT      O 2038   4.197   5.271   9.396
  599WAT     H1 2039   4.154   5.332   9.463
  599WAT     H2 2040   4.277   5.227   9.437
  600WAT      O 2041   9.311   6.631   9.360
  600WAT     H1 2042   9.286   6.701   9.293
  600WAT     H2 2043   9.393   6.583   9.329
  601WAT      O 2044   7.565   0.013   4.793
  601WAT     H1 2045   7.541   0.052   4.882
  601WAT     H2 2046   7.654  -0.032   4.799
  602WAT      O 2047   5.493   1.181   0.444
  602WAT     H1 2048   5.585   1.201   0.476
  602WAT     H2 2049   5.498   1.130   0.358
  603WAT      O 2050   3.033   6.480   5.052
  603WAT     H1 2051   2.984   6.425   5.120
  603WAT     H2 2052   2.983   6.478   4.966
  604WAT      O 2053   3.756   5.613   1.359
  604WAT     H1 2054   3.734   5.709   1.338
  604WAT     H2 2055   3.854   5.598   1.347
  605WAT      O 2056   3.005   3.753   9.452
  605WAT     H1 2057   3.089   3.699   9.441
  605WAT     H2 2058   3.021   3.826   9.518
  606WAT      O 2059   1.800   4.507   0.196
  606WAT     H1 2060   1.799   4.408   0.210
  606WAT     H2 2061   1.711   4.537   0.164
  607WAT      O 2062   7.779   8.489   0.179
  607WAT     H1 2063   7.740   8.576   0.149
  607WAT     H2 2064   7.713   8.441   0.237
  608WAT      O 2065   7.147   1.765   7.965
  608WAT     H1 2066   7.245   1.744   7.968
  608WAT     H2 2067   7.103   1.713   7.892
  609WAT      O 2068   0.298   5.908   6.663
  609WAT     H1 2069   0.246   5.925   6.579
  609WAT     H2 2070   0.376   5.848   6.642
  610WAT      O 2071   2.912   5.155   0.348
  610WAT     H1 2072   2.962   5.168   0.434
  610WAT     H2 2073   2.965   5.095   0.288
  611WAT      O 2074   7.329   3.296   1.923
  611WAT     H1 2075   7.265   3.269   1.851
  611WAT     H2 2076   7.292   3.271   2.012
  612WAT      O 2077   5.287   2.549   7.657
  612WAT     H1 2078   5.359   2.616   7.637
  612WAT     H2 2079   5.245   2.570   7.745
  613WAT      O 2080   6.728   2.213   6.775
  613WAT     H1 2081   6.712   2.118   6.800
  613WAT     H2 2082   6.815   2.222   6.727
  614WAT      O 2083   3.356   0.062   3.131
  614WAT     H1 2084   3.262   0.067   3.162
  614WAT     H2 2085   3.359   0.061   3.031
  615WAT      O 2086   8.509   5.682   9.321
  615WAT     H1 2087   8.588   5.692   9.382
  615WAT     H2 2088   8.519   5.745   9.244
  616WAT      O 2089   5.894   2.683   3.756
  616WAT     H1 2090   5.817   2.643   3.707
  616WAT     H2 2091   5.861   2.726   3.840
  617WAT      O 2092   5.367   6.651   3.797
  617WAT     H1 2093   5.292   6.686   3.854
  617WAT     H2 2094   5.330   6.622   3.708
  618WAT      O 2095   4.057   8.539   6.629
  618WAT     H1 2096   4.002   8.618   6.605
  618WAT     H2 2097   4.071   8.482   6.549
  619WAT      O 2098   2.209   8.028   6.070
  619WAT     H1 2099   2.113   8.003   6.080
  619WAT     H2 2100   2.262   7.948   6.041
  620WAT      O 2101   8.645   3.868   2.747
  620WAT     H1 2102   8.742   3.887   2.763
  620WAT     H2 2103   8.608   3.815   2.824
  621WAT      O 2104   2.774   4.807   8.444
  621WAT     H1 2105   2.794   4.891   8.393
  621WAT     H2 2106   2.733   4.831   8.532
  622WAT      O 2107   4.287   2.097   8.590
  622WAT     H1 2108   4.229   2.172   8.623
  622WAT     H2 2109   4.273   2.086   8.491
  623WAT      O 2110   7.163   5.381   0.377
  623WAT     H1 2111   7.088   5.422   0.429
  623WAT     H2 2112   7.143   5.388   0.280
  624WAT      O 2113   7.012   8.482   5.848
  624WAT     H1 2114   6.944   8.415   5.818
  624WAT     H2 2115   7.070   8.440   5.918
  625WAT      O 2116   0.028   4.123   8.752
  625WAT     H1 2117   0.055   4.035   8.792
  625WAT     H2 2118  -0.035   4.107   8.677
  626WAT      O 2119   1.428   3.512   2.093
  626WAT     H1 2120   1.487   3.437   2.120
  626WAT     H2 2121   1.436   3.587   2.160
  627WAT      O 2122   6.083   3.979   3.594
  627WAT     H1 2123   6.130   4.065   3.614
  627WAT     H2 2124   6.151   3.907   3.575
  628WAT      O 2125   5.062   8.198   0.023
  628WAT     H1 2126   5.077   8.283   0.074
  628WAT     H2 2127   5.089   8.212  -0.072
  629WAT      O 2128   4.854   5.712   0.199
  629WAT     H1 2129   4.942   5.760   0.208
  629WAT     H2 2130   4.859   5.626   0.249
  630WAT      O 2131   4.415   0.191   2.406
  630WAT     H1 2132   4.505   0.203   2.448
  630WAT     H2 2133   4.345   0.197   2.476
  631WAT      O 2134   7.954   3.435   8.912
  631WAT     H1 2135   7.965   3.483   8.999
  631WAT     H2 2136   7.893   3.357   8.924
  632WAT      O 2137   7.915   1.831   0.261
  632WAT     H1 2138   7.869   1.751   0.221
  632WAT     H2 2139   7.951   1.806   0.351
  633WAT      O 2140   9.303   6.863   9.529
  633WAT     H1 2141   9.323   6.785   9.469
  633WAT     H2 2142   9.205   6.882   9.528
  634WAT      O 2143   8.749   4.326   3.097
  634WAT     H1 2144   8.768   4.228   3.099
  634WAT     H2 2145   8.653   4.343   3.119
  635WAT      O 2146   3.024   9.636   6.431
  635WAT     H1 2147   2.939   9.663   6.387
  635WAT     H2 2148   3.010   9.551   6.482
  636WAT      O 2149   5.106   5.452   8.060
  636WAT     H1 2150   5.138   5.357   8.058
  636WAT     H2 2151   5.041   5.464   8.135
  637WAT      O 2152   4.320   0.761   5.971
  637WAT     H1 2153   4.373   0.730   5.892
  637WAT     H2 2154   4.327   0.860   5.980
  638WAT      O 2155   4.041   1.285   4.519
  638WAT     H1 2156   4.122   1.237   4.487
  638WAT     H2 2157   3.959   1.236   4.489
  639WAT      O 2158   0.606   3.796   6.029
  639WAT     H1 2159   0.576   3.823   5.938
  639WAT     H2 2160   0.655   3.709   6.023
  640WAT      O 2161   1.575   8.201   4.367
  640WAT     H1 2162   1.603   8.112   4.330
  640WAT     H2 2163   1.487   8.192   4.414
  641WAT      O 2164   2.264   1.924   8.389
  641WAT     H1 2165   2.351   1.946   8.433
  641WAT     H2 2166   2.277   1.917   8.290
  642WAT      O 2167   9.713   6.908   4.847
  642WAT     H1 2168   9.768   6.884   4.927
  642WAT     H2 2169   9.695   7.007   4.848
  643WAT      O 2170   4.721   0.705   2.994
  643WAT     H1 2171   4.735   0.607   3.007
  643WAT     H2 2172   4.637   0.720   2.942
  644WAT      O 2173   7.302   1.159   1.567
  644WAT     H1 2174   7.289   1.090   1.496
  644WAT     H2 2175   7.372   1.128   1.631
  645WAT      O 2176   8.785   3.685   8.245
  645WAT     H1 2177   8.851   3.697   8.319
  645WAT     H2 2178   8.824   3.626   8.174
  646WAT      O 2179   4.703   8.336   5.997
  646WAT     H1 2180   4.604   8.332   5.990
  646WAT     H2 2181   4.744   8.284   5.921
  647WAT      O 2182   3.498   7.569   9.370
  647WAT     H1 2183   3.497   7.477   9.331
  647WAT     H2 2184   3.529   7.634   9.301
  648WAT      O 2185   2.136   8.814   4.395
  648WAT     H1 2186   2.071   8.854   4.460
  648WAT     H2 2187   2.158   8.881   4.325
  649WAT      O 2188   3.550   7.196   0.358
  649WAT     H1 2189   3.459   7.190   0.399
  649WAT     H2 2190   3.564   7.118   0.298
  650WAT      O 2191   5.488   4.828   3.506
  650WAT     H1 2192   5.568   4.859   3.556
  650WAT     H2 2193   5.405   4.854   3.555
  651WAT      O 2194   4.507   2.271   0.467
  651WAT     H1 2195   4.532   2.366   0.451
  651WAT     H2 2196   4.410   2.266   0.490
  652WAT      O 2197   5.728   4.721   8.443
  652WAT     H1 2198   5.657   4.685   8.383
  652WAT     H2 2199   5.759   4.650   8.506
  653WAT      O 2200   8.115   9.054   1.876
  653WAT     H1 2201   8.100   8.973   1.820
  653WAT     H2 2202   8.170   9.030   1.956
  654WAT      O 2203   2.977   6.273   3.535
  654WAT     H1 2204   2.951   6.349   3.594
  654WAT     H2 2205   3.005   6.195   3.592
  655WAT      O 2206   0.614   0.030   0.120
  655WAT     H1 2207   0.642  -0.055   0.165
  655WAT     H2 2208   0.611   0.104   0.188
  656WAT      O 2209   1.341   4.715   9.576
  656WAT     H1 2210   1.415   4.783   9.575
  656WAT     H2 2211   1.274   4.737   9.505
  657WAT      O 2212   9.716   0.852   7.290
  657WAT     H1 2213   9.732   0.883   7.196
  657WAT     H2 2214   9.774   0.903   7.352
  658WAT      O 2215   2.671   5.324   8.245
  658WAT     H1 2216   2.635   5.308   8.337
  658WAT     H2 2217   2.766   5.294   8.241
  659WAT      O 2218   4.637   1.936   0.348
  659WAT     H1 2219   4.596   1.885   0.272
  659WAT     H2 2220   4.578   1.927   0.429
  660WAT      O 2221   3.719   0.592   1.834
  660WAT     H1 2222   3.788   0.658   1.864
  660WAT     H2 2223   3.628   0.627   1.855
  661WAT      O 2224   3.477   0.376   6.663
  661WAT     H1 2225   3.477   0.466   6.619
  661WAT     H2 2226   3.559   0.326   6.636
  662WAT      O 2227   1.837   2.212   3.392
  662WAT     H1 2228   1.739   2.223   3.382
  662WAT     H2 2229   1.861   2.212   3.490
  663WAT      O 2230   2.621   4.189   8.372
  663WAT     H1 2231   2.570   4.267   8.410
  663WAT     H2 2232   2.705   4.222   8.329
  664WAT      O 2233   3.946   7.389   7.150
  664WAT     H1 2234   4.018   7.448   7.112
  664WAT     H2 2235   3.890   7.443   7.214
  665WAT      O 2236   0.793   5.355   0.454
  665WAT     H1 2237   0.723   5.426   0.446
  665WAT     H2 2238   0.864   5.386   0.518
  666WAT      O 2239   0.310   2.612   5.043
  666WAT     H1 2240   0.234   2.669   5.075
  666WAT     H2 2241   0.283   2.516   5.043
  667WAT      O 2242   3.761   1.240   4.976
  667WAT     H1 2243   3.848   1.209   5.013
  667WAT     H2 2244   3.701   1.161   4.960
  668WAT      O 2245   8.126   5.933   6.859
  668WAT     H1 2246   8.172   5.861   6.912
  668WAT     H2 2247   8.071   5.890   6.787
  669WAT      O 2248   3.333   4.117   9.058
  669WAT     H1 2249   3.305   4.205   9.095
  669WAT     H2 2250   3.349   4.052   9.132
  670WAT      O 2251   1.917   8.121   4.600
  670WAT     H1 2252   1.975   8.165   4.531
  670WAT     H2 2253   1.895   8.028   4.572
  671WAT      O 2254   5.624   0.308   5.879
  671WAT     H1 2255   5.627   0.362   5.794
  671WAT     H2 2256   5.708   0.253   5.885
  672WAT      O 2257   4.513   6.527   7.537
  672WAT     H1 2258   4.466   6.535   7.449
  672WAT     H2 2259   4.481   6.600   7.598
  673WAT      O 2260   7.937   3.238   2.346
  673WAT     H1 2261   7.874   3.176   2.393
  673WAT     H2 2262   7.900   3.262   2.257
  674WAT      O 2263   1.466   2.376   1.728
  674WAT     H1 2264   1.376   2.389   1.770
  674WAT     H2 2265   1.520   2.460   1.739
  675WAT      O 2266   7.085   9.230   2.503
  675WAT     H1 2267   7.136   9.157   2.548
  675WAT     H2 2268   7.122   9.244   2.411
  676WAT      O 2269   9.584   3.271   3.538
  676WAT     H1 2270   9.516   3.279   3.465
  676WAT     H2 2271   9.548   3.212   3.611
  677WAT      O 2272   0.350   7.389   1.288
  677WAT     H1 2273   0.305   7.397   1.377
  677WAT     H2 2274   0.397   7.475   1.267
  678WAT      O 2275   3.883   3.586   1.895
  678WAT     H1 2276   3.858   3.558   1.987
  678WAT     H2 2277   3.951   3.659   1.900
  679WAT      O 2278   7.049   1.035   5.186
  679WAT     H1 2279   6.985   1.076   5.121
  679WAT     H2 2280   7.114   0.977   5.136
  680WAT      O 2281   7.452   9.259   9.868
  680WAT     H1 2282   7.547   9.248   9.898
  680WAT     H2 2283   7.448   9.319   9.788
  681WAT      O 2284   8.656   6.911   8.835
  681WAT     H1 2285   8.574   6.865   8.801
  681WAT     H2 2286   8.730   6.845   8.844
  682WAT      O 2287   6.314   1.875   8.750
  682WAT     H1 2288   6.346   1.858   8.844
  682WAT     H2 2289   6.324   1.791   8.696
  683WAT      O 2290   1.528   4.484   7.456
  683WAT     H1 2291   1.530   4.429   7.373
  683WAT     H2 2292   1.616   4.528   7.470
  684WAT      O 2293   9.661   3.788   2.726
  684WAT     H1 2294   9.712   3.739   2.798
  684WAT     H2 2295   9.696   3.881   2.718
  685WAT      O 2296   2.692   6.110   5.308
  685WAT     H1 2297   2.767   6.176   5.310
  685WAT     H2 2298   2.727   6.021   5.279
  686WAT      O 2299   7.609   8.021   8.605
  686WAT     H1 2300   7.562   8.046   8.690
  686WAT     H2 2301   7.540   7.999   8.535
  687WAT      O 2302   3.951   6.590   9.365
  687WAT     H1 2303   3.886   6.609   9.292
  687WAT     H2 2304   3.909   6.531   9.434
  688WAT      O 2305   5.763   6.306   4.008
  688WAT     H1 2306   5.668   6.293   3.982
  688WAT     H2 2307   5.813   6.219   3.999
  689WAT      O 2308   6.415   6.066   8.927
  689WAT     H1 2309   6.513   6.069   8.909
  689WAT     H2 2310   6.399   6.040   9.023
  690WAT      O 2311   5.585   7.605   5.945
  690WAT     H1 2312   5.675   7.648   5.951
  690WAT     H2 2313   5.537   7.614   6.032
  691WAT      O 2314   3.086   9.493   6.955
  691WAT     H1 2315   2.997   9.457   6.984
  691WAT     H2 2316   3.137   9.422   6.907
  692WAT      O 2317   6.237   2.922   4.896
  692WAT     H1 2318   6.241   2.823   4.880
  692WAT     H2 2319   6.144   2.954   4.879
  693WAT      O 2320   3.781   5.119   5.895
  693WAT     H1 2321   3.786   5.161   5.805
  693WAT     H2 2322   3.797   5.021   5.887
  694WAT      O 2323   9.880   5.745   2.109
  694WAT     H1 2324   9.817   5.819   2.132
  694WAT     H2 2325   9.828   5.661   2.093
  695WAT      O 2326   9.103   3.051   8.686
  695WAT     H1 2327   9.190   3.081   8.647
  695WAT     H2 2328   9.028   3.092   8.634
  696WAT      O 2329   0.630   8.315   3.209
  696WAT     H1 2330   0.721   8.275   3.201
  696WAT     H2 2331   0.631   8.409   3.175
  697WAT      O 2332   7.522   0.027   9.819
  697WAT     H1 2333   7.549   0.121   9.838
  697WAT     H2 2334   7.422   0.019   9.827
  698WAT      O 2335   5.440   7.014   4.469
  698WAT     H1 2336   5.443   7.079   4.545
  698WAT     H2 2337   5.448   6.921   4.505
  699WAT      O 2338   1.795   2.527   0.404
  699WAT     H1 2339   1.843   2.576   0.332
  699WAT     H2 2340   1.716   2.479   0.365
  700WAT      O 2341   0.646   5.908   4.783
  700WAT     H1 2342   0.599   5.969   4.846
  700WAT     H2 2343   0.580   5.865   4.721
  701WAT      O 2344   2.641   4.323   4.435
  701WAT     H1 2345   2.590   4.335   4.520
  701WAT     H2 2346   2.594   4.257   4.377
  702WAT      O 2347   8.282   4.564   1.799
  702WAT     H1 2348   8.338   4.498   1.750
  702WAT     H2 2349   8.331   4.651   1.806
  703WAT      O 2350   4.094   3.325   2.421
  703WAT     H1 2351   4.164   3.261   2.389
  703WAT     H2 2352   4.004   3.282   2.414
  704WAT      O 2353   6.984   7.584   4.612
  704WAT     H1 2354   6.888   7.582   4.641
  704WAT     H2 2355   7.024   7.493   4.625
  705WAT      O 2356   6.146   4.785   3.850
  705WAT     H1 2357   6.199   4.764   3.767
  705WAT     H2 2358   6.108   4.877   3.843
  706WAT      O 2359   6.623   6.566   1.834
  706WAT     H1 2360   6.689   6.497   1.804
  706WAT     H2 2361   6.668   6.632   1.895
  707WAT      O 2362   6.234   3.975   2.441
  707WAT     H1 2363   6.198   3.958   2.533
  707WAT     H2 2364   6.275   3.891   2.405
  708WAT      O 2365   2.787   8.684   0.920
  708WAT     H1 2366   2.862   8.687   0.854
  708WAT     H2 2367   2.707   8.732   0.884
  709WAT      O 2368   5.003   4.167   5.449
  709WAT     H1 2369   5.044   4.077   5.461
  709WAT     H2 2370   5.043   4.211   5.368
  710WAT      O 2371   7.428   7.348   5.126
  710WAT     H1 2372   7.385   7.394   5.048
  710WAT     H2 2373   7.358   7.319   5.191
  711WAT      O 2374   7.484   1.900   3.617
  711WAT     H1 2375   7.398   1.927   3.659
  711WAT     H2 2376   7.544   1.861   3.687
  712WAT      O 2377   8.347   0.687   8.422
  712WAT     H1 2378   8.408   0.645   8.355
  712WAT     H2 2379   8.256   0.647   8.414
  713WAT      O 2380   5.936   3.471   2.161
  713WAT     H1 2381   5.912   3.521   2.078
  713WAT     H2 2382   5.917   3.374   2.148
  714WAT      O 2383   3.971   4.885   1.450
  714WAT     H1 2384   3.874   4.859   1.453
  714WAT     H2 2385   3.985   4.965   1.508
  715WAT      O 2386   9.213   3.990   0.927
  715WAT     H1 2387   9.142   3.924   0.901
  715WAT     H2 2388   9.292   3.942   0.963
  716WAT      O 2389   1.984   3.868   0.369
  716WAT     H1 2390   1.903   3.839   0.318
  716WAT     H2 2391   2.001   3.803   0.443
  717WAT      O 2392   5.512   6.635   7.549
  717WAT     H1 2393   5.478   6.585   7.470
  717WAT     H2 2394   5.496   6.581   7.632
  718WAT      O 2395   1.019   6.979   8.543
  718WAT     H1 2396   0.974   7.067   8.562
  718WAT     H2 2397   1.094   6.966   8.607
  719WAT      O 2398   6.830   0.340   8.066
  719WAT     H1 2399   6.875   0.280   8.000
  719WAT     H2 2400   6.742   0.370   8.029
  720WAT      O 2401   1.330   6.196   1.959
  720WAT     H1 2402   1.412   6.250   1.939
  720WAT     H2 2403   1.346   6.101   1.931
  721WAT      O 2404   3.048   7.695   5.616
  721WAT     H1 2405   3.129   7.751   5.630
  721WAT     H2 2406   2.973   7.731   5.671
  722WAT      O 2407   5.637   6.733   9.073
  722WAT     H1 2408   5.546   6.697   9.055
  722WAT     H2 2409   5.633   6.833   9.079
  723WAT      O 2410   1.280   4.960   7.388
  723WAT     H1 2411   1.317   4.868   7.394
  723WAT     H2 2412   1.201   4.968   7.450
  724WAT      O 2413   7.467   5.009   0.557
  724WAT     H1 2414   7.532   4.947   0.601
  724WAT     H2 2415   7.415   5.058   0.627
  725WAT      O 2416   9.151   5.665   9.835
  725WAT     H1 2417   9.212   5.737   9.800
  725WAT     H2 2418   9.206   5.592   9.876
  726WAT      O 2419   5.462   1.040   2.596
  726WAT     H1 2420   5.497   1.128   2.626
  726WAT     H2 2421   5.432   1.046   2.501
  727WAT      O 2422   2.508   7.293   1.222
  727WAT     H1 2423   2.475   7.255   1.309
  727WAT     H2 2424   2.431   7.314   1.163
  728WAT      O 2425   4.737   8.271   6.762
  728WAT     H1 2426   4.774   8.220   6.684
  728WAT     H2 2427   4.800   8.345   6.787
  729WAT      O 2428   1.440   5.849   4.439
  729WAT     H1 2429   1.459   5.790   4.361
  729WAT     H2 2430   1.350   5.891   4.429
  730WAT      O 2431   5.516   3.564   0.849
  730WAT     H1 2432   5.505   3.480   0.901
  730WAT     H2 2433   5.611   3.595   0.855
  731WAT      O 2434   1.714   2.516   4.647
  731WAT     H1 2435   1.733   2.523   4.549
  731WAT     H2 2436   1.686   2.606   4.681
  732WAT      O 2437   8.306   6.365   9.035
  732WAT     H1 2438   8.243   6.288   9.040
  732WAT     H2 2439   8.276   6.437   9.097
  733WAT      O 2440   0.033   1.956   9.835
  733WAT     H1 2441   0.099   1.906   9.779
  733WAT     H2 2442  -0.059   1.924   9.813
  734WAT      O 2443   2.574   1.138   3.829
  734WAT     H1 2444   2.578   1.050   3.876
  734WAT     H2 2445   2.494   1.189   3.860
  735WAT      O 2446   8.485   6.585   6.157
  735WAT     H1 2447   8.573   6.615   6.120
  735WAT     H2 2448   8.499   6.545   6.248
  736WAT      O 2449   7.616   1.269   2.762
  736WAT     H1 2450   7.626   1.174   2.734
  736WAT     H2 2451   7.577   1.274   2.853
  737WAT      O 2452   4.875   0.287   1.888
  737WAT     H1 2453   4.898   0.303   1.984
  737WAT     H2 2454   4.829   0.199   1.878
  738WAT      O 2455   2.321   6.236   1.262
  738WAT     H1 2456   2.273   6.323   1.248
  738WAT     H2 2457   2.378   6.244   1.344
  739WAT      O 2458   5.183   9.478   5.603
  739WAT     H1 2459   5.243   9.490   5.682
  739WAT     H2 2460   5.093   9.446   5.633
  740WAT      O 2461   7.077   1.438   4.742
  740WAT     H1 2462   7.142   1.369   4.776
  740WAT     H2 2463   7.038   1.488   4.819
  741WAT      O 2464   1.552   7.669   8.124
  741WAT     H1 2465   1.510   7.627   8.043
  741WAT     H2 2466   1.641   7.706   8.099
  742WAT      O 2467   7.136   3.447   4.298
  742WAT     H1 2468   7.063   3.447   4.366
  742WAT     H2 2469   7.096   3.433   4.207
  743WAT      O 2470   2.085   8.347   7.949
  743WAT     H1 2471   2.057   8.400   8.029
  743WAT     H2 2472   2.161   8.393   7.903
  744WAT      O 2473   3.654   7.536   9.598
  744WAT     H1 2474   3.695   7.627   9.594
  744WAT     H2 2475   3.604   7.518   9.513
  745WAT      O 2476   9.112   8.278   5.900
  745WAT     H1 2477   9.137   8.374   5.887
  745WAT     H2 2478   9.119   8.230   5.813
  746WAT      O 2479   7.312   4.373   7.922
  746WAT     H1 2480   7.256   4.354   8.002
  746WAT     H2 2481   7.403   4.332   7.935
  747WAT      O 2482   9.162   5.817   0.969
  747WAT     H1 2483   9.121   5.902   1.002
  747WAT     H2 2484   9.257   5.812   0.999
  748WAT      O 2485   0.674   3.784   1.105
  748WAT     H1 2486   0.642   3.878   1.115
  748WAT     H2 2487   0.605   3.730   1.057
  749WAT      O 2488   2.061   0.486   5.485
  749WAT     H1 2489   2.003   0.566   5.472
  749WAT     H2 2490   2.060   0.460   5.582
  750WAT      O 2491   1.632   6.500   4.116
  750WAT     H1 2492   1.592   6.408   4.118
  750WAT     H2 2493   1.559   6.568   4.116
  751WAT      O 2494   4.574   4.913   8.576
  751WAT     H1 2495   4.624   4.998   8.591
  751WAT     H2 2496   4.480   4.933   8.548
  752WAT      O 2497   5.200   2.274   5.307
  752WAT     H1 2498   5.102   2.293   5.308
  752WAT     H2 2499   5.216   2.180   5.338
  753WAT      O 2500   3.031   9.127   0.337
  753WAT     H1 2501   3.087   9.088   0.264
  753WAT     H2 2502   2.937   9.139   0.304
  754WAT      O 2503   9.030   5.361   3.384
  754WAT     H1 2504   9.128   5.348   3.400
  754WAT     H2 2505   8.982   5.364   3.471
  755WAT      O 2506   5.031   7.116   0.385
  755WAT     H1 2507   5.041   7.055   0.307
  755WAT     H2 2508   4.993   7.066   0.462
  756WAT      O 2509   8.793   0.652   1.113
  756WAT     H1 2510   8.818   0.559   1.139
  756WAT     H2 2511   8.852   0.717   1.161
  757WAT      O 2512   2.957   8.088   0.486
  757WAT     H1 2513   2.865   8.088   0.446
  757WAT     H2 2514   3.014   8.155   0.439
  758WAT      O 2515   2.295   2.248   7.197
  758WAT     H1 2516   2.218   2.240   7.260
  758WAT     H2 2517   2.265   2.296   7.114
  759WAT      O 2518   1.801   1.998   9.118
  759WAT     H1 2519   1.772   2.028   9.027
  759WAT     H2 2520   1.781   1.901   9.130
  760WAT      O 2521   9.217   7.721   0.480
  760WAT     H1 2522   9.173   7.789   0.421
  760WAT     H2 2523   9.304   7.693   0.440
  761WAT      O 2524   9.727   3.930   0.909
  761WAT     H1 2525   9.806   3.911   0.850
  761WAT     H2 2526   9.730   4.026   0.938
  762WAT      O 2527   1.877   1.470   5.608
  762WAT     H1 2528   1.953   1.481   5.671
  762WAT     H2 2529   1.874   1.548   5.545
  763WAT      O 2530   3.951   9.609   3.016
  763WAT     H1 2531   3.874   9.572   2.965
  763WAT     H2 2532   3.939   9.589   3.113
  764WAT      O 2533   1.293   2.660   2.641
  764WAT     H1 2534   1.305   2.758   2.623
  764WAT     H2 2535   1.231   2.647   2.718
  765WAT      O 2536   4.690   9.803   5.266
  765WAT     H1 2537   4.714   9.711   5.235
  765WAT     H2 2538   4.594   9.822   5.244
  766WAT      O 2539   5.263   6.032   7.537
  766WAT     H1 2540   5.276   5.976   7.618
  766WAT     H2 2541   5.352   6.059   7.500
  767WAT      O 2542   5.224   9.550   4.332
  767WAT     H1 2543   5.311   9.583   4.368
  767WAT     H2 2544   5.221   9.567   4.233
  768WAT      O 2545   3.020   4.428   1.282
  768WAT     H1 2546   2.947   4.492   1.305
  768WAT     H2 2547   3.108   4.476   1.279
  769WAT      O 2548   0.631   5.862   9.297
  769WAT     H1 2549   0.705   5.922   9.327
  769WAT     H2 2550   0.635   5.851   9.198
  770WAT      O 2551   0.833   5.463   2.918
  770WAT     H1 2552   0.871   5.377   2.951
  770WAT     H2 2553   0.734   5.454   2.906
  771WAT      O 2554   8.900   2.637   8.336
  771WAT     H1 2555   8.880   2.666   8.430
  771WAT     H2 2556   8.816   2.636   8.283
  772WAT      O 2557   4.034   5.985   2.003
  772WAT     H1 2558   4.039   5.915   2.074
  772WAT     H2 2559   4.030   6.076   2.045
  773WAT      O 2560   4.039   7.735   3.004
  773WAT     H1 2561   4.135   7.718   3.028
  773WAT     H2 2562   3.981   7.665   3.046
  774WAT      O 2563   7.458   1.666   4.581
  774WAT     H1 2564   7.401   1.612   4.518
  774WAT     H2 2565   7.554   1.638   4.571
  775WAT      O 2566   3.598   2.791   3.092
  775WAT     H1 2567   3.546   2.872   3.064
  775WAT     H2 2568   3.545   2.740   3.160
  776WAT      O 2569   6.055   6.347   9.056
  776WAT     H1 2570   6.064   6.255   9.019
  776WAT     H2 2571   5.994   6.401   8.998
  777WAT      O 2572   0.962   3.545   4.935
  777WAT     H1 2573   1.033   3.481   4.906
  777WAT     H2 2574   0.965   3.627   4.878
  778WAT      O 2575   2.254   4.326   8.281
  778WAT     H1 2576   2.168   4.289   8.246
  778WAT     H2 2577   2.324   4.322   8.210
  779WAT      O 2578   8.585   4.885   3.724
  779WAT     H1 2579   8.684   4.880   3.737
  779WAT     H2 2580   8.549   4.967   3.769
  780WAT      O 2581   7.918   3.835   8.712
  780WAT     H1 2582   7.880   3.887   8.788
  780WAT     H2 2583   7.917   3.892   8.629
  781WAT      O 2584   2.708   0.125   1.881
  781WAT     H1 2585   2.628   0.067   1.869
  781WAT     H2 2586   2.744   0.151   1.791
  782WAT      O 2587   0.111   8.063   6.955
  782WAT     H1 2588   0.079   7.973   6.984
  782WAT     H2 2589   0.198   8.083   6.999
  783WAT      O 2590   6.791   3.211   4.376
  783WAT     H1 2591   6.749   3.141   4.318
  783WAT     H2 2592   6.741   3.218   4.462
  784WAT      O 2593   4.160   3.425   1.527
  784WAT     H1 2594   4.187   3.479   1.607
  784WAT     H2 2595   4.080   3.467   1.483
  785WAT      O 2596   5.628   3.455   0.290
  785WAT     H1 2597   5.588   3.511   0.217
  785WAT     H2 2598   5.710   3.409   0.255
  786WAT      O 2599   8.908   0.656   3.429
  786WAT     H1 2600   8.994   0.631   3.385
  786WAT     H2 2601   8.909   0.628   3.525
  787WAT      O 2602   1.323   9.517   6.932
  787WAT     H1 2603   1.340   9.601   6.984
  787WAT     H2 2604   1.231   9.519   6.894
  788WAT      O 2605   9.177   0.342   6.276
  788WAT     H1 2606   9.173   0.441   6.282
  788WAT     H2 2607   9.265   0.310   6.313
  789WAT      O 2608   9.496   8.922   4.036
  789WAT     H1 2609   9.455   8.977   3.963
  789WAT     H2 2610   9.435   8.922   4.116
  790WAT      O 2611   1.644   5.333   3.997
  790WAT     H1 2612   1.698   5.377   4.069
  790WAT     H2 2613   1.548   5.328   4.026
  791WAT      O 2614   1.772   3.413   1.470
  791WAT     H1 2615   1.862   3.455   1.456
  791WAT     H2 2616   1.702   3.485   1.477
  792WAT      O 2617   3.511   7.198   3.480
  792WAT     H1 2618   3.599   7.159   3.510
  792WAT     H2 2619   3.467   7.134   3.417
  793WAT      O 2620   2.711   6.962   3.651
  793WAT     H1 2621   2.766   7.010   3.583
  793WAT     H2 2622   2.616   6.991   3.644
  794WAT      O 2623   5.265   7.649   7.768
  794WAT     H1 2624   5.287   7.654   7.671
  794WAT     H2 2625   5.335   7.595   7.816
  795WAT      O 2626   5.664   2.489   3.632
  795WAT     H1 2627   5.592   2.442   3.683
  795WAT     H2 2628   5.753   2.448   3.654
  796WAT      O 2629   9.815   8.123   2.699
  796WAT     H1 2630   9.727   8.088   2.667
  796WAT     H2 2631   9.801   8.209   2.748
  797WAT      O 2632   0.938   3.497   4.638
  797WAT     H1 2633   0.867   3.567   4.632
  797WAT     H2 2634   0.909   3.425   4.702
  798WAT      O 2635   4.581   9.034   1.116
  798WAT     H1 2636   4.560   8.964   1.184
  798WAT     H2 2637   4.616   8.989   1.033
  799WAT      O 2638   1.382   7.865   1.087
  799WAT     H1 2639   1.407   7.832   0.996
  799WAT     H2 2640   1.282   7.860   1.097
  800WAT      O 2641   1.164   8.986   0.103
  800WAT     H1 2642   1.232   9.002   0.175
  800WAT     H2 2643   1.079   9.033   0.127
  801WAT      O 2644   4.187   9.315   5.363
  801WAT     H1 2645   4.234   9.307   5.275
  801WAT     H2 2646   4.255   9.317   5.436
  802WAT      O 2647   2.327   8.513   0.624
  802WAT     H1 2648   2.421   8.480   0.616
  802WAT     H2 2649   2.324   8.610   0.600
  803WAT      O 2650   0.455   3.481   7.491
  803WAT     H1 2651   0.380   3.547   7.498
  803WAT     H2 2652   0.542   3.529   7.498
  804WAT      O 2653   7.003   6.304   0.564
  804WAT     H1 2654   7.031   6.261   0.478
  804WAT     H2 2655   7.069   6.375   0.589
  805WAT      O 2656   2.532   5.014   5.214
  805WAT     H1 2657   2.601   4.986   5.146
  805WAT     H2 2658   2.462   4.943   5.221
  806WAT      O 2659   0.722   2.855   5.881
  806WAT     H1 2660   0.748   2.908   5.801
  806WAT     H2 2661   0.651   2.789   5.857
  807WAT      O 2662   7.618   7.916   2.726
  807WAT     H1 2663   7.697   7.925   2.786
  807WAT     H2 2664   7.636   7.965   2.640
  808WAT      O 2665   2.231   5.315   1.433
  808WAT     H1 2666   2.189   5.354   1.515
  808WAT     H2 2667   2.324   5.284   1.454
  809WAT      O 2668   5.663   3.307   0.519
  809WAT     H1 2669   5.729   3.241   0.484
  809WAT     H2 2670   5.610   3.344   0.443
  810WAT      O 2671   9.616   5.943   4.158
  810WAT     H1 2672   9.585   5.856   4.195
  810WAT     H2 2673   9.710   5.961   4.188
  811WAT      O 2674   3.101   9.303   3.486
  811WAT     H1 2675   3.054   9.223   3.523
  811WAT     H2 2676   3.075   9.315   3.390
  812WAT      O 2677   4.823   8.943   8.212
  812WAT     H1 2678   4.830   8.845   8.189
  812WAT     H2 2679   4.775   8.954   8.298
  813WAT      O 2680   6.797   0.416   0.468
  813WAT     H1 2681   6.731   0.435   0.396
  813WAT     H2 2682   6.874   0.480   0.461
  814WAT      O 2683   8.244   8.427   0.731
  814WAT     H1 2684   8.310   8.420   0.657
  814WAT     H2 2685   8.157   8.462   0.696
  815WAT      O 2686   8.457   6.275   0.583
  815WAT     H1 2687   8.380   6.331   0.552
  815WAT     H2 2688   8.476   6.205   0.515
  816WAT      O 2689   4.899   6.843   8.910
  816WAT     H1 2690   4.980   6.902   8.900
  816WAT     H2 2691   4.839   6.855   8.831
  817WAT      O 2692   4.786   0.959   3.017
  817WAT     H1 2693   4.885   0.968   3.028
  817WAT     H2 2694   4.760   0.862   3.021
  818WAT      O 2695   5.930   2.932   2.587
  818WAT     H1 2696   5.970   3.005   2.532
  818WAT     H2 2697   5.953   2.947   2.683
  819WAT      O 2698   2.392   8.375   4.446
  819WAT     H1 2699   2.298   8.373   4.411
  819WAT     H2 2700   2.393   8.339   4.539
  820WAT      O 2701   8.838   1.753   8.467
  820WAT     H1 2702   8.859   1.726   8.372
  820WAT     H2 2703   8.880   1.687   8.529
  821WAT      O 2704   7.752   6.412   0.103
  821WAT     H1 2705   7.673   6.355   0.079
  821WAT     H2 2706   7.817   6.414   0.027
  822WAT      O 2707   1.316   1.391   2.023
  822WAT     H1 2708   1.331   1.329   1.946
  822WAT     H2 2709   1.252   1.463   1.996
  823WAT      O 2710   7.549   6.369   5.220
  823WAT     H1 2711   7.489   6.441   5.185
  823WAT     H2 2712   7.496   6.287   5.240
  824WAT      O 2713   0.103   7.868   1.148
  824WAT     H1 2714   0.200   7.885   1.165
  824WAT     H2 2715   0.094   7.785   1.092
  825WAT      O 2716   3.998   8.161   6.838
  825WAT     H1 2717   4.040   8.096   6.775
  825WAT     H2 2718   3.944   8.228   6.786
  826WAT      O 2719   0.590   8.192   3.565
  826WAT     H1 2720   0.509   8.161   3.516
  826WAT     H2 2721   0.619   8.281   3.528
  827WAT      O 2722   3.833   6.693   3.863
  827WAT     H1 2723   3.851   6.710   3.960
  827WAT     H2 2724   3.748   6.737   3.837
  828WAT      O 2725   7.226   6.099   0.371
  828WAT     H1 2726   7.235   6.092   0.272
  828WAT     H2 2727   7.262   6.188   0.401
  829WAT      O 2728   8.607   5.512   4.044
  829WAT     H1 2729   8.619   5.427   3.994
  829WAT     H2 2730   8.643   5.501   4.137
  830WAT      O 2731   7.533   8.131   4.902
  830WAT     H1 2732   7.579   8.188   4.970
  830WAT     H2 2733   7.601   8.075   4.854
  831WAT      O 2734   9.729   3.149   8.494
  831WAT     H1 2735   9.763   3.119   8.584
  831WAT     H2 2736   9.763   3.242   8.475
  832WAT      O 2737   9.527   4.966   3.138
  832WAT     H1 2738   9.585   4.979   3.218
  832WAT     H2 2739   9.431   4.959   3.167
  833WAT      O 2740   9.122   2.112   5.577
  833WAT     H1 2741   9.153   2.050   5.505
  833WAT     H2 2742   9.156   2.080   5.665
  834WAT      O 2743   2.775   1.245   3.971
  834WAT     H1 2744   2.717   1.211   3.897
  834WAT     H2 2745   2.752   1.340   3.992
  835WAT      O 2746   9.647   4.054   4.333
  835WAT     H1 2747   9.548   4.056   4.323
  835WAT     H2 2748   9.671   4.008   4.419
  836WAT      O 2749   9.427   2.639   3.690
  836WAT     H1 2750   9.348   2.689   3.725
  836WAT     H2 2751   9.396   2.559   3.640
  837WAT      O 2752   2.075   9.076   1.578
  837WAT     H1 2753   2.169   9.099   1.555
  837WAT     H2 2754   2.013   9.145   1.541
  838WAT      O 2755   0.187   4.279   4.265
  838WAT     H1 2756   0.160   4.334   4.343
  838WAT     H2 2757   0.172   4.330   4.180
  839WAT      O 2758   5.921   9.418   4.234
  839WAT     H1 2759   5.980   9.413   4.314
  839WAT     H2 2760   5.831   9.381   4.256
  840WAT      O 2761   2.303   2.624   1.244
  840WAT     H1 2762   2.223   2.594   1.193
  840WAT     H2 2763   2.275   2.659   1.333
  841WAT      O 2764   8.670   6.792   8.130
  841WAT     H1 2765   8.581   6.807   8.174
  841WAT     H2 2766   8.743   6.820   8.192
  842WAT      O 2767   4.804   8.814   6.362
  842WAT     H1 2768   4.856   8.730   6.378
  842WAT     H2 2769   4.707   8.795   6.373
  843WAT      O 2770   9.860   0.593   8.960
  843WAT     H1 2771   9.915   0.601   9.044
  843WAT     H2 2772   9.832   0.498   8.947
  844WAT      O 2773   0.096   6.653   5.565
  844WAT     H1 2774   0.071   6.596   5.643
  844WAT     H2 2775   0.086   6.750   5.590
  845WAT      O 2776   6.166   5.902   0.930
  845WAT     H1 2777   6.117   5.987   0.948
  845WAT     H2 2778   6.116   5.825   0.970
  846WAT      O 2779   8.824   5.507   8.391
  846WAT     H1 2780   8.728   5.506   8.418
  846WAT     H2 2781   8.830   5.515   8.292
  847WAT      O 2782   3.338   3.851   4.289
  847WAT     H1 2783   3.250   3.803   4.287
  847WAT     H2 2784   3.330   3.934   4.343
  848WAT      O 2785   1.596   7.175   4.488
  848WAT     H1 2786   1.539   7.153   4.568
  848WAT     H2 2787   1.537   7.197   4.411
  849WAT      O 2788   5.949   8.770   3.150
  849WAT     H1 2789   5.875   8.734   3.208
  849WAT     H2 2790   5.984   8.854   3.190
  850WAT      O 2791   8.112   6.900   9.374
  850WAT     H1 2792   8.014   6.908   9.392
  850WAT     H2 2793   8.159   6.869   9.456
  851WAT      O 2794   6.538   4.306   5.963
  851WAT     H1 2795   6.637   4.295   5.959
  851WAT     H2 2796   6.515   4.402   5.982
  852WAT      O 2797   5.491   0.538   2.723
  852WAT     H1 2798   5.415   0.588   2.681
  852WAT     H2 2799   5.480   0.539   2.823
  853WAT      O 2800   3.009   6.845   1.254
  853WAT     H1 2801   2.911   6.835   1.272
  853WAT     H2 2802   3.041   6.930   1.296
  854WAT      O 2803   4.580   4.398   2.681
  854WAT     H1 2804   4.585   4.496   2.661
  854WAT     H2 2805   4.524   4.384   2.762
  855WAT      O 2806   0.853   1.767   7.120
  855WAT     H1 2807   0.871   1.853   7.073
  855WAT     H2 2808   0.940   1.719   7.136
  856WAT      O 2809   5.798   9.356   9.439
  856WAT     H1 2810   5.766   9.376   9.531
  856WAT     H2 2811   5.892   9.389   9.429
  857WAT      O 2812   5.477   2.090   0.383
  857WAT     H1 2813   5.510   2.043   0.465
  857WAT     H2 2814   5.439   2.023   0.320
  858WAT      O 2815   2.814   0.114   2.349
  858WAT     H1 2816   2.901   0.116   2.399
  858WAT     H2 2817   2.826   0.162   2.262
  859WAT      O 2818   3.441   5.441   7.712
  859WAT     H1 2819   3.408   5.347   7.720
  859WAT     H2 2820   3.458   5.478   7.804
  860WAT      O 2821   5.708   6.159   9.841
  860WAT     H1 2822   5.795   6.164   9.891
  860WAT     H2 2823   5.702   6.236   9.777
  861WAT      O 2824   9.598   0.179   7.259
  861WAT     H1 2825   9.570   0.247   7.326
  861WAT     H2 2826   9.636   0.099   7.306
  862WAT      O 2827   8.296   1.263   2.329
  862WAT     H1 2828   8.356   1.317   2.389
  862WAT     H2 2829   8.205   1.305   2.327
  863WAT      O 2830   5.136   8.456   1.126
  863WAT     H1 2831   5.151   8.359   1.143
  863WAT     H2 2832   5.076   8.493   1.197
  864WAT      O 2833   0.651   8.815   4.624
  864WAT     H1 2834   0.722   8.758   4.583
  864WAT     H2 2835   0.689   8.865   4.702
  865WAT      O 2836   9.718   1.772   2.579
  865WAT     H1 2837   9.674   1.805   2.663
  865WAT     H2 2838   9.817   1.785   2.586
  866WAT      O 2839   2.160   3.065   0.192
  866WAT     H1 2840   2.148   3.140   0.256
  866WAT     H2 2841   2.212   2.992   0.235
  867WAT      O 2842   8.107   1.673   0.441
  867WAT     H1 2843   8.157   1.587   0.443
  867WAT     H2 2844   8.169   1.748   0.417
  868WAT      O 2845   0.321   6.857   4.288
  868WAT     H1 2846   0.299   6.953   4.276
  868WAT     H2 2847   0.239   6.808   4.319
  869WAT      O 2848   2.725   7.980   5.367
  869WAT     H1 2849   2.679   8.061   5.332
  869WAT     H2 2850   2.822   8.000   5.382
  870WAT      O 2851   3.794   8.571   5.433
  870WAT     H1 2852   3.866   8.529   5.488
  870WAT     H2 2853   3.705   8.540   5.464
  871WAT      O 2854   2.624   7.268   3.735
  871WAT     H1 2855   2.681   7.292   3.813
  871WAT     H2 2856   2.674   7.289   3.650
  872WAT      O 2857   5.430   9.590   2.076
  872WAT     H1 2858   5.341   9.575   2.033
  872WAT     H2 2859   5.470   9.675   2.042
  873WAT      O 2860   7.595   2.763   8.070
  873WAT     H1 2861   7.684   2.720   8.060
  873WAT     H2 2862   7.529   2.696   8.103
  874WAT      O 2863   7.105   0.983   2.384
  874WAT     H1 2864   7.176   0.915   2.404
  874WAT     H2 2865   7.146   1.075   2.383
  875WAT      O 2866   2.492   9.324   4.653
  875WAT     H1 2867   2.562   9.332   4.725
  875WAT     H2 2868   2.415   9.385   4.675
  876WAT      O 2869   0.833   4.207   3.230
  876WAT     H1 2870   0.861   4.207   3.326
  876WAT     H2 2871   0.809   4.300   3.202
  877WAT      O 2872   5.300   2.388   4.403
  877WAT     H1 2873   5.324   2.391   4.500
  877WAT     H2 2874   5.217   2.334   4.391
  878WAT      O 2875   2.520   3.164   0.783
  878WAT     H1 2876   2.616   3.145   0.763
  878WAT     H2 2877   2.512   3.203   0.875
  879WAT      O 2878   1.484   0.817   8.629
  879WAT     H1 2879   1.390   0.837   8.656
  879WAT     H2 2880   1.490   0.815   8.529
  880WAT      O 2881   7.210   3.708   3.467
  880WAT     H1 2882   7.256   3.700   3.378
  880WAT     H2 2883   7.164   3.796   3.472
  881WAT      O 2884   0.195   1.713   7.289
  881WAT     H1 2885   0.172   1.793   7.234
  881WAT     H2 2886   0.139   1.635   7.260
  882WAT      O 2887   7.100   5.064   7.693
  882WAT     H1 2888   7.135   4.979   7.732
  882WAT     H2 2889   7.001   5.059   7.684
  883WAT      O 2890   5.517   6.859   7.396
  883WAT     H1 2891   5.514   6.790   7.468
  883WAT     H2 2892   5.572   6.826   7.320
  884WAT      O 2893   7.501   2.637   3.786
  884WAT     H1 2894   7.501   2.664   3.882
  884WAT     H2 2895   7.569   2.566   3.770
  885WAT      O 2896   3.688   9.456   7.769
  885WAT     H1 2897   3.597   9.454   7.726
  885WAT     H2 2898   3.691   9.527   7.839
  886WAT      O 2899   8.975   6.677   3.036
  886WAT     H1 2900   8.943   6.593   3.080
  886WAT     H2 2901   8.916   6.698   2.958
  887WAT      O 2902   6.890   5.660   5.118
  887WAT     H1 2903   6.931   5.637   5.207
  887WAT     H2 2904   6.961   5.692   5.056
  888WAT      O 2905   7.691   9.435   2.240
  888WAT     H1 2906   7.662   9.429   2.336
  888WAT     H2 2907   7.778   9.386   2.229
  889WAT      O 2908   8.346   0.460   2.030
  889WAT     H1 2909   8.353   0.380   2.089
  889WAT     H2 2910   8.315   0.539   2.083
  890WAT      O 2911   5.877   9.332   2.016
  890WAT     H1 2912   5.806   9.402   2.009
  890WAT     H2 2913   5.946   9.348   1.945
  891WAT      O 2914   6.060   0.485   7.869
  891WAT     H1 2915   5.978   0.455   7.918
  891WAT     H2 2916   6.125   0.409   7.864
  892WAT      O 2917   4.711   4.324   8.168
  892WAT     H1 2918   4.616   4.326   8.201
  892WAT     H2 2919   4.763   4.396   8.214
  893WAT      O 2920   2.542   1.965   6.596
  893WAT     H1 2921   2.499   1.967   6.506
  893WAT     H2 2922   2.579   2.055   6.618
  894WAT      O 2923   4.021   5.758   1.030
  894WAT     H1 2924   4.085   5.714   1.092
  894WAT     H2 2925   4.000   5.697   0.954
  895WAT      O 2926   3.877   2.346   8.070
  895WAT     H1 2927   3.799   2.362   8.130
  895WAT     H2 2928   3.844   2.319   7.980
  896WAT      O 2929   5.548   8.268   2.985
  896WAT     H1 2930   5.548   8.356   2.937
  896WAT     H2 2931   5.566   8.283   3.082
  897WAT      O 2932   1.121   6.496   7.977
  897WAT     H1 2933   1.060   6.421   7.950
  897WAT     H2 2934   1.104   6.575   7.918
  898WAT      O 2935   4.107   1.125   8.193
  898WAT     H1 2936   4.105   1.218   8.228
  898WAT     H2 2937   4.201   1.101   8.166
  899WAT      O 2938   8.636   9.735   1.499
  899WAT     H1 2939   8.667   9.650   1.541
  899WAT     H2 2940   8.545   9.721   1.459
  900WAT      O 2941   3.426   4.456   1.083
  900WAT     H1 2942   3.359   4.500   1.143
  900WAT     H2 2943   3.387   4.371   1.047
  901WAT      O 2944   0.388   7.572   8.434
  901WAT     H1 2945   0.388   7.560   8.533
  901WAT     H2 2946   0.296   7.558   8.398
  902WAT      O 2947   7.622   2.278   8.091
  902WAT     H1 2948   7.540   2.240   8.134
  902WAT     H2 2949   7.698   2.277   8.156
  903WAT      O 2950   9.017   0.073   9.574
  903WAT     H1 2951   8.979   0.009   9.506
  903WAT     H2 2952   9.043   0.158   9.528
  904WAT      O 2953   7.187   7.509   5.227
  904WAT     H1 2954   7.201   7.411   5.233
  904WAT     H2 2955   7.243   7.555   5.296
  905WAT      O 2956   4.256   7.809   0.400
  905WAT     H1 2957   4.335   7.780   0.345
  905WAT     H2 2958   4.270   7.902   0.433
  906WAT      O 2959   2.160   2.368   2.253
  906WAT     H1 2960   2.169   2.446   2.314
  906WAT     H2 2961   2.213   2.291   2.288
  907WAT      O 2962   8.587   3.559   0.008
  907WAT     H1 2963   8.574   3.473   0.057
  907WAT     H2 2964   8.660   3.549  -0.060
  908WAT      O 2965   6.254   1.472   1.539
  908WAT     H1 2966   6.216   1.470   1.632
  908WAT     H2 2967   6.335   1.413   1.535
  909WAT      O 2968   6.831   2.535   3.974
  909WAT     H1 2969   6.805   2.577   4.061
  909WAT     H2 2970   6.765   2.560   3.904
  910WAT      O 2971   2.619   7.781   8.124
  910WAT     H1 2972   2.626   7.688   8.089
  910WAT     H2 2973   2.700   7.833   8.096
  911WAT      O 2974   7.310   2.939   9.399
  911WAT     H1 2975   7.346   3.016   9.345
  911WAT     H2 2976   7.343   2.947   9.493
  912WAT      O 2977   6.274   0.600   1.261
  912WAT     H1 2978   6.256   0.663   1.336
  912WAT     H2 2979   6.346   0.636   1.202
  913WAT      O 2980   8.986   7.981   9.102
  913WAT     H1 2981   8.924   7.916   9.146
  913WAT     H2 2982   9.046   8.021   9.171
  914WAT      O 2983   7.931   6.705   5.266
  914WAT     H1 2984   7.861   6.695   5.337
  914WAT     H2 2985   7.889   6.700   5.176
  915WAT      O 2986   3.096   4.212   7.984
  915WAT     H1 2987   3.161   4.268   8.035
  915WAT     H2 2988   3.043   4.156   8.047
  916WAT      O 2989   7.728   1.327   1.738
  916WAT     H1 2990   7.680   1.319   1.825
  916WAT     H2 2991   7.665   1.357   1.667
  917WAT      O 2992   7.575   7.345   3.794
  917WAT     H1 2993   7.598   7.334   3.697
  917WAT     H2 2994   7.659   7.354   3.847
  918WAT      O 2995   4.248   9.014   5.019
  918WAT     H1 2996   4.312   9.088   5.042
  918WAT     H2 2997   4.158   9.053   5.000
  919WAT      O 2998   1.378   5.918   1.826
  919WAT     H1 2999   1.307   5.848   1.821
  919WAT     H2 3000   1.430   5.906   1.910
  920WAT      O 3001   8.122   6.397   7.369
  920WAT     H1 3002   8.146   6.308   7.330
  920WAT     H2 3003   8.204   6.440   7.408
  921WAT      O 3004   0.748   7.080   3.191
  921WAT     H1 3005   0.750   7.179   3.207
  921WAT     H2 3006   0.761   7.062   3.094
  922WAT      O 3007   2.027   8.352   6.394
  922WAT     H1 3008   1.970   8.427   6.362
  922WAT     H2 3009   2.118   8.360   6.354
  923WAT      O 3010   2.812   2.903   0.101
  923WAT     H1 3011   2.780   2.981   0.155
  923WAT     H2 3012   2.886   2.856   0.150
  924WAT      O 3013   9.023   5.091   0.132
  924WAT     H1 3014   9.018   5.119   0.227
  924WAT     H2 3015   8.951   5.137   0.080
  925WAT      O 3016   7.452   6.312   6.939
  925WAT     H1 3017   7.528   6.326   6.875
  925WAT     H2 3018   7.486   6.266   7.021
  926WAT      O 3019   4.270   0.504   6.579
  926WAT     H1 3020   4.364   0.479   6.555
  926WAT     H2 3021   4.216   0.512   6.495
  927WAT      O 3022   4.986   2.182   2.436
  927WAT     H1 3023   4.983   2.089   2.402
  927WAT     H2 3024   4.893   2.218   2.443
  928WAT      O 3025   3.427   9.545   3.413
  928WAT     H1 3026   3.344   9.577   3.459
  928WAT     H2 3027   3.475   9.624   3.373
  929WAT      O 3028   0.639   8.986   8.383
  929WAT     H1 3029   0.568   8.974   8.314
  929WAT     H2 3030   0.676   8.896   8.409
  930WAT      O 3031   4.918   2.086   7.233
  930WAT     H1 3032   4.982   2.121   7.301
  930WAT     H2 3033   4.966   2.025   7.170
  931WAT      O 3034   7.165   1.064   9.483
  931WAT     H1 3035   7.110   1.000   9.429
  931WAT     H2 3036   7.233   1.013   9.535
  932WAT      O 3037   4.011   2.510   1.899
  932WAT     H1 3038   4.091   2.471   1.943
  932WAT     H2 3039   3.945   2.540   1.968
  933WAT      O 3040   2.789   0.177   1.638
  933WAT     H1 3041   2.751   0.152   1.549
  933WAT     H2 3042   2.866   0.239   1.625
  934WAT      O 3043   5.613   6.020   8.552
  934WAT     H1 3044   5.541   5.952   8.563
  934WAT     H2 3045   5.700   5.974   8.537
  935WAT      O 3046   5.541   5.464   9.042
  935WAT     H1 3047   5.450   5.506   9.041
  935WAT     H2 3048   5.608   5.528   9.005
  936WAT      O 3049   3.605   6.197   4.689
  936WAT     H1 3050   3.519   6.164   4.729
  936WAT     H2 3051   3.600   6.296   4.679
  937WAT      O 3052   4.501   6.227   2.467
  937WAT     H1 3053   4.473   6.291   2.539
  937WAT     H2 3054   4.502   6.134   2.505
  938WAT      O 3055   0.680   3.649   0.371
  938WAT     H1 3056   0.748   3.640   0.444
  938WAT     H2 3057   0.590   3.629   0.408
  939WAT      O 3058   8.882   2.016   9.058
  939WAT     H1 3059   8.803   1.980   9.009
  939WAT     H2 3060   8.962   2.017   8.997
  940WAT      O 3061   8.953   7.269   0.523
  940WAT     H1 3062   8.879   7.329   0.493
  940WAT     H2 3063   8.957   7.270   0.623
  941WAT      O 3064   4.163   2.804   9.193
  941WAT     H1 3065   4.236   2.858   9.151
  941WAT     H2 3066   4.181   2.706   9.179
  942WAT      O 3067   5.738   2.332   2.330
  942WAT     H1 3068   5.662   2.277   2.298
  942WAT     H2 3069   5.786   2.283   2.403
  943WAT      O 3070   0.826   1.987   9.143
  943WAT     H1 3071   0.835   1.891   9.169
  943WAT     H2 3072   0.840   2.044   9.223
  944WAT      O 3073   4.222   8.736   2.825
  944WAT     H1 3074   4.292   8.680   2.870
  944WAT     H2 3075   4.265   8.817   2.786
  945WAT      O 3076   8.059   2.470   3.734
  945WAT     H1 3077   8.034   2.408   3.660
  945WAT     H2 3078   8.097   2.554   3.695
  946WAT      O 3079   5.049   6.541   9.298
  946WAT     H1 3080   5.051   6.471   9.370
  946WAT     H2 3081   4.959   6.541   9.254
  947WAT      O 3082   0.118   5.467   0.766
  947WAT     H1 3083   0.214   5.496   0.767
  947WAT     H2 3084   0.112   5.370   0.787
  948WAT      O 3085   8.815   5.061   2.719
  948WAT     H1 3086   8.903   5.100   2.693
  948WAT     H2 3087   8.829   4.972   2.762
  949WAT      O 3088   0.460   8.792   2.140
  949WAT     H1 3089   0.412   8.712   2.176
  949WAT     H2 3090   0.402   8.839   2.074
  950WAT      O 3091   9.885   0.215   0.132
  950WAT     H1 3092   9.936   0.146   0.081
  950WAT     H2 3093   9.792   0.184   0.147
  951WAT      O 3094   6.487   4.930   0.023
  951WAT     H1 3095   6.549   5.009   0.015
  951WAT     H2 3096   6.444   4.932   0.113
  952WAT      O 3097   7.441   2.545   6.269
  952WAT     H1 3098   7.515   2.497   6.223
  952WAT     H2 3099   7.381   2.480   6.315
  953WAT      O 3100   1.547   9.081   3.613
  953WAT     H1 3101   1.578   9.032   3.694
  953WAT     H2 3102   1.580   9.175   3.615
  954WAT      O 3103   5.662   4.579   0.377
  954WAT     H1 3104   5.578   4.575   0.431
  954WAT     H2 3105   5.693   4.486   0.358
  955WAT      O 3106   5.488   4.218   1.394
  955WAT     H1 3107   5.461   4.247   1.486
  955WAT     H2 3108   5.463   4.122   1.380
  956WAT      O 3109   1.805   2.415   1.660
  956WAT     H1 3110   1.889   2.447   1.706
  956WAT     H2 3111   1.810   2.316   1.649
  957WAT      O 3112   5.832   0.685   1.279
  957WAT     H1 3113   5.764   0.705   1.208
  957WAT     H2 3114   5.869   0.771   1.315
  958WAT      O 3115   1.691   1.255   0.532
  958WAT     H1 3116   1.643   1.298   0.608
  958WAT     H2 3117   1.713   1.323   0.462
  959WAT      O 3118   6.219   3.668   3.822
  959WAT     H1 3119   6.296   3.721   3.786
  959WAT     H2 3120   6.250   3.615   3.901
  960WAT      O 3121   0.087   3.552   9.115
  960WAT     H1 3122   0.022   3.609   9.163
  960WAT     H2 3123   0.159   3.609   9.075
  961WAT      O 3124   8.483   9.157   6.885
  961WAT     H1 3125   8.554   9.222   6.860
  961WAT     H2 3126   8.504   9.116   6.974
  962WAT      O 3127   8.407   9.340   2.227
  962WAT     H1 3128   8.404   9.407   2.301
  962WAT     H2 3129   8.476   9.270   2.247
  963WAT      O 3130   2.819   8.294   2.283
  963WAT     H1 3131   2.886   8.369   2.277
  963WAT     H2 3132   2.761   8.308   2.362
  964WAT      O 3133   5.908   9.168   2.238
  964WAT     H1 3134   5.880   9.238   2.303
  964WAT     H2 3135   5.919   9.209   2.147
  965WAT      O 3136   4.769   0.890   1.117
  965WAT     H1 3137   4.804   0.877   1.209
  965WAT     H2 3138   4.797   0.979   1.082
  966WAT      O 3139   6.695   7.786   3.168
  966WAT     H1 3140   6.773   7.754   3.222
  966WAT     H2 3141   6.612   7.737   3.196
  967WAT      O 3142   4.647   7.651   9.187
  967WAT     H1 3143   4.680   7.557   9.177
  967WAT     H2 3144   4.547   7.651   9.191
  968WAT      O 3145   6.424   8.737   3.417
  968WAT     H1 3146   6.356   8.665   3.430
  968WAT     H2 3147   6.379   8.818   3.378
  969WAT      O 3148   7.384   2.881   6.161
  969WAT     H1 3149   7.402   2.912   6.068
  969WAT     H2 3150   7.447   2.807   6.185
  970WAT      O 3151   6.251   8.673   1.005
  970WAT     H1 3152   6.152   8.660   0.996
  970WAT     H2 3153   6.269   8.736   1.081
  971WAT      O 3154   1.687   2.517   4.379
  971WAT     H1 3155   1.712   2.488   4.286
  971WAT     H2 3156   1.604   2.573   4.375
  972WAT      O 3157   7.781   0.174   0.325
  972WAT     H1 3158   7.827   0.102   0.376
  972WAT     H2 3159   7.687   0.146   0.305
  973WAT      O 3160   5.478   0.878   8.487
  973WAT     H1 3161   5.530   0.909   8.567
  973WAT     H2 3162   5.382   0.866   8.514
  974WAT      O 3163   2.675   1.118   2.642
  974WAT     H1 3164   2.615   1.045   2.608
  974WAT     H2 3165   2.637   1.207   2.616
  975WAT      O 3166   5.645   5.971   9.512
  975WAT     H1 3167   5.715   6.036   9.541
  975WAT     H2 3168   5.555   6.013   9.518
  976WAT      O 3169   1.636   6.550   6.872
  976WAT     H1 3170   1.566   6.537   6.942
  976WAT     H2 3171   1.618   6.635   6.822
  977WAT      O 3172   4.749   4.094   4.626
  977WAT     H1 3173   4.744   4.141   4.538
  977WAT     H2 3174   4.844   4.093   4.658
  978WAT      O 3175   0.744   9.744   5.775
  978WAT     H1 3176   0.754   9.655   5.731
  978WAT     H2 3177   0.805   9.750   5.853
  979WAT      O 3178   2.463   7.644   8.420
  979WAT     H1 3179   2.475   7.545   8.418
  979WAT     H2 3180   2.414   7.670   8.503
  980WAT      O 3181   5.357   7.874   6.636
  980WAT     H1 3182   5.362   7.775   6.622
  980WAT     H2 3183   5.276   7.896   6.690
  981WAT      O 3184   5.376   9.335   1.913
  981WAT     H1 3185   5.364   9.324   2.012
  981WAT     H2 3186   5.450   9.400   1.895
  982WAT      O 3187   8.804   0.509   6.732
  982WAT     H1 3188   8.876   0.550   6.788
  982WAT     H2 3189   8.826   0.414   6.713
  983WAT      O 3190   1.358   1.337   6.346
  983WAT     H1 3191   1.407   1.342   6.259
  983WAT     H2 3192   1.270   1.293   6.332
  984WAT      O 3193   4.559   5.559   4.449
  984WAT     H1 3194   4.647   5.585   4.408
  984WAT     H2 3195   4.500   5.639   4.455
  985WAT      O 3196   8.536   7.758   9.303
  985WAT     H1 3197   8.448   7.753   9.349
  985WAT     H2 3198   8.541   7.688   9.232
  986WAT      O 3199   7.908   7.287   1.287
  986WAT     H1 3200   7.893   7.360   1.221
  986WAT     H2 3201   7.822   7.237   1.302
  987WAT      O 3202   1.467   9.074   7.776
  987WAT     H1 3203   1.535   9.144   7.758
  987WAT     H2 3204   1.464   9.055   7.874
  988WAT      O 3205   0.824   1.679   5.118
  988WAT     H1 3206   0.807   1.706   5.212
  988WAT     H2 3207   0.749   1.709   5.060
  989WAT      O 3208   4.909   8.413   2.997
  989WAT     H1 3209   5.003   8.433   2.969
  989WAT     H2 3210   4.907   8.393   3.095
  990WAT      O 3211   6.599   1.349   4.428
  990WAT     H1 3212   6.664   1.274   4.415
  990WAT     H2 3213   6.638   1.417   4.490
  991WAT      O 3214   5.577   5.367   1.085
  991WAT     H1 3215   5.556   5.280   1.130
  991WAT     H2 3216   5.503   5.392   1.023
  992WAT      O 3217   5.362   6.642   5.968
  992WAT     H1 3218   5.302   6.581   6.019
  992WAT     H2 3219   5.429   6.588   5.917
  993WAT      O 3220   9.456   5.867   1.437
  993WAT     H1 3221   9.431   5.946   1.494
  993WAT     H2 3222   9.555   5.867   1.423
  994WAT      O 3223   5.894   8.239   3.338
  994WAT     H1 3224   5.924   8.293   3.416
  994WAT     H2 3225   5.964   8.240   3.267
  995WAT      O 3226   6.762   3.107   7.846
  995WAT     H1 3227   6.857   3.106   7.878
  995WAT     H2 3228   6.725   3.200   7.856
  996WAT      O 3229   1.321   3.695   9.481
  996WAT     H1 3230   1.420   3.687   9.474
  996WAT     H2 3231   1.289   3.646   9.562
  997WAT      O 3232   5.730   4.536   8.651
  997WAT     H1 3233   5.754   4.443   8.680
  997WAT     H2 3234   5.630   4.542   8.640
  998WAT      O 3235   8.537   0.776   0.508
  998WAT     H1 3236   8.463   0.842   0.495
  998WAT     H2 3237   8.574   0.749   0.420
  999WAT      O 3238   7.092   3.332   0.195
  999WAT     H1 3239   7.043   3.388   0.128
  999WAT     H2 3240   7.185   3.315   0.163
 1000WAT      O 3241   1.420   4.052   0.209
 1000WAT     H1 3242   1.480   4.132   0.208
 1000WAT     H2 3243   1.404   4.021   0.115
 1001WAT      O 3244   0.202   2.013   2.789
 1001WAT     H1 3245   0.203   2.112   2.798
 1001WAT     H2 3246   0.167   1.972   2.874
 1002WAT      O 3247   4.896   8.753   8.661
 1002WAT     H1 3248   4.986   8.733   8.623
 1002WAT     H2 3249   4.828   8.695   8.617
 1003WAT      O 3250   4.393   5.161   4.740
 1003WAT     H1 3251   4.399   5.117   4.830
 1003WAT     H2 3252   4.427   5.255   4.747
 1004WAT      O 3253   4.246   1.567   2.733
 1004WAT     H1 3254   4.315   1.635   2.756
 1004WAT     H2 3255   4.170   1.611   2.685
 1005WAT      O 3256   3.880   5.686   4.304
 1005WAT     H1 3257   3.802   5.623   4.304
 1005WAT     H2 3258   3.858   5.764   4.362
 1006WAT      O 3259   5.494   9.725   0.233
 1006WAT     H1 3260   5.554   9.802   0.209
 1006WAT     H2 3261   5.499   9.656   0.160
 1007WAT      O 3262   6.540   1.488   3.295
 1007WAT     H1 3263   6.458   1.545   3.289
 1007WAT     H2 3264   6.533   1.429   3.375
 1008WAT      O 3265   3.442   8.283   4.161
 1008WAT     H1 3266   3.525   8.253   4.207
 1008WAT     H2 3267   3.455   8.375   4.124
 1009WAT      O 3268   3.820   3.745   1.478
 1009WAT     H1 3269   3.777   3.682   1.543
 1009WAT     H2 3270   3.875   3.693   1.413
 1010WAT      O 3271   4.653   6.504   6.755
 1010WAT     H1 3272   4.734   6.448   6.768
 1010WAT     H2 3273   4.571   6.447   6.756
 1011WAT      O 3274   6.264   9.393   5.498
 1011WAT     H1 3275   6.270   9.354   5.590
 1011WAT     H2 3276   6.169   9.392   5.467
 1012WAT      O 3277   6.698   3.013   0.602
 1012WAT     H1 3278   6.740   3.084   0.546
 1012WAT     H2 3279   6.643   3.055   0.673
 1013WAT      O 3280   4.388   7.216   5.612
 1013WAT     H1 3281   4.404   7.254   5.521
 1013WAT     H2 3282   4.476   7.190   5.653
 1014WAT      O 3283   9.089   3.664   0.300
 1014WAT     H1 3284   9.120   3.573   0.328
 1014WAT     H2 3285   9.006   3.687   0.350
 1015WAT      O 3286   0.430   2.774   0.324
 1015WAT     H1 3287   0.464   2.835   0.252
 1015WAT     H2 3288   0.335   2.748   0.303
 1016WAT      O 3289   1.063   0.110   3.448
 1016WAT     H1 3290   1.041   0.164   3.530
 1016WAT     H2 3291   0.980   0.096   3.395
 1017WAT      O 3292   0.581   7.195   7.846
 1017WAT     H1 3293   0.497   7.185   7.792
 1017WAT     H2 3294   0.657   7.153   7.798
 1018WAT      O 3295   2.146   1.457   1.961
 1018WAT     H1 3296   2.079   1.387   1.939
 1018WAT     H2 3297   2.121   1.503   2.046
 1019WAT      O 3298   3.313   6.987   0.034
 1019WAT     H1 3299   3.258   7.030   0.105
 1019WAT     H2 3300   3.410   7.005   0.051
 1020WAT      O 3301   6.619   8.063   3.373
 1020WAT     H1 3302   6.612   8.126   3.295
 1020WAT     H2 3303   6.714   8.033   3.382
 1021WAT      O 3304   2.914   3.658   5.112
 1021WAT     H1 3305   2.986   3.676   5.179
 1021WAT     H2 3306   2.825   3.673   5.154
 1022WAT      O 3307   8.860   3.523   3.360
 1022WAT     H1 3308   8.772   3.500   3.319
 1022WAT     H2 3309   8.871   3.622   3.361
 1023WAT      O 3310   1.944   0.123   7.834
 1023WAT     H1 3311   1.851   0.088   7.824
 1023WAT     H2 3312   1.978   0.101   7.925
 1024WAT      O 3313   8.092   8.752   2.838
 1024WAT     H1 3314   8.085   8.842   2.795
 1024WAT     H2 3315   8.094   8.761   2.937
 1025WAT      O 3316   1.941   4.974   0.097
 1025WAT     H1 3317   1.969   4.943   0.007
 1025WAT     H2 3318   2.013   4.953   0.163
 1026WAT      O 3319   8.225   2.830   5.059
 1026WAT     H1 3320   8.134   2.871   5.054
 1026WAT     H2 3321   8.217   2.730   5.061
 1027WAT      O 3322   0.510   6.593   6.690
 1027WAT     H1 3323   0.506   6.560   6.785
 1027WAT     H2 3324   0.556   6.681   6.687
 1028WAT      O 3325   7.796   6.397   5.302
 1028WAT     H1 3326   7.841   6.397   5.213
 1028WAT     H2 3327   7.698   6.409   5.289
 1029WAT      O 3328   1.701   9.250   4.180
 1029WAT     H1 3329   1.756   9.325   4.217
 1029WAT     H2 3330   1.746   9.213   4.098
 1030WAT      O 3331   4.945   7.801   2.800
 1030WAT     H1 3332   4.949   7.772   2.705
 1030WAT     H2 3333   4.859   7.771   2.841
 1031WAT      O 3334   4.629   2.980   8.187
 1031WAT     H1 3335   4.696   2.912   8.158
 1031WAT     H2 3336   4.664   3.071   8.167
 1032WAT      O 3337   4.078   9.095   2.684
 1032WAT     H1 3338   4.001   9.045   2.724
 1032WAT     H2 3339   4.048   9.144   2.603
 1033WAT      O 3340   1.999   0.526   7.223
 1033WAT     H1 3341   1.960   0.509   7.132
 1033WAT     H2 3342   2.066   0.455   7.244
 1034WAT      O 3343   4.193   6.273   8.018
 1034WAT     H1 3344   4.182   6.314   8.109
 1034WAT     H2 3345   4.223   6.178   8.029
 1035WAT      O 3346   1.229   1.531   1.201
 1035WAT     H1 3347   1.201   1.560   1.109
 1035WAT     H2 3348   1.327   1.550   1.213
 1036WAT      O 3349   2.266   6.221   6.874
 1036WAT     H1 3350   2.260   6.142   6.813
 1036WAT     H2 3351   2.287   6.303   6.821
 1037WAT      O 3352   8.579   4.648   6.148
 1037WAT     H1 3353   8.535   4.605   6.226
 1037WAT     H2 3354   8.576   4.748   6.158
 1038WAT      O 3355   0.067   3.230   4.147
 1038WAT     H1 3356   0.126   3.266   4.074
 1038WAT     H2 3357  -0.001   3.300   4.172
 1039WAT      O 3358   6.065   0.047   3.542
 1039WAT     H1 3359   6.053  -0.052   3.545
 1039WAT     H2 3360   6.001   0.091   3.605
 1040WAT      O 3361   2.321   3.788   0.005
 1040WAT     H1 3362   2.240   3.758   0.056
 1040WAT     H2 3363   2.401   3.789   0.065
 1041WAT      O 3364   2.134   8.369   3.723
 1041WAT     H1 3365   2.049   8.321   3.700
 1041WAT     H2 3366   2.114   8.440   3.790
 1042WAT      O 3367   3.389   6.112   5.094
 1042WAT     H1 3368   3.308   6.060   5.121
 1042WAT     H2 3369   3.377   6.208   5.120
 1043WAT      O 3370   7.332   1.179   3.362
 1043WAT     H1 3371   7.263   1.243   3.330
 1043WAT     H2 3372   7.345   1.107   3.294
 1044WAT      O 3373   5.181   6.830   0.489
 1044WAT     H1 3374   5.273   6.864   0.507
 1044WAT     H2 3375   5.114   6.887   0.536
 1045WAT      O 3376   7.158   6.838   1.490
 1045WAT     H1 3377   7.146   6.894   1.408
 1045WAT     H2 3378   7.077   6.845   1.548
 1046WAT      O 3379   6.325   0.668   2.411
 1046WAT     H1 3380   6.391   0.606   2.453
 1046WAT     H2 3381   6.338   0.760   2.447
 1047WAT      O 3382   4.432   4.320   8.161
 1047WAT     H1 3383   4.446   4.232   8.116
 1047WAT     H2 3384   4.343   4.357   8.135
 1048WAT      O 3385   2.798   3.083   0.727
 1048WAT     H1 3386   2.779   3.055   0.633
 1048WAT     H2 3387   2.758   3.017   0.791
 1049WAT      O 3388   6.600   5.178   7.052
 1049WAT     H1 3389   6.683   5.166   7.106
 1049WAT     H2 3390   6.614   5.251   6.985
 1050WAT      O 3391   9.496   0.158   4.569
 1050WAT     H1 3392   9.519   0.186   4.663
 1050WAT     H2 3393   9.521   0.232   4.506
 1051WAT      O 3394   5.286   1.349   6.812
 1051WAT     H1 3395   5.240   1.382   6.730
 1051WAT     H2 3396   5.251   1.398   6.892
 1052WAT      O 3397   5.785   3.450   8.039
 1052WAT     H1 3398   5.855   3.384   8.011
 1052WAT     H2 3399   5.695   3.408   8.032
 1053WAT      O 3400   2.136   5.156   9.760
 1053WAT     H1 3401   2.093   5.069   9.735
 1053WAT     H2 3402   2.185   5.145   9.846
 1054WAT      O 3403   3.547   7.498   4.567
 1054WAT     H1 3404   3.603   7.415   4.567
 1054WAT     H2 3405   3.459   7.479   4.612
 1055WAT      O 3406   6.815   9.571   6.862
 1055WAT     H1 3407   6.836   9.486   6.813
 1055WAT     H2 3408   6.787   9.550   6.955
 1056WAT      O 3409   6.371   6.080   9.882
 1056WAT     H1 3410   6.296   6.031   9.839
 1056WAT     H2 3411   6.336   6.163   9.926
 1057WAT      O 3412   6.279   3.642   0.409
 1057WAT     H1 3413   6.284   3.588   0.325
 1057WAT     H2 3414   6.244   3.585   0.483
 1058WAT      O 3415   9.523   1.670   3.695
 1058WAT     H1 3416   9.424   1.670   3.691
 1058WAT     H2 3417   9.554   1.624   3.779
 1059WAT      O 3418   8.497   2.025   2.739
 1059WAT     H1 3419   8.499   2.015   2.640
 1059WAT     H2 3420   8.586   2.060   2.771
 1060WAT      O 3421   5.015   4.868   0.559
 1060WAT     H1 3422   5.027   4.780   0.606
 1060WAT     H2 3423   4.956   4.856   0.480
 1061WAT      O 3424   8.920   4.440   3.692
 1061WAT     H1 3425   8.871   4.384   3.758
 1061WAT     H2 3426   8.997   4.389   3.655
 1062WAT      O 3427   3.274   2.412   7.942
 1062WAT     H1 3428   3.251   2.342   7.875
 1062WAT     H2 3429   3.335   2.374   8.011
 1063WAT      O 3430   5.337   1.273   7.191
 1063WAT     H1 3431   5.425   1.228   7.178
 1063WAT     H2 3432   5.345   1.370   7.168
 1064WAT      O 3433   8.024   0.412   2.774
 1064WAT     H1 3434   8.056   0.507   2.763
 1064WAT     H2 3435   7.926   0.412   2.793
 1065WAT      O 3436   4.221   4.118   1.739
 1065WAT     H1 3437   4.136   4.067   1.727
 1065WAT     H2 3438   4.288   4.087   1.672
 1066WAT      O 3439   9.652   5.270   4.570
 1066WAT     H1 3440   9.599   5.235   4.647
 1066WAT     H2 3441   9.645   5.206   4.493
 1067WAT      O 3442   6.811   6.759   8.416
 1067WAT     H1 3443   6.763   6.808   8.488
 1067WAT     H2 3444   6.787   6.662   8.419
 1068WAT      O 3445   7.189   4.732   8.502
 1068WAT     H1 3446   7.225   4.804   8.443
 1068WAT     H2 3447   7.251   4.718   8.579
 1069WAT      O 3448   2.283   8.555   2.511
 1069WAT     H1 3449   2.319   8.464   2.490
 1069WAT     H2 3450   2.203   8.573   2.453
 1070WAT      O 3451   2.873   9.412   4.794
 1070WAT     H1 3452   2.894   9.507   4.819
 1070WAT     H2 3453   2.881   9.402   4.695
 1071WAT      O 3454   1.463   8.761   8.983
 1071WAT     H1 3455   1.555   8.798   8.993
 1071WAT     H2 3456   1.456   8.713   8.896
 1072WAT      O 3457   6.019   5.370   0.942
 1072WAT     H1 3458   6.070   5.384   1.027
 1072WAT     H2 3459   5.946   5.303   0.958
 1073WAT      O 3460   6.491   1.649   3.598
 1073WAT     H1 3461   6.519   1.554   3.612
 1073WAT     H2 3462   6.528   1.706   3.671
 1074WAT      O 3463   2.976   1.464   1.558
 1074WAT     H1 3464   2.957   1.366   1.554
 1074WAT     H2 3465   3.063   1.483   1.513
 1075WAT      O 3466   5.239   1.706   0.608
 1075WAT     H1 3467   5.314   1.717   0.542
 1075WAT     H2 3468   5.268   1.644   0.680
 1076WAT      O 3469   1.407   5.386   1.417
 1076WAT     H1 3470   1.448   5.432   1.497
 1076WAT     H2 3471   1.479   5.338   1.367
 1077WAT      O 3472   6.523   5.724   2.467
 1077WAT     H1 3473   6.614   5.734   2.507
 1077WAT     H2 3474   6.454   5.725   2.540
 1078WAT      O 3475   3.280   3.723   2.853
 1078WAT     H1 3476   3.256   3.649   2.790
 1078WAT     H2 3477   3.356   3.775   2.815
 1079WAT      O 3478   1.394   0.005   1.104
 1079WAT     H1 3479   1.467  -0.049   1.062
 1079WAT     H2 3480   1.435   0.074   1.164
 1080WAT      O 3481   5.391   4.247   9.152
 1080WAT     H1 3482   5.341   4.163   9.132
 1080WAT     H2 3483   5.325   4.322   9.166
 1081WAT      O 3484   1.598   1.725   0.950
 1081WAT     H1 3485   1.684   1.764   0.917
 1081WAT     H2 3486   1.548   1.795   1.001
 1082WAT      O 3487   9.598   0.171   9.749
 1082WAT     H1 3488   9.675   0.188   9.687
 1082WAT     H2 3489   9.513   0.170   9.696
 1083WAT      O 3490   5.800   8.442   8.874
 1083WAT     H1 3491   5.821   8.474   8.966
 1083WAT     H2 3492   5.723   8.378   8.879
 1084WAT      O 3493   6.508   9.299   6.773
 1084WAT     H1 3494   6.509   9.287   6.873
 1084WAT     H2 3495   6.545   9.216   6.730
 1085WAT      O 3496   7.537   8.948   4.181
 1085WAT     H1 3497   7.614   8.904   4.227
 1085WAT     H2 3498   7.539   8.925   4.084
 1086WAT      O 3499   6.728   0.717   4.932
 1086WAT     H1 3500   6.752   0.622   4.950
 1086WAT     H2 3501   6.706   0.728   4.835
 1087WAT      O 3502   7.404   6.632   0.689
 1087WAT     H1 3503   7.389   6.680   0.776
 1087WAT     H2 3504   7.447   6.544   0.706
 1088WAT      O 3505   3.388   4.837   8.673
 1088WAT     H1 3506   3.304   4.787   8.691
 1088WAT     H2 3507   3.378   4.932   8.702
 1089WAT      O 3508   1.958   4.401   3.754
 1089WAT     H1 3509   1.889   4.408   3.827
 1089WAT     H2 3510   2.049   4.398   3.795
 1090WAT      O 3511   4.503   9.534   7.361
 1090WAT     H1 3512   4.432   9.562   7.425
 1090WAT     H2 3513   4.510   9.600   7.287
 1091WAT      O 3514   1.334   6.715   6.229
 1091WAT     H1 3515   1.387   6.646   6.179
 1091WAT     H2 3516   1.237   6.703   6.208
 1092WAT      O 3517   4.988   2.434   3.827
 1092WAT     H1 3518   5.040   2.426   3.912
 1092WAT     H2 3519   4.957   2.528   3.815
 1093WAT      O 3520   3.222   6.824   7.553
 1093WAT     H1 3521   3.290   6.757   7.583
 1093WAT     H2 3522   3.130   6.791   7.577
 1094WAT      O 3523   2.011   8.263   7.558
 1094WAT     H1 3524   2.058   8.213   7.630
 1094WAT     H2 3525   1.919   8.288   7.588
 1095WAT      O 3526   1.221   6.926   9.006
 1095WAT     H1 3527   1.268   6.853   9.056
 1095WAT     H2 3528   1.237   7.013   9.052
 1096WAT      O 3529   4.759   9.130   6.263
 1096WAT     H1 3530   4.734   9.054   6.203
 1096WAT     H2 3531   4.715   9.214   6.231
 1097WAT      O 3532   7.869   4.024   0.867
 1097WAT     H1 3533   7.777   4.060   0.856
 1097WAT     H2 3534   7.882   3.945   0.807
 1098WAT      O 3535   3.417   8.540   7.930
 1098WAT     H1 3536   3.418   8.445   7.962
 1098WAT     H2 3537   3.510   8.577   7.933
 1099WAT      O 3538   4.972   3.678   8.655
 1099WAT     H1 3539   4.894   3.664   8.716
 1099WAT     H2 3540   4.990   3.776   8.647
 1100WAT      O 3541   8.075   2.416   7.841
 1100WAT     H1 3542   8.169   2.437   7.865
 1100WAT     H2 3543   8.047   2.332   7.888
 1101WAT      O 3544   1.167   8.362   1.786
 1101WAT     H1 3545   1.102   8.350   1.711
 1101WAT     H2 3546   1.243   8.418   1.756
 1102WAT      O 3547   9.313   3.464   0.589
 1102WAT     H1 3548   9.315   3.551   0.637
 1102WAT     H2 3549   9.224   3.421   0.603
 1103WAT      O 3550   4.916   2.176   7.968
 1103WAT     H1 3551   4.887   2.083   7.947
 1103WAT     H2 3552   4.840   2.239   7.949
 1104WAT      O 3553   3.974   1.054   7.344
 1104WAT     H1 3554   3.951   1.080   7.250
 1104WAT     H2 3555   3.950   0.958   7.359
 1105WAT      O 3556   9.089   7.851   3.404
 1105WAT     H1 3557   9.085   7.774   3.341
 1105WAT     H2 3558   9.013   7.914   3.385
 1106WAT      O 3559   5.608   6.742   9.440
 1106WAT     H1 3560   5.590   6.643   9.433
 1106WAT     H2 3561   5.527   6.792   9.410
 1107WAT      O 3562   2.336   5.251   6.786
 1107WAT     H1 3563   2.316   5.342   6.824
 1107WAT     H2 3564   2.413   5.211   6.836
 1108WAT      O 3565   0.369   7.118   7.669
 1108WAT     H1 3566   0.312   7.175   7.610
 1108WAT     H2 3567   0.316   7.041   7.703
 1109WAT      O 3568   9.774   0.933   0.204
 1109WAT     H1 3569   9.680   0.897   0.200
 1109WAT     H2 3570   9.823   0.891   0.281
 1110WAT      O 3571   6.549   0.660   2.097
 1110WAT     H1 3572   6.614   0.709   2.039
 1110WAT     H2 3573   6.569   0.679   2.193
 1111WAT      O 3574   6.922   9.021   7.230
 1111WAT     H1 3575   7.006   8.990   7.275
 1111WAT     H2 3576   6.909   9.119   7.249
 1112WAT      O 3577   5.425   2.275   4.215
 1112WAT     H1 3578   5.434   2.347   4.147
 1112WAT     H2 3579   5.397   2.315   4.303
 1113WAT      O 3580   9.024   4.935   1.740
 1113WAT     H1 3581   9.055   4.920   1.646
 1113WAT     H2 3582   8.953   5.005   1.741
 1114WAT      O 3583   4.077   7.600   0.448
 1114WAT     H1 3584   4.156   7.656   0.422
 1114WAT     H2 3585   4.107   7.508   0.471
 1115WAT      O 3586   9.485   1.957   7.042
 1115WAT     H1 3587   9.458   1.917   7.130
 1115WAT     H2 3588   9.409   1.949   6.977
 1116WAT      O 3589   9.070   2.733   9.316
 1116WAT     H1 3590   8.972   2.715   9.328
 1116WAT     H2 3591   9.106   2.778   9.397
 1117WAT      O 3592   7.212   9.409   2.021
 1117WAT     H1 3593   7.118   9.378   2.005
 1117WAT     H2 3594   7.226   9.421   2.119
 1118WAT      O 3595   7.124   6.336   2.096
 1118WAT     H1 3596   7.127   6.425   2.142
 1118WAT     H2 3597   7.038   6.328   2.045
 1119WAT      O 3598   7.014   1.906   3.927
 1119WAT     H1 3599   7.014   2.001   3.895
 1119WAT     H2 3600   7.060   1.848   3.860
 1120WAT      O 3601   7.946   1.754   7.602
 1120WAT     H1 3602   7.873   1.744   7.535
 1120WAT     H2 3603   8.003   1.672   7.601
 1121WAT      O 3604   0.032   0.544   5.263
 1121WAT     H1 3605   0.095   0.484   5.215
 1121WAT     H2 3606   0.077   0.585   5.342
 1122WAT      O 3607   5.493   0.818   3.068
 1122WAT     H1 3608   5.395   0.800   3.060
 1122WAT     H2 3609   5.528   0.853   2.981
 1123WAT      O 3610   8.894   6.142   2.185
 1123WAT     H1 3611   8.861   6.055   2.147
 1123WAT     H2 3612   8.923   6.202   2.110
 1124WAT      O 3613   1.858   3.786   1.173
 1124WAT     H1 3614   1.765   3.760   1.195
 1124WAT     H2 3615   1.911   3.705   1.148
 1125WAT      O 3616   6.047   5.850   5.325
 1125WAT     H1 3617   6.138   5.834   5.287
 1125WAT     H2 3618   6.019   5.945   5.306
 1126WAT      O 3619   5.541   4.112   2.005
 1126WAT     H1 3620   5.544   4.065   1.917
 1126WAT     H2 3621   5.456   4.086   2.053
 1127WAT      O 3622   2.218   9.470   3.551
 1127WAT     H1 3623   2.307   9.508   3.523
 1127WAT     H2 3624   2.230   9.375   3.580
 1128WAT      O 3625   5.404   5.140   3.791
 1128WAT     H1 3626   5.445   5.232   3.794
 1128WAT     H2 3627   5.336   5.137   3.718
 1129WAT      O 3628   3.402   6.838   2.118
 1129WAT     H1 3629   3.307   6.849   2.148
 1129WAT     H2 3630   3.425   6.741   2.111
 1130WAT      O 3631   4.012   4.238   0.593
 1130WAT     H1 3632   4.080   4.166   0.587
 1130WAT     H2 3633   4.045   4.310   0.655
 1131WAT      O 3634   7.388   7.805   2.630
 1131WAT     H1 3635   7.370   7.707   2.638
 1131WAT     H2 3636   7.476   7.827   2.670
 1132WAT      O 3637   0.796   7.605   8.349
 1132WAT     H1 3638   0.780   7.702   8.367
 1132WAT     H2 3639   0.847   7.595   8.264
 1133WAT      O 3640   3.860   5.632   8.687
 1133WAT     H1 3641   3.774   5.682   8.676
 1133WAT     H2 3642   3.865   5.560   8.618
 1134WAT      O 3643   3.347   8.633   5.829
 1134WAT     H1 3644   3.393   8.618   5.916
 1134WAT     H2 3645   3.362   8.727   5.799
 1135WAT      O 3646   1.771   6.850   3.316
 1135WAT     H1 3647   1.827   6.768   3.326
 1135WAT     H2 3648   1.827   6.923   3.276
 1136WAT      O 3649   5.942   0.020   9.421
 1136WAT     H1 3650   6.020   0.040   9.362
 1136WAT     H2 3651   5.871   0.089   9.408
 1137WAT      O 3652   7.483   0.267   2.952
 1137WAT     H1 3653   7.446   0.175   2.967
 1137WAT     H2 3654   7.464   0.296   2.859
 1138WAT      O 3655   2.220   4.732   1.883
 1138WAT     H1 3656   2.178   4.818   1.855
 1138WAT     H2 3657   2.178   4.702   1.969
 1139WAT      O 3658   4.118   5.466   2.882
 1139WAT     H1 3659   4.053   5.396   2.910
 1139WAT     H2 3660   4.116   5.542   2.948
 1140WAT      O 3661   1.977   2.235   7.769
 1140WAT     H1 3662   1.888   2.191   7.757
 1140WAT     H2 3663   2.011   2.217   7.861
 1141WAT      O 3664   5.339   3.949   8.827
 1141WAT     H1 3665   5.368   3.949   8.731
 1141WAT     H2 3666   5.318   3.856   8.855
 1142WAT      O 3667   3.562   7.765   7.375
 1142WAT     H1 3668   3.545   7.710   7.457
 1142WAT     H2 3669   3.599   7.854   7.402
 1143WAT      O 3670   2.417   2.237   8.705
 1143WAT     H1 3671   2.349   2.212   8.773
 1143WAT     H2 3672   2.506   2.200   8.731
 1144WAT      O 3673   2.652   9.076   9.730
 1144WAT     H1 3674   2.601   9.162   9.721
 1144WAT     H2 3675   2.621   9.012   9.660
 1145WAT      O 3676   6.759   4.387   6.813
 1145WAT     H1 3677   6.679   4.390   6.752
 1145WAT     H2 3678   6.835   4.341   6.766
 1146WAT      O 3679   9.563   2.425   5.981
 1146WAT     H1 3680   9.603   2.382   5.900
 1146WAT     H2 3681   9.630   2.486   6.024
 1147WAT      O 3682   4.817   7.413   2.034
 1147WAT     H1 3683   4.850   7.376   2.121
 1147WAT     H2 3684   4.796   7.337   1.972
 1148WAT      O 3685   2.213   2.153   2.619
 1148WAT     H1 3686   2.208   2.124   2.715
 1148WAT     H2 3687   2.122   2.180   2.587
 1149WAT      O 3688   3.570   2.103   0.166
 1149WAT     H1 3689   3.479   2.063   0.157
 1149WAT     H2 3690   3.605   2.126   0.075
 1150WAT      O 3691   8.370   1.197   8.641
 1150WAT     H1 3692   8.395   1.274   8.700
 1150WAT     H2 3693   8.324   1.127   8.696
 1151WAT      O 3694   1.506   0.414   7.791
 1151WAT     H1 3695   1.506   0.369   7.702
 1151WAT     H2 3696   1.555   0.501   7.785
 1152WAT      O 3697   9.143   9.510   4.887
 1152WAT     H1 3698   9.177   9.435   4.830
 1152WAT     H2 3699   9.058   9.482   4.931
 1153WAT      O 3700   0.496   7.051   3.046
 1153WAT     H1 3701   0.471   7.128   3.105
 1153WAT     H2 3702   0.540   7.086   2.964
 1154WAT      O 3703   2.128   5.965   5.435
 1154WAT     H1 3704   2.224   5.947   5.412
 1154WAT     H2 3705   2.081   6.000   5.354
 1155WAT      O 3706   9.875   7.291   3.991
 1155WAT     H1 3707   9.836   7.200   4.003
 1155WAT     H2 3708   9.856   7.323   3.899
 1156WAT      O 3709   4.608   5.713   8.613
 1156WAT     H1 3710   4.577   5.807   8.596
 1156WAT     H2 3711   4.535   5.662   8.660
 1157WAT      O 3712   6.503   9.493   3.266
 1157WAT     H1 3713   6.580   9.547   3.233
 1157WAT     H2 3714   6.536   9.414   3.317
 1158WAT      O 3715   5.759   7.069   6.302
 1158WAT     H1 3716   5.737   7.133   6.229
 1158WAT     H2 3717   5.741   7.112   6.391
 1159WAT      O 3718   6.252   4.384   4.842
 1159WAT     H1 3719   6.296   4.474   4.847
 1159WAT     H2 3720   6.306   4.318   4.895
 1160WAT      O 3721   8.350   7.073   0.603
 1160WAT     H1 3722   8.407   7.066   0.684
 1160WAT     H2 3723   8.397   7.030   0.525
 1161WAT      O 3724   8.707   7.301   3.682
 1161WAT     H1 3725   8.712   7.384   3.626
 1161WAT     H2 3726   8.611   7.280   3.700
 1162WAT      O 3727   4.622   8.438   5.550
 1162WAT     H1 3728   4.682   8.469   5.624
 1162WAT     H2 3729   4.585   8.348   5.574
 1163WAT      O 3730   4.682   0.716   0.585
 1163WAT     H1 3731   4.681   0.658   0.667
 1163WAT     H2 3732   4.658   0.661   0.505
 1164WAT      O 3733   5.557   3.195   7.108
 1164WAT     H1 3734   5.606   3.209   7.194
 1164WAT     H2 3735   5.568   3.276   7.050
 1165WAT      O 3736   6.575   3.915   5.654
 1165WAT     H1 3737   6.605   3.942   5.562
 1165WAT     H2 3738   6.512   3.984   5.689
 1166WAT      O 3739   7.905   8.045   2.676
 1166WAT     H1 3740   7.999   8.016   2.658
 1166WAT     H2 3741   7.842   7.990   2.621
 1167WAT      O 3742   9.408   3.469   2.803
 1167WAT     H1 3743   9.403   3.484   2.704
 1167WAT     H2 3744   9.322   3.429   2.835
 1168WAT      O 3745   5.411   4.978   2.623
 1168WAT     H1 3746   5.342   5.037   2.582
 1168WAT     H2 3747   5.493   4.978   2.566
 1169WAT      O 3748   1.462   5.190   5.767
 1169WAT     H1 3749   1.367   5.196   5.736
 1169WAT     H2 3750   1.519   5.159   5.691
 1170WAT      O 3751   2.553   3.486   9.260
 1170WAT     H1 3752   2.617   3.519   9.329
 1170WAT     H2 3753   2.516   3.564   9.209
 1171WAT      O 3754   2.983   8.161   4.381
 1171WAT     H1 3755   2.908   8.177   4.445
 1171WAT     H2 3756   3.037   8.083   4.412
 1172WAT      O 3757   5.196   5.574   4.197
 1172WAT     H1 3758   5.198   5.474   4.198
 1172WAT     H2 3759   5.133   5.605   4.126
 1173WAT      O 3760   9.546   9.653   6.673
 1173WAT     H1 3761   9.522   9.561   6.645
 1173WAT     H2 3762   9.552   9.657   6.773
 1174WAT      O 3763   3.073   6.847   4.903
 1174WAT     H1 3764   3.058   6.801   4.815
 1174WAT     H2 3765   3.049   6.785   4.978
 1175WAT      O 3766   3.042   7.273   4.101
 1175WAT     H1 3767   3.095   7.277   4.017
 1175WAT     H2 3768   3.047   7.181   4.140
 1176WAT      O 3769   4.947   6.921   5.496
 1176WAT     H1 3770   5.041   6.903   5.468
 1176WAT     H2 3771   4.940   7.013   5.536
 1177WAT      O 3772   8.245   7.147   1.515
 1177WAT     H1 3773   8.334   7.189   1.529
 1177WAT     H2 3774   8.175   7.218   1.507
 1178WAT      O 3775   6.259   5.164   1.274
 1178WAT     H1 3776   6.304   5.093   1.327
 1178WAT     H2 3777   6.222   5.125   1.189
 1179WAT      O 3778   7.565   5.134   7.569
 1179WAT     H1 3779   7.508   5.128   7.650
 1179WAT     H2 3780   7.657   5.100   7.590
 1180WAT      O 3781   4.333   4.419   4.839
 1180WAT     H1 3782   4.281   4.445   4.758
 1180WAT     H2 3783   4.351   4.320   4.838
 1181WAT      O 3784   7.628   6.560   7.540
 1181WAT     H1 3785   7.670   6.535   7.453
 1181WAT     H2 3786   7.551   6.499   7.559
 1182WAT      O 3787   4.757   5.263   0.518
 1182WAT     H1 3788   4.742   5.203   0.440
 1182WAT     H2 3789   4.823   5.334   0.495
 1183WAT      O 3790   1.614   2.072   5.340
 1183WAT     H1 3791   1.539   2.114   5.392
 1183WAT     H2 3792   1.612   2.105   5.246
 1184WAT      O 3793   8.309   8.430   0.998
 1184WAT     H1 3794   8.283   8.407   0.904
 1184WAT     H2 3795   8.278   8.357   1.060
 1185WAT      O 3796   1.440   6.501   6.097
 1185WAT     H1 3797   1.436   6.402   6.114
 1185WAT     H2 3798   1.496   6.518   6.016
 1186WAT      O 3799   3.414   7.038   2.918
 1186WAT     H1 3800   3.443   7.020   2.824
 1186WAT     H2 3801   3.469   6.983   2.981
 1187WAT      O 3802   6.117   9.387   4.685
 1187WAT     H1 3803   6.146   9.425   4.597
 1187WAT     H2 3804   6.121   9.459   4.755
 1188WAT      O 3805   7.416   6.033   8.425
 1188WAT     H1 3806   7.439   6.051   8.521
 1188WAT     H2 3807   7.412   6.120   8.375
 1189WAT      O 3808   0.806   5.524   3.502
 1189WAT     H1 3809   0.739   5.597   3.515
 1189WAT     H2 3810   0.836   5.521   3.407
 1190WAT      O 3811   2.998   2.085   4.278
 1190WAT     H1 3812   3.027   2.135   4.359
 1190WAT     H2 3813   2.917   2.129   4.239
 1191WAT      O 3814   1.133   5.773   3.984
 1191WAT     H1 3815   1.214   5.715   3.984
 1191WAT     H2 3816   1.120   5.813   4.075
 1192WAT      O 3817   3.866   2.109   5.867
 1192WAT     H1 3818   3.880   2.117   5.966
 1192WAT     H2 3819   3.923   2.178   5.821
 1193WAT      O 3820   0.575   3.585   3.052
 1193WAT     H1 3821   0.595   3.578   3.149
 1193WAT     H2 3822   0.537   3.499   3.019
 1194WAT      O 3823   4.871   3.179   1.239
 1194WAT     H1 3824   4.913   3.268   1.253
 1194WAT     H2 3825   4.871   3.157   1.141
 1195WAT      O 3826   3.168   4.793   7.980
 1195WAT     H1 3827   3.136   4.739   7.901
 1195WAT     H2 3828   3.267   4.786   7.987
 1196WAT      O 3829   1.071   0.999   5.541
 1196WAT     H1 3830   1.009   0.921   5.533
 1196WAT     H2 3831   1.105   1.005   5.635
 1197WAT      O 3832   1.993   5.853   5.882
 1197WAT     H1 3833   2.044   5.912   5.944
 1197WAT     H2 3834   1.936   5.909   5.822
 1198WAT      O 3835   4.930   0.774   9.377
 1198WAT     H1 3836   4.981   0.855   9.349
 1198WAT     H2 3837   4.924   0.711   9.300
 1199WAT      O 3838   7.822   8.689   9.430
 1199WAT     H1 3839   7.884   8.654   9.500
 1199WAT     H2 3840   7.744   8.627   9.422
 1200WAT      O 3841   6.003   7.708   3.848
 1200WAT     H1 3842   6.043   7.617   3.839
 1200WAT     H2 3843   6.002   7.754   3.759
 1201WAT      O 3844   0.165   7.276   2.665
 1201WAT     H1 3845   0.220   7.193   2.659
 1201WAT     H2 3846   0.073   7.258   2.629
 1202WAT      O 3847   8.214   3.205   5.287
 1202WAT     H1 3848   8.265   3.120   5.284
 1202WAT     H2 3849   8.140   3.197   5.355
 1203WAT      O 3850   8.095   0.576   9.300
 1203WAT     H1 3851   8.107   0.629   9.216
 1203WAT     H2 3852   8.060   0.485   9.277
 1204WAT      O 3853   4.469   8.146   4.149
 1204WAT     H1 3854   4.428   8.220   4.097
 1204WAT     H2 3855   4.418   8.061   4.133
 1205WAT      O 3856   1.250   5.588   5.284
 1205WAT     H1 3857   1.329   5.622   5.335
 1205WAT     H2 3858   1.250   5.488   5.283
 1206WAT      O 3859   4.169   5.630   3.094
 1206WAT     H1 3860   4.258   5.656   3.133
 1206WAT     H2 3861   4.112   5.712   3.086
 1207WAT      O 3862   7.690   6.808   0.498
 1207WAT     H1 3863   7.659   6.748   0.571
 1207WAT     H2 3864   7.699   6.755   0.413
 1208WAT      O 3865   9.358   5.662   5.789
 1208WAT     H1 3866   9.278   5.722   5.793
 1208WAT     H2 3867   9.440   5.718   5.778
 1209WAT      O 3868   1.022   7.403   7.282
 1209WAT     H1 3869   0.932   7.380   7.320
 1209WAT     H2 3870   1.090   7.338   7.316
 1210WAT      O 3871   2.974   3.087   9.060
 1210WAT     H1 3872   2.933   3.178   9.062
 1210WAT     H2 3873   3.035   3.079   8.981
 1211WAT      O 3874   6.138   2.572   3.820
 1211WAT     H1 3875   6.220   2.623   3.843
 1211WAT     H2 3876   6.058   2.632   3.828
 1212WAT      O 3877   6.537   5.223   0.738
 1212WAT     H1 3878   6.495   5.285   0.671
 1212WAT     H2 3879   6.635   5.216   0.720
 1213WAT      O 3880   7.957   6.097   1.075
 1213WAT     H1 3881   7.919   6.041   1.001
 1213WAT     H2 3882   8.043   6.057   1.106
 1214WAT      O 3883   1.533   6.804   2.666
 1214WAT     H1 3884   1.499   6.896   2.649
 1214WAT     H2 3885   1.505   6.775   2.758
 1215WAT      O 3886   7.157   1.850   0.229
 1215WAT     H1 3887   7.107   1.915   0.172
 1215WAT     H2 3888   7.140   1.757   0.196
 1216WAT      O 3889   2.519   4.091   2.015
 1216WAT     H1 3890   2.512   4.013   1.952
 1216WAT     H2 3891   2.568   4.063   2.098
 1217WAT      O 3892   0.083   5.376   8.235
 1217WAT     H1 3893  -0.014   5.353   8.240
 1217WAT     H2 3894   0.093   5.476   8.227
 1218WAT      O 3895   4.425   7.636   5.408
 1218WAT     H1 3896   4.523   7.619   5.411
 1218WAT     H2 3897   4.406   7.730   5.437
 1219WAT      O 3898   7.274   3.179   9.796
 1219WAT     H1 3899   7.295   3.238   9.874
 1219WAT     H2 3900   7.196   3.120   9.819
 1220WAT      O 3901   5.676   4.035   3.843
 1220WAT     H1 3902   5.654   4.042   3.940
 1220WAT     H2 3903   5.750   4.099   3.821
 1221WAT      O 3904   6.289   1.304   2.220
 1221WAT     H1 3905   6.228   1.268   2.150
 1221WAT     H2 3906   6.312   1.399   2.198
 1222WAT      O 3907   4.725   2.073   5.177
 1222WAT     H1 3908   4.668   2.059   5.258
 1222WAT     H2 3909   4.683   2.140   5.117
 1223WAT      O 3910   3.787   3.615   9.253
 1223WAT     H1 3911   3.833   3.576   9.333
 1223WAT     H2 3912   3.749   3.705   9.278
 1224WAT      O 3913   2.215   3.295   3.899
 1224WAT     H1 3914   2.154   3.216   3.890
 1224WAT     H2 3915   2.308   3.262   3.919
 1225WAT      O 3916   7.199   1.129   8.347
 1225WAT     H1 3917   7.189   1.203   8.280
 1225WAT     H2 3918   7.162   1.045   8.309
 1226WAT      O 3919   3.090   6.293   9.448
 1226WAT     H1 3920   3.165   6.359   9.457
 1226WAT     H2 3921   3.015   6.318   9.510
 1227WAT      O 3922   2.551   6.054   7.394
 1227WAT     H1 3923   2.493   5.972   7.390
 1227WAT     H2 3924   2.605   6.051   7.478
 1228WAT      O 3925   9.294   1.370   2.079
 1228WAT     H1 3926   9.223   1.315   2.122
 1228WAT     H2 3927   9.264   1.466   2.075
 1229WAT      O 3928   4.063   7.779   5.294
 1229WAT     H1 3929   3.987   7.760   5.232
 1229WAT     H2 3930   4.028   7.819   5.378
 1230WAT      O 3931   7.405   9.295   2.814
 1230WAT     H1 3932   7.424   9.202   2.844
 1230WAT     H2 3933   7.462   9.359   2.866
 1231WAT      O 3934   2.740   2.680   4.560
 1231WAT     H1 3935   2.708   2.764   4.517
 1231WAT     H2 3936   2.666   2.641   4.615
 1232WAT      O 3937   5.636   3.422   8.436
 1232WAT     H1 3938   5.727   3.381   8.435
 1232WAT     H2 3939   5.592   3.405   8.525
 1233WAT      O 3940   0.642   8.605   2.332
 1233WAT     H1 3941   0.707   8.584   2.404
 1233WAT     H2 3942   0.565   8.542   2.336
 1234WAT      O 3943   7.664   3.035   4.300
 1234WAT     H1 3944   7.620   2.971   4.363
 1234WAT     H2 3945   7.612   3.121   4.297
 1235WAT      O 3946   7.113   0.008   6.176
 1235WAT     H1 3947   7.056  -0.068   6.143
 1235WAT     H2 3948   7.104   0.086   6.114
 1236WAT      O 3949   8.321   2.747   2.841
 1236WAT     H1 3950   8.395   2.683   2.862
 1236WAT     H2 3951   8.293   2.794   2.924
 1237WAT      O 3952   4.310   1.327   2.292
 1237WAT     H1 3953   4.341   1.261   2.360
 1237WAT     H2 3954   4.387   1.383   2.262
 1238WAT      O 3955   6.103   7.792   4.075
 1238WAT     H1 3956   6.059   7.736   4.145
 1238WAT     H2 3957   6.061   7.773   3.986
 1239WAT      O 3958   6.424   9.540   1.507
 1239WAT     H1 3959   6.522   9.551   1.493
 1239WAT     H2 3960   6.377   9.538   1.419
 1240WAT      O 3961   6.902   3.735   4.510
 1240WAT     H1 3962   6.844   3.775   4.581
 1240WAT     H2 3963   6.905   3.636   4.522
 1241WAT      O 3964   7.513   5.548   2.627
 1241WAT     H1 3965   7.611   5.564   2.612
 1241WAT     H2 3966   7.474   5.501   2.548
 1242WAT      O 3967   7.739   7.017   3.258
 1242WAT     H1 3968   7.793   7.084   3.206
 1242WAT     H2 3969   7.797   6.940   3.284
 1243WAT      O 3970   8.099   3.800   4.526
 1243WAT     H1 3971   8.070   3.895   4.523
 1243WAT     H2 3972   8.181   3.788   4.470
 1244WAT      O 3973   6.554   5.166   9.236
 1244WAT     H1 3974   6.608   5.086   9.260
 1244WAT     H2 3975   6.594   5.248   9.277
 1245WAT      O 3976   3.161   7.766   3.014
 1245WAT     H1 3977   3.116   7.750   2.926
 1245WAT     H2 3978   3.130   7.697   3.079
 1246WAT      O 3979   2.489   6.584   0.944
 1246WAT     H1 3980   2.572   6.640   0.943
 1246WAT     H2 3981   2.443   6.593   1.032
 1247WAT      O 3982   1.383   4.625   2.822
 1247WAT     H1 3983   1.462   4.616   2.882
 1247WAT     H2 3984   1.389   4.557   2.749
 1248WAT      O 3985   7.371   7.427   9.635
 1248WAT     H1 3986   7.459   7.391   9.665
 1248WAT     H2 3987   7.297   7.389   9.691
 1249WAT      O 3988   3.801   4.022   7.979
 1249WAT     H1 3989   3.808   3.936   8.030
 1249WAT     H2 3990   3.792   4.002   7.881
 1250WAT      O 3991   8.983   5.547   0.907
 1250WAT     H1 3992   9.031   5.632   0.931
 1250WAT     H2 3993   8.887   5.555   0.933
 1251WAT      O 3994   9.269   3.681   4.645
 1251WAT     H1 3995   9.334   3.735   4.698
 1251WAT     H2 3996   9.317   3.637   4.569
 1252WAT      O 3997   8.220   8.269   4.652
 1252WAT     H1 3998   8.319   8.257   4.655
 1252WAT     H2 3999   8.198   8.367   4.650
 1253WAT      O 4000   3.360   4.760   9.693
 1253WAT     H1 4001   3.318   4.686   9.641
 1253WAT     H2 4002   3.311   4.846   9.676
 1254WAT      O 4003   6.244   7.288   8.633
 1254WAT     H1 4004   6.181   7.211   8.640
 1254WAT     H2 4005   6.229   7.335   8.546
 1255WAT      O 4006   4.721   3.689   7.054
 1255WAT     H1 4007   4.778   3.665   7.132
 1255WAT     H2 4008   4.635   3.728   7.085
 1256WAT      O 4009   0.301   5.267   3.827
 1256WAT     H1 4010   0.376   5.328   3.854
 1256WAT     H2 4011   0.234   5.262   3.901
 1257WAT      O 4012   8.297   7.039   2.760
 1257WAT     H1 4013   8.299   7.073   2.666
 1257WAT     H2 4014   8.218   7.078   2.808
 1258WAT      O 4015   2.641   1.241   6.570
 1258WAT     H1 4016   2.642   1.281   6.478
 1258WAT     H2 4017   2.594   1.303   6.633
 1259WAT      O 4018   4.200   7.200   1.046
 1259WAT     H1 4019   4.173   7.199   0.949
 1259WAT     H2 4020   4.274   7.265   1.059
 1260WAT      O 4021   7.279   6.632   5.354
 1260WAT     H1 4022   7.236   6.549   5.317
 1260WAT     H2 4023   7.379   6.621   5.353
 1261WAT      O 4024   3.902   3.879   6.762
 1261WAT     H1 4025   3.944   3.791   6.740
 1261WAT     H2 4026   3.958   3.927   6.828
 1262WAT      O 4027   2.123   6.790   8.295
 1262WAT     H1 4028   2.182   6.867   8.320
 1262WAT     H2 4029   2.096   6.798   8.199
 1263WAT      O 4030   7.022   7.408   1.027
 1263WAT     H1 4031   6.950   7.416   0.958
 1263WAT     H2 4032   7.042   7.498   1.065
 1264WAT      O 4033   8.613   3.059   2.756
 1264WAT     H1 4034   8.579   2.978   2.707
 1264WAT     H2 4035   8.594   3.049   2.854
 1265WAT      O 4036   7.275   6.216   9.321
 1265WAT     H1 4037   7.206   6.246   9.255
 1265WAT     H2 4038   7.362   6.201   9.275
 1266WAT      O 4039   0.852   6.027   9.315
 1266WAT     H1 4040   0.897   6.068   9.235
 1266WAT     H2 4041   0.900   6.056   9.398
 1267WAT      O 4042   7.398   9.569   1.922
 1267WAT     H1 4043   7.323   9.516   1.963
 1267WAT     H2 4044   7.476   9.570   1.984
 1268WAT      O 4045   8.985   5.247   9.207
 1268WAT     H1 4046   8.908   5.310   9.221
 1268WAT     H2 4047   8.999   5.233   9.109
 1269WAT      O 4048   2.881   7.066   9.608
 1269WAT     H1 4049   2.786   7.048   9.633
 1269WAT     H2 4050   2.940   7.046   9.686
 1270WAT      O 4051   7.089   1.205   9.719
 1270WAT     H1 4052   7.174   1.177   9.764
 1270WAT     H2 4053   7.094   1.183   9.621
 1271WAT      O 4054   2.702   9.152   3.842
 1271WAT     H1 4055   2.630   9.130   3.777
 1271WAT     H2 4056   2.776   9.085   3.834
 1272WAT      O 4057   8.129   7.499   4.493
 1272WAT     H1 4058   8.208   7.559   4.493
 1272WAT     H2 4059   8.088   7.498   4.401
 1273WAT      O 4060   1.278   6.468   2.797
 1273WAT     H1 4061   1.222   6.518   2.863
 1273WAT     H2 4062   1.371   6.503   2.798
 1274WAT      O 4063   0.984   4.341   3.446
 1274WAT     H1 4064   0.962   4.412   3.379
 1274WAT     H2 4065   1.063   4.370   3.501
 1275WAT      O 4066   3.918   4.687   9.251
 1275WAT     H1 4067   3.957   4.711   9.162
 1275WAT     H2 4068   3.831   4.733   9.263
 1276WAT      O 4069   5.313   1.928   1.302
 1276WAT     H1 4070   5.310   1.840   1.255
 1276WAT     H2 4071   5.235   1.935   1.364
 1277WAT      O 4072   9.791   1.435   4.433
 1277WAT     H1 4073   9.700   1.394   4.430
 1277WAT     H2 4074   9.817   1.452   4.528
 1278WAT      O 4075   0.902   6.963   3.369
 1278WAT     H1 4076   0.839   6.995   3.298
 1278WAT     H2 4077   0.861   6.975   3.459
 1279WAT      O 4078   3.976   9.233   6.703
 1279WAT     H1 4079   4.059   9.208   6.654
 1279WAT     H2 4080   3.913   9.280   6.641
 1280WAT      O 4081   5.759   6.494   6.078
 1280WAT     H1 4082   5.787   6.543   5.996
 1280WAT     H2 4083   5.770   6.555   6.158
 1281WAT      O 4084   6.495   8.727   0.073
 1281WAT     H1 4085   6.497   8.642   0.127
 1281WAT     H2 4086   6.400   8.754   0.059
 1282WAT      O 4087   9.134   2.666   5.144
 1282WAT     H1 4088   9.088   2.625   5.065
 1282WAT     H2 4089   9.182   2.594   5.195
 1283WAT      O 4090   9.728   8.013   2.307
 1283WAT     H1 4091   9.782   8.085   2.351
 1283WAT     H2 4092   9.658   8.054   2.249
 1284WAT      O 4093   6.139   6.906   1.616
 1284WAT     H1 4094   6.176   6.843   1.685
 1284WAT     H2 4095   6.181   6.996   1.627
 1285WAT      O 4096   1.006   8.581   4.682
 1285WAT     H1 4097   1.080   8.648   4.673
 1285WAT     H2 4098   0.961   8.592   4.771
 1286WAT      O 4099   7.300   1.397   0.390
 1286WAT     H1 4100   7.208   1.425   0.414
 1286WAT     H2 4101   7.308   1.298   0.395
 1287WAT      O 4102   1.248   6.006   0.614
 1287WAT     H1 4103   1.306   5.937   0.571
 1287WAT     H2 4104   1.152   5.987   0.592
 1288WAT      O 4105   4.895   7.514   1.395
 1288WAT     H1 4106   4.905   7.609   1.427
 1288WAT     H2 4107   4.858   7.515   1.302
 1289WAT      O 4108   8.588   7.636   1.576
 1289WAT     H1 4109   8.580   7.652   1.674
 1289WAT     H2 4110   8.684   7.620   1.552
 1290WAT      O 4111   5.708   5.560   5.868
 1290WAT     H1 4112   5.651   5.488   5.830
 1290WAT     H2 4113   5.762   5.602   5.795
 1291WAT      O 4114   3.297   4.116   1.351
 1291WAT     H1 4115   3.265   4.073   1.266
 1291WAT     H2 4116   3.219   4.130   1.412
 1292WAT      O 4117   2.250   3.124   0.759
 1292WAT     H1 4118   2.207   3.194   0.816
 1292WAT     H2 4119   2.349   3.128   0.770
 1293WAT      O 4120   5.656   7.504   4.150
 1293WAT     H1 4121   5.709   7.469   4.073
 1293WAT     H2 4122   5.574   7.447   4.163
 1294WAT      O 4123   5.636   5.882   9.249
 1294WAT     H1 4124   5.698   5.942   9.198
 1294WAT     H2 4125   5.658   5.887   9.347
 1295WAT      O 4126   2.021   5.731   9.820
 1295WAT     H1 4127   1.937   5.779   9.844
 1295WAT     H2 4128   2.099   5.792   9.834
 1296WAT      O 4129   9.382   7.394   8.734
 1296WAT     H1 4130   9.422   7.422   8.646
 1296WAT     H2 4131   9.283   7.384   8.723
 1297WAT      O 4132   4.027   1.339   7.631
 1297WAT     H1 4133   3.954   1.272   7.617
 1297WAT     H2 4134   4.000   1.427   7.591
 1298WAT      O 4135   4.362   9.285   3.641
 1298WAT     H1 4136   4.422   9.222   3.691
 1298WAT     H2 4137   4.395   9.294   3.547
 1299WAT      O 4138   4.742   9.560   9.278
 1299WAT     H1 4139   4.741   9.635   9.212
 1299WAT     H2 4140   4.729   9.473   9.230
 1300WAT      O 4141   0.684   3.249   1.832
 1300WAT     H1 4142   0.646   3.161   1.861
 1300WAT     H2 4143   0.648   3.322   1.891
 1301WAT      O 4144   1.305   2.147   5.569
 1301WAT     H1 4145   1.277   2.052   5.558
 1301WAT     H2 4146   1.244   2.192   5.634
 1302WAT      O 4147   8.052   8.797   5.239
 1302WAT     H1 4148   8.124   8.796   5.170
 1302WAT     H2 4149   8.068   8.722   5.304
 1303WAT      O 4150   0.865   5.353   6.403
 1303WAT     H1 4151   0.827   5.279   6.458
 1303WAT     H2 4152   0.965   5.347   6.402
 1304WAT      O 4153   6.488   0.676   7.580
 1304WAT     H1 4154   6.557   0.608   7.606
 1304WAT     H2 4155   6.501   0.759   7.635
 1305WAT      O 4156   9.507   7.008   7.538
 1305WAT     H1 4157   9.459   6.949   7.473
 1305WAT     H2 4158   9.440   7.066   7.584
 1306WAT      O 4159   9.625   9.380   2.708
 1306WAT     H1 4160   9.673   9.462   2.738
 1306WAT     H2 4161   9.614   9.383   2.608
 1307WAT      O 4162   9.295   3.082   1.517
 1307WAT     H1 4163   9.315   3.179   1.531
 1307WAT     H2 4164   9.291   3.063   1.418
 1308WAT      O 4165   7.383   4.341   0.140
 1308WAT     H1 4166   7.475   4.378   0.129
 1308WAT     H2 4167   7.364   4.276   0.066
 1309WAT      O 4168   1.035   9.819   0.756
 1309WAT     H1 4169   1.102   9.856   0.820
 1309WAT     H2 4170   0.995   9.735   0.795
 1310WAT      O 4171   9.821   2.348   2.418
 1310WAT     H1 4172   9.884   2.275   2.391
 1310WAT     H2 4173   9.727   2.319   2.398
 1311WAT      O 4174   8.564   6.735   3.109
 1311WAT     H1 4175   8.640   6.725   3.046
 1311WAT     H2 4176   8.484   6.769   3.059
 1312WAT      O 4177   0.328   6.149   2.359
 1312WAT     H1 4178   0.327   6.085   2.283
 1312WAT     H2 4179   0.351   6.100   2.443
 1313WAT      O 4180   7.649   1.749   4.839
 1313WAT     H1 4181   7.691   1.658   4.842
 1313WAT     H2 4182   7.550   1.739   4.832
 1314WAT      O 4183   7.861   3.343   6.263
 1314WAT     H1 4184   7.836   3.428   6.217
 1314WAT     H2 4185   7.931   3.296   6.211
 1315WAT      O 4186   4.281   5.791   0.007
 1315WAT     H1 4187   4.240   5.861   0.065
 1315WAT     H2 4188   4.210   5.727  -0.024
 1316WAT      O 4189   5.657   7.308   7.760
 1316WAT     H1 4190   5.638   7.314   7.662
 1316WAT     H2 4191   5.600   7.237   7.800
 1317WAT      O 4192   9.230   9.752   3.098
 1317WAT     H1 4193   9.252   9.806   3.178
 1317WAT     H2 4194   9.133   9.726   3.101
 1318WAT      O 4195   8.407   4.813   9.319
 1318WAT     H1 4196   8.353   4.846   9.397
 1318WAT     H2 4197   8.394   4.715   9.308
 1319WAT      O 4198   7.223   7.482   7.616
 1319WAT     H1 4199   7.139   7.430   7.624
 1319WAT     H2 4200   7.297   7.422   7.586
 1320WAT      O 4201   7.676   4.408   8.120
 1320WAT     H1 4202   7.752   4.365   8.169
 1320WAT     H2 4203   7.635   4.342   8.057
 1321WAT      O 4204   0.922   7.608   2.147
 1321WAT     H1 4205   0.853   7.629   2.216
 1321WAT     H2 4206   0.889   7.637   2.057
 1322WAT      O 4207   5.194   9.537   8.064
 1322WAT     H1 4208   5.135   9.485   8.001
 1322WAT     H2 4209   5.173   9.510   8.158
 1323WAT      O 4210   7.925   0.013   0.479
 1323WAT     H1 4211   7.994   0.055   0.538
 1323WAT     H2 4212   7.863  -0.042   0.534
 1324WAT      O 4213   9.278   1.071   2.302
 1324WAT     H1 4214   9.210   1.085   2.231
 1324WAT     H2 4215   9.252   1.121   2.385
 1325WAT      O 4216   5.865   8.116   5.815
 1325WAT     H1 4217   5.793   8.050   5.795
 1325WAT     H2 4218   5.889   8.111   5.912
 1326WAT      O 4219   0.887   6.284   4.199
 1326WAT     H1 4220   0.854   6.355   4.261
 1326WAT     H2 4221   0.861   6.307   4.105
 1327WAT      O 4222   3.063   5.879   9.199
 1327WAT     H1 4223   3.121   5.873   9.280
 1327WAT     H2 4224   3.093   5.956   9.142
 1328WAT      O 4225   3.294   7.454   4.425
 1328WAT     H1 4226   3.204   7.496   4.432
 1328WAT     H2 4227   3.315   7.406   4.510
 1329WAT      O 4228   4.972   3.425   5.953
 1329WAT     H1 4229   4.948   3.343   6.004
 1329WAT     H2 4230   5.018   3.490   6.013
 1330WAT      O 4231   0.698   4.380   0.329
 1330WAT     H1 4232   0.780   4.438   0.331
 1330WAT     H2 4233   0.725   4.286   0.308
 1331WAT      O 4234   6.557   6.915   4.825
 1331WAT     H1 4235   6.654   6.900   4.804
 1331WAT     H2 4236   6.502   6.892   4.745
 1332WAT      O 4237   1.380   8.118   7.227
 1332WAT     H1 4238   1.307   8.058   7.258
 1332WAT     H2 4239   1.342   8.206   7.200
 1333WAT      O 4240   3.774   7.417   9.333
 1333WAT     H1 4241   3.715   7.345   9.371
 1333WAT     H2 4242   3.862   7.415   9.380
 1334WAT      O 4243   8.624   2.864   3.880
 1334WAT     H1 4244   8.580   2.862   3.969
 1334WAT     H2 4245   8.639   2.770   3.848
 1335WAT      O 4246   8.782   9.005   8.022
 1335WAT     H1 4247   8.690   9.036   8.046
 1335WAT     H2 4248   8.845   9.030   8.095
 1336WAT      O 4249   8.501   1.682   5.213
 1336WAT     H1 4250   8.415   1.720   5.247
 1336WAT     H2 4251   8.490   1.584   5.198
 1337WAT      O 4252   2.802   9.410   0.178
 1337WAT     H1 4253   2.707   9.439   0.164
 1337WAT     H2 4254   2.827   9.345   0.106
 1338WAT      O 4255   7.169   0.743   7.457
 1338WAT     H1 4256   7.232   0.759   7.381
 1338WAT     H2 4257   7.132   0.650   7.451
 1339WAT      O 4258   5.366   1.771   9.355
 1339WAT     H1 4259   5.435   1.701   9.374
 1339WAT     H2 4260   5.334   1.811   9.441
 1340WAT      O 4261   0.192   2.068   0.216
 1340WAT     H1 4262   0.155   1.975   0.217
 1340WAT     H2 4263   0.214   2.094   0.122
 1341WAT      O 4264   3.417   5.885   0.734
 1341WAT     H1 4265   3.438   5.863   0.830
 1341WAT     H2 4266   3.334   5.940   0.730
 1342WAT      O 4267   5.716   7.142   6.039
 1342WAT     H1 4268   5.662   7.079   6.094
 1342WAT     H2 4269   5.656   7.194   5.979
 1343WAT      O 4270   2.593   8.142   7.978
 1343WAT     H1 4271   2.620   8.223   7.926
 1343WAT     H2 4272   2.656   8.128   8.054
 1344WAT      O 4273   7.262   4.837   7.810
 1344WAT     H1 4274   7.242   4.739   7.806
 1344WAT     H2 4275   7.319   4.862   7.732
 1345WAT      O 4276   0.616   6.337   7.377
 1345WAT     H1 4277   0.517   6.334   7.387
 1345WAT     H2 4278   0.658   6.365   7.463
 1346WAT      O 4279   7.153   2.568   5.725
 1346WAT     H1 4280   7.211   2.493   5.692
 1346WAT     H2 4281   7.137   2.557   5.823
 1347WAT      O 4282   4.142   3.592   1.097
 1347WAT     H1 4283   4.234   3.570   1.130
 1347WAT     H2 4284   4.108   3.518   1.040
 1348WAT      O 4285   2.112   6.320   0.169
 1348WAT     H1 4286   2.194   6.320   0.227
 1348WAT     H2 4287   2.060   6.236   0.185
 1349WAT      O 4288   4.669   6.315   3.680
 1349WAT     H1 4289   4.577   6.323   3.720
 1349WAT     H2 4290   4.711   6.405   3.674
 1350WAT      O 4291   5.884   5.139   7.389
 1350WAT     H1 4292   5.894   5.095   7.300
 1350WAT     H2 4293   5.920   5.080   7.460
 1351WAT      O 4294   6.098   0.240   0.990
 1351WAT     H1 4295   6.104   0.166   1.057
 1351WAT     H2 4296   6.120   0.327   1.035
 1352WAT      O 4297   9.699   7.438   2.736
 1352WAT     H1 4298   9.652   7.366   2.788
 1352WAT     H2 4299   9.672   7.433   2.640
 1353WAT      O 4300   1.563   4.357   1.536
 1353WAT     H1 4301   1.508   4.394   1.461
 1353WAT     H2 4302   1.526   4.390   1.623
 1354WAT      O 4303   9.521   4.475   8.232
 1354WAT     H1 4304   9.620   4.464   8.232
 1354WAT     H2 4305   9.491   4.507   8.321
 1355WAT      O 4306   5.981   1.501   3.392
 1355WAT     H1 4307   6.047   1.494   3.467
 1355WAT     H2 4308   6.027   1.485   3.305
 1356WAT      O 4309   5.830   7.722   5.695
 1356WAT     H1 4310   5.882   7.674   5.766
 1356WAT     H2 4311   5.888   7.735   5.615
 1357WAT      O 4312   4.361   6.964   1.951
 1357WAT     H1 4313   4.264   6.979   1.932
 1357WAT     H2 4314   4.405   7.052   1.970
 1358WAT      O 4315   9.135   4.772   3.736
 1358WAT     H1 4316   9.073   4.757   3.659
 1358WAT     H2 4317   9.081   4.794   3.818
 1359WAT      O 4318   0.452   0.469   3.160
 1359WAT     H1 4319   0.550   0.483   3.146
 1359WAT     H2 4320   0.422   0.392   3.103
 1360WAT      O 4321   0.157   8.977   1.703
 1360WAT     H1 4322   0.057   8.969   1.700
 1360WAT     H2 4323   0.195   8.958   1.613
 1361WAT      O 4324   5.584   1.495   3.864
 1361WAT     H1 4325   5.526   1.536   3.934
 1361WAT     H2 4326   5.530   1.476   3.782
 1362WAT      O 4327   9.834   2.332   1.358
 1362WAT     H1 4328   9.812   2.363   1.450
 1362WAT     H2 4329   9.750   2.326   1.304
 1363WAT      O 4330   5.397   1.523   7.043
 1363WAT     H1 4331   5.411   1.472   6.958
 1363WAT     H2 4332   5.444   1.611   7.037
 1364WAT      O 4333   3.934   2.869   8.374
 1364WAT     H1 4334   4.012   2.888   8.433
 1364WAT     H2 4335   3.896   2.955   8.340
 1365WAT      O 4336   4.959   0.574   5.701
 1365WAT     H1 4337   5.007   0.656   5.733
 1365WAT     H2 4338   4.934   0.518   5.780
 1366WAT      O 4339   3.272   0.912   8.911
 1366WAT     H1 4340   3.218   0.971   8.971
 1366WAT     H2 4341   3.367   0.909   8.945
 1367WAT      O 4342   2.871   0.464   5.170
 1367WAT     H1 4343   2.964   0.431   5.161
 1367WAT     H2 4344   2.832   0.478   5.079
 1368WAT      O 4345   1.789   8.881   7.012
 1368WAT     H1 4346   1.695   8.896   6.983
 1368WAT     H2 4347   1.800   8.909   7.107
 1369WAT      O 4348   6.800   0.821   3.866
 1369WAT     H1 4349   6.708   0.792   3.893
 1369WAT     H2 4350   6.802   0.920   3.853
 1370WAT      O 4351   9.136   3.698   2.083
 1370WAT     H1 4352   9.224   3.730   2.048
 1370WAT     H2 4353   9.133   3.711   2.182
 1371WAT      O 4354   9.008   5.478   5.770
 1371WAT     H1 4355   9.010   5.575   5.749
 1371WAT     H2 4356   8.917   5.441   5.752
 1372WAT      O 4357   2.245   8.243   0.737
 1372WAT     H1 4358   2.325   8.250   0.797
 1372WAT     H2 4359   2.240   8.325   0.680
 1373WAT      O 4360   4.394   4.819   0.357
 1373WAT     H1 4361   4.481   4.783   0.393
 1373WAT     H2 4362   4.345   4.745   0.312
 1374WAT      O 4363   2.977   4.244   6.011
 1374WAT     H1 4364   2.913   4.321   6.011
 1374WAT     H2 4365   2.935   4.165   6.056
 1375WAT      O 4366   1.743   2.439   2.485
 1375WAT     H1 4367   1.793   2.439   2.572
 1375WAT     H2 4368   1.649   2.470   2.501
 1376WAT      O 4369   5.304   3.083   4.028
 1376WAT     H1 4370   5.335   3.167   3.983
 1376WAT     H2 4371   5.226   3.104   4.086
 1377WAT      O 4372   8.302   0.355   7.693
 1377WAT     H1 4373   8.355   0.365   7.777
 1377WAT     H2 4374   8.349   0.291   7.632
 1378WAT      O 4375   4.313   7.175   7.174
 1378WAT     H1 4376   4.320   7.241   7.249
 1378WAT     H2 4377   4.330   7.083   7.209
 1379WAT      O 4378   2.861   0.835   2.369
 1379WAT     H1 4379   2.858   0.927   2.407
 1379WAT     H2 4380   2.956   0.805   2.360
 1380WAT      O 4381   2.197   5.450   6.396
 1380WAT     H1 4382   2.106   5.438   6.356
 1380WAT     H2 4383   2.258   5.493   6.329
 1381WAT      O 4384   3.980   6.711   3.594
 1381WAT     H1 4385   3.949   6.706   3.689
 1381WAT     H2 4386   3.931   6.644   3.538
 1382WAT      O 4387   8.653   3.706   1.147
 1382WAT     H1 4388   8.558   3.739   1.145
 1382WAT     H2 4389   8.656   3.612   1.113
 1383WAT      O 4390   9.593   4.716   8.749
 1383WAT     H1 4391   9.652   4.723   8.669
 1383WAT     H2 4392   9.582   4.807   8.791
 1384WAT      O 4393   3.934   4.717   0.254
 1384WAT     H1 4394   3.896   4.628   0.233
 1384WAT     H2 4395   3.881   4.761   0.327
 1385WAT      O 4396   3.143   9.043   2.082
 1385WAT     H1 4397   3.137   9.047   2.182
 1385WAT     H2 4398   3.164   9.134   2.047
 1386WAT      O 4399   6.423   2.817   3.231
 1386WAT     H1 4400   6.455   2.793   3.140
 1386WAT     H2 4401   6.502   2.831   3.291
 1387WAT      O 4402   5.435   4.440   4.608
 1387WAT     H1 4403   5.448   4.472   4.701
 1387WAT     H2 4404   5.387   4.352   4.609
 1388WAT      O 4405   4.460   2.144   2.341
 1388WAT     H1 4406   4.455   2.244   2.340
 1388WAT     H2 4407   4.450   2.109   2.248
 1389WAT      O 4408   9.716   3.352   0.163
 1389WAT     H1 4409   9.697   3.277   0.099
 1389WAT     H2 4410   9.697   3.440   0.117
 1390WAT      O 4411   9.604   8.620   3.678
 1390WAT     H1 4412   9.653   8.546   3.631
 1390WAT     H2 4413   9.668   8.670   3.738
 1391WAT      O 4414   3.846   3.548   6.216
 1391WAT     H1 4415   3.900   3.587   6.291
 1391WAT     H2 4416   3.769   3.609   6.195
 1392WAT      O 4417   5.672   7.403   8.628
 1392WAT     H1 4418   5.668   7.384   8.726
 1392WAT     H2 4419   5.689   7.317   8.578
 1393WAT      O 4420   6.819   7.932   2.306
 1393WAT     H1 4421   6.728   7.969   2.289
 1393WAT     H2 4422   6.812   7.837   2.337
 1394WAT      O 4423   0.897   8.357   7.468
 1394WAT     H1 4424   0.930   8.427   7.405
 1394WAT     H2 4425   0.972   8.297   7.493
 1395WAT      O 4426   5.039   3.707   7.998
 1395WAT     H1 4427   5.016   3.625   7.945
 1395WAT     H2 4428   4.955   3.758   8.018
 1396WAT      O 4429   5.981   4.081   4.690
 1396WAT     H1 4430   6.025   4.064   4.602
 1396WAT     H2 4431   6.003   4.007   4.754
 1397WAT      O 4432   1.815   4.917   3.754
 1397WAT     H1 4433   1.777   5.009   3.744
 1397WAT     H2 4434   1.895   4.920   3.813
 1398WAT      O 4435   9.447   3.428   7.516
 1398WAT     H1 4436   9.534   3.474   7.499
 1398WAT     H2 4437   9.373   3.495   7.513
 1399WAT      O 4438   6.192   1.745   4.994
 1399WAT     H1 4439   6.264   1.801   4.953
 1399WAT     H2 4440   6.231   1.663   5.035
 1400WAT      O 4441   2.525   1.185   0.540
 1400WAT     H1 4442   2.585   1.196   0.460
 1400WAT     H2 4443   2.432   1.211   0.516
 1401WAT      O 4444   4.701   5.318   7.289
 1401WAT     H1 4445   4.632   5.389   7.280
 1401WAT     H2 4446   4.669   5.234   7.246
 1402WAT      O 4447   3.488   7.287   8.207
 1402WAT     H1 4448   3.487   7.321   8.113
 1402WAT     H2 4449   3.395   7.263   8.235
 1403WAT      O 4450   4.184   2.648   7.629
 1403WAT     H1 4451   4.139   2.675   7.544
 1403WAT     H2 4452   4.211   2.729   7.680
 1404WAT      O 4453   4.589   9.054   0.444
 1404WAT     H1 4454   4.668   9.103   0.481
 1404WAT     H2 4455   4.581   8.965   0.490
 1405WAT      O 4456   2.511   1.377   3.616
 1405WAT     H1 4457   2.465   1.417   3.537
 1405WAT     H2 4458   2.596   1.332   3.587
 1406WAT      O 4459   2.741   2.015   7.655
 1406WAT     H1 4460   2.707   2.092   7.602
 1406WAT     H2 4461   2.669   1.947   7.665
 1407WAT      O 4462   2.674   4.528   6.414
 1407WAT     H1 4463   2.699   4.445   6.464
 1407WAT     H2 4464   2.640   4.504   6.323
 1408WAT      O 4465   2.531   4.099   6.216
 1408WAT     H1 4466   2.608   4.087   6.278
 1408WAT     H2 4467   2.450   4.126   6.269
 1409WAT      O 4468   5.519   9.272   9.707
 1409WAT     H1 4469   5.557   9.189   9.666
 1409WAT     H2 4470   5.586   9.346   9.698
 1410WAT      O 4471   5.297   2.146   6.281
 1410WAT     H1 4472   5.279   2.058   6.236
 1410WAT     H2 4473   5.267   2.142   6.376
 1411WAT      O 4474   4.027   2.324   5.778
 1411WAT     H1 4475   4.028   2.356   5.683
 1411WAT     H2 4476   4.050   2.400   5.839
 1412WAT      O 4477   9.776   0.705   5.816
 1412WAT     H1 4478   9.827   0.627   5.781
 1412WAT     H2 4479   9.838   0.783   5.830
 1413WAT      O 4480   0.811   4.022   7.760
 1413WAT     H1 4481   0.773   3.995   7.672
 1413WAT     H2 4482   0.739   4.062   7.817
 1414WAT      O 4483   2.210   1.032   2.647
 1414WAT     H1 4484   2.278   1.078   2.590
 1414WAT     H2 4485   2.128   1.015   2.592
 1415WAT      O 4486   4.226   0.180   1.668
 1415WAT     H1 4487   4.166   0.136   1.734
 1415WAT     H2 4488   4.321   0.169   1.697
 1416WAT      O 4489   6.991   5.122   2.797
 1416WAT     H1 4490   7.013   5.217   2.816
 1416WAT     H2 4491   6.990   5.107   2.698
 1417WAT      O 4492   0.041   1.897   7.779
 1417WAT     H1 4493   0.087   1.813   7.752
 1417WAT     H2 4494   0.029   1.956   7.699
 1418WAT      O 4495   4.978   1.547   4.818
 1418WAT     H1 4496   4.978   1.448   4.831
 1418WAT     H2 4497   4.949   1.592   4.903
 1419WAT      O 4498   0.508   7.971   5.801
 1419WAT     H1 4499   0.591   7.988   5.749
 1419WAT     H2 4500   0.512   7.879   5.841
 1420WAT      O 4501   1.959   2.411   5.257
 1420WAT     H1 4502   1.911   2.360   5.329
 1420WAT     H2 4503   1.894   2.435   5.185
 1421WAT      O 4504   6.807   7.022   0.136
 1421WAT     H1 4505   6.903   7.047   0.148
 1421WAT     H2 4506   6.798   6.957   0.060
 1422WAT      O 4507   7.154   1.361   3.252
 1422WAT     H1 4508   7.081   1.429   3.256
 1422WAT     H2 4509   7.219   1.386   3.180
 1423WAT      O 4510   1.348   2.627   8.553
 1423WAT     H1 4511   1.306   2.564   8.488
 1423WAT     H2 4512   1.443   2.644   8.526
 1424WAT      O 4513   0.450   1.847   9.134
 1424WAT     H1 4514   0.472   1.929   9.187
 1424WAT     H2 4515   0.524   1.827   9.070
 1425WAT      O 4516   3.938   8.158   9.217
 1425WAT     H1 4517   3.850   8.119   9.190
 1425WAT     H2 4518   3.982   8.097   9.283
 1426WAT      O 4519   8.613   3.478   7.449
 1426WAT     H1 4520   8.607   3.439   7.357
 1426WAT     H2 4521   8.709   3.489   7.475
 1427WAT      O 4522   0.991   7.474   5.808
 1427WAT     H1 4523   0.978   7.530   5.889
 1427WAT     H2 4524   1.043   7.525   5.739
 1428WAT      O 4525   0.028   9.101   8.283
 1428WAT     H1 4526   0.093   9.100   8.207
 1428WAT     H2 4527   0.015   9.008   8.317
 1429WAT      O 4528   8.929   1.361   2.364
 1429WAT     H1 4529   8.899   1.266   2.363
 1429WAT     H2 4530   8.870   1.414   2.424
 1430WAT      O 4531   2.684   9.097   2.120
 1430WAT     H1 4532   2.760   9.086   2.057
 1430WAT     H2 4533   2.628   9.014   2.119
 1431WAT      O 4534   5.218   5.477   2.413
 1431WAT     H1 4535   5.159   5.396   2.412
 1431WAT     H2 4536   5.298   5.459   2.471
 1432WAT      O 4537   5.597   7.368   6.223
 1432WAT     H1 4538   5.682   7.371   6.170
 1432WAT     H2 4539   5.598   7.441   6.291
 1433WAT      O 4540   0.614   0.858   4.095
 1433WAT     H1 4541   0.678   0.881   4.168
 1433WAT     H2 4542   0.646   0.776   4.048
 1434WAT      O 4543   7.816   4.261   8.625
 1434WAT     H1 4544   7.825   4.240   8.723
 1434WAT     H2 4545   7.833   4.358   8.610
 1435WAT      O 4546   0.366   6.735   7.944
 1435WAT     H1 4547   0.315   6.650   7.931
 1435WAT     H2 4548   0.308   6.813   7.921
 1436WAT      O 4549   9.769   5.183   7.488
 1436WAT     H1 4550   9.787   5.150   7.581
 1436WAT     H2 4551   9.846   5.239   7.457
 1437WAT      O 4552   1.866   9.746   5.753
 1437WAT     H1 4553   1.894   9.836   5.786
 1437WAT     H2 4554   1.824   9.756   5.663
 1438WAT      O 4555   5.863   8.758   0.061
 1438WAT     H1 4556   5.891   8.835   0.119
 1438WAT     H2 4557   5.912   8.764  -0.026
 1439WAT      O 4558   6.924   6.164   3.431
 1439WAT     H1 4559   6.994   6.218   3.385
 1439WAT     H2 4560   6.834   6.202   3.412
 1440WAT      O 4561   7.465   4.585   2.804
 1440WAT     H1 4562   7.435   4.537   2.721
 1440WAT     H2 4563   7.419   4.673   2.810
 1441WAT      O 4564   6.443   6.832   6.395
 1441WAT     H1 4565   6.513   6.765   6.422
 1441WAT     H2 4566   6.363   6.822   6.453
 1442WAT      O 4567   0.342   4.132   0.521
 1442WAT     H1 4568   0.376   4.056   0.466
 1442WAT     H2 4569   0.404   4.209   0.514
 1443WAT      O 4570   4.636   2.053   8.208
 1443WAT     H1 4571   4.628   1.959   8.240
 1443WAT     H2 4572   4.730   2.085   8.220
 1444WAT      O 4573   7.104   8.796   7.750
 1444WAT     H1 4574   7.102   8.706   7.706
 1444WAT     H2 4575   7.129   8.785   7.847
 1445WAT      O 4576   7.032   1.046   8.855
 1445WAT     H1 4577   7.098   1.101   8.905
 1445WAT     H2 4578   7.052   1.051   8.757
 1446WAT      O 4579   0.832   6.021   7.801
 1446WAT     H1 4580   0.855   6.083   7.876
 1446WAT     H2 4581   0.781   6.072   7.731
 1447WAT      O 4582   8.640   4.812   0.738
 1447WAT     H1 4583   8.637   4.731   0.679
 1447WAT     H2 4584   8.548   4.851   0.746
 1448WAT      O 4585   1.623   0.133   4.383
 1448WAT     H1 4586   1.653   0.210   4.438
 1448WAT     H2 4587   1.536   0.155   4.339
 1449WAT      O 4588   6.336   2.429   7.159
 1449WAT     H1 4589   6.300   2.339   7.134
 1449WAT     H2 4590   6.424   2.443   7.115
 1450WAT      O 4591   2.249   8.978   6.775
 1450WAT     H1 4592   2.333   8.946   6.818
 1450WAT     H2 4593   2.259   8.976   6.675
 1451WAT      O 4594   8.408   2.968   8.323
 1451WAT     H1 4595   8.386   2.870   8.325
 1451WAT     H2 4596   8.373   3.008   8.239
 1452WAT      O 4597   9.737   8.235   8.683
 1452WAT     H1 4598   9.804   8.167   8.654
 1452WAT     H2 4599   9.781   8.301   8.744
 1453WAT      O 4600   7.435   2.192   8.274
 1453WAT     H1 4601   7.367   2.125   8.304
 1453WAT     H2 4602   7.493   2.218   8.351
 1454WAT      O 4603   9.488   5.200   0.211
 1454WAT     H1 4604   9.418   5.141   0.171
 1454WAT     H2 4605   9.477   5.201   0.311
 1455WAT      O 4606   2.749   2.258   1.925
 1455WAT     H1 4607   2.773   2.282   1.831
 1455WAT     H2 4608   2.823   2.286   1.987
 1456WAT      O 4609   9.648   6.376   1.965
 1456WAT     H1 4610   9.672   6.421   2.051
 1456WAT     H2 4611   9.600   6.441   1.906
 1457WAT      O 4612   4.001   3.209   5.509
 1457WAT     H1 4613   4.081   3.253   5.550
 1457WAT     H2 4614   3.991   3.239   5.415
 1458WAT      O 4615   4.811   3.550   2.102
 1458WAT     H1 4616   4.723   3.523   2.064
 1458WAT     H2 4617   4.797   3.618   2.174
 1459WAT      O 4618   1.301   4.462   5.128
 1459WAT     H1 4619   1.275   4.448   5.032
 1459WAT     H2 4620   1.391   4.506   5.132
 1460WAT      O 4621   1.159   2.827   9.618
 1460WAT     H1 4622   1.107   2.876   9.548
 1460WAT     H2 4623   1.135   2.731   9.617
 1461WAT      O 4624   3.107   6.913   2.730
 1461WAT     H1 4625   3.017   6.924   2.688
 1461WAT     H2 4626   3.175   6.893   2.660
 1462WAT      O 4627   8.087   3.019   8.762
 1462WAT     H1 4628   8.132   2.976   8.684
 1462WAT     H2 4629   8.120   3.113   8.771
 1463WAT      O 4630   0.896   3.317   6.761
 1463WAT     H1 4631   0.843   3.397   6.733
 1463WAT     H2 4632   0.986   3.319   6.717
 1464WAT      O 4633   7.973   7.192   3.730
 1464WAT     H1 4634   7.906   7.183   3.656
 1464WAT     H2 4635   8.031   7.271   3.713
 1465WAT      O 4636   5.998   2.745   7.293
 1465WAT     H1 4637   6.067   2.779   7.228
 1465WAT     H2 4638   6.015   2.648   7.311
 1466WAT      O 4639   7.503   7.847   9.248
 1466WAT     H1 4640   7.495   7.898   9.334
 1466WAT     H2 4641   7.446   7.891   9.178
 1467WAT      O 4642   3.118   5.280   3.607
 1467WAT     H1 4643   3.122   5.268   3.707
 1467WAT     H2 4644   3.208   5.309   3.574
 1468WAT      O 4645   2.766   7.197   3.289
 1468WAT     H1 4646   2.695   7.132   3.264
 1468WAT     H2 4647   2.748   7.285   3.245
 1469WAT      O 4648   7.881   2.522   6.659
 1469WAT     H1 4649   7.865   2.520   6.560
 1469WAT     H2 4650   7.906   2.614   6.687
 1470WAT      O 4651   9.847   3.120   9.206
 1470WAT     H1 4652   9.835   3.159   9.298
 1470WAT     H2 4653   9.851   3.194   9.139
 1471WAT      O 4654   0.580   3.964   3.798
 1471WAT     H1 4655   0.487   3.931   3.779
 1471WAT     H2 4656   0.593   3.974   3.896
 1472WAT      O 4657   3.190   8.178   9.230
 1472WAT     H1 4658   3.152   8.117   9.299
 1472WAT     H2 4659   3.180   8.273   9.259
 1473WAT      O 4660   3.125   5.445   6.283
 1473WAT     H1 4661   3.078   5.394   6.355
 1473WAT     H2 4662   3.076   5.531   6.266
 1474WAT      O 4663   3.327   7.255   6.658
 1474WAT     H1 4664   3.387   7.292   6.587
 1474WAT     H2 4665   3.280   7.174   6.622
 1475WAT      O 4666   9.008   3.521   3.028
 1475WAT     H1 4667   8.984   3.445   3.088
 1475WAT     H2 4668   8.927   3.548   2.975
 1476WAT      O 4669   0.046   4.479   3.394
 1476WAT     H1 4670   0.077   4.533   3.473
 1476WAT     H2 4671   0.077   4.385   3.405
 1477WAT      O 4672   0.475   0.408   2.187
 1477WAT     H1 4673   0.422   0.419   2.103
 1477WAT     H2 4674   0.447   0.477   2.253
 1478WAT      O 4675   7.206   2.084   5.344
 1478WAT     H1 4676   7.177   1.990   5.363
 1478WAT     H2 4677   7.138   2.147   5.382
 1479WAT      O 4678   9.198   5.501   3.144
 1479WAT     H1 4679   9.270   5.569   3.155
 1479WAT     H2 4680   9.177   5.459   3.232
 1480WAT      O 4681   4.569   6.981   5.046
 1480WAT     H1 4682   4.551   7.079   5.044
 1480WAT     H2 4683   4.604   6.955   5.137
 1481WAT      O 4684   6.667   6.742   6.660
 1481WAT     H1 4685   6.737   6.789   6.713
 1481WAT     H2 4686   6.611   6.685   6.720
 1482WAT      O 4687   7.865   4.586   2.204
 1482WAT     H1 4688   7.818   4.534   2.275
 1482WAT     H2 4689   7.873   4.530   2.121
 1483WAT      O 4690   7.529   0.945   1.157
 1483WAT     H1 4691   7.553   1.026   1.209
 1483WAT     H2 4692   7.610   0.890   1.140
 1484WAT      O 4693   3.897   1.126   2.780
 1484WAT     H1 4694   3.907   1.040   2.731
 1484WAT     H2 4695   3.823   1.119   2.847
 1485WAT      O 4696   0.295   2.404   1.583
 1485WAT     H1 4697   0.243   2.393   1.498
 1485WAT     H2 4698   0.302   2.315   1.629
 1486WAT      O 4699   6.618   2.093   0.295
 1486WAT     H1 4700   6.703   2.095   0.242
 1486WAT     H2 4701   6.541   2.112   0.234
 1487WAT      O 4702   8.219   0.369   2.432
 1487WAT     H1 4703   8.271   0.315   2.365
 1487WAT     H2 4704   8.127   0.330   2.441
 1488WAT      O 4705   2.859   8.815   3.063
 1488WAT     H1 4706   2.957   8.828   3.054
 1488WAT     H2 4707   2.834   8.722   3.034
 1489WAT      O 4708   4.217   5.169   3.352
 1489WAT     H1 4709   4.148   5.100   3.332
 1489WAT     H2 4710   4.186   5.258   3.319
 1490WAT      O 4711   4.625   5.587   7.618
 1490WAT     H1 4712   4.538   5.616   7.658
 1490WAT     H2 4713   4.654   5.654   7.549
 1491WAT      O 4714   1.365   9.175   4.931
 1491WAT     H1 4715   1.417   9.257   4.952
 1491WAT     H2 4716   1.418   9.094   4.958
 1492WAT      O 4717   5.937   8.003   0.252
 1492WAT     H1 4718   6.013   7.940   0.234
 1492WAT     H2 4719   5.881   7.967   0.327
 1493WAT      O 4720   8.282   4.962   8.706
 1493WAT     H1 4721   8.193   5.000   8.731
 1493WAT     H2 4722   8.346   5.037   8.688
 1494WAT      O 4723   9.170   4.406   2.997
 1494WAT     H1 4724   9.184   4.457   3.082
 1494WAT     H2 4725   9.248   4.345   2.982
 1495WAT      O 4726   7.767   7.780   1.859
 1495WAT     H1 4727   7.826   7.821   1.790
 1495WAT     H2 4728   7.675   7.768   1.821
 1496WAT      O 4729   5.341   8.195   5.239
 1496WAT     H1 4730   5.403   8.237   5.306
 1496WAT     H2 4731   5.380   8.205   5.148
 1497WAT      O 4732   8.564   6.040   2.690
 1497WAT     H1 4733   8.571   6.117   2.754
 1497WAT     H2 4734   8.468   6.022   2.670
 1498WAT      O 4735   7.565   0.444   2.564
 1498WAT     H1 4736   7.579   0.359   2.512
 1498WAT     H2 4737   7.484   0.435   2.621
 1499WAT      O 4738   5.876   9.617   3.267
 1499WAT     H1 4739   5.936   9.697   3.261
 1499WAT     H2 4740   5.785   9.642   3.235
 1500WAT      O 4741   1.857   2.740   0.960
 1500WAT     H1 4742   1.851   2.666   1.028
 1500WAT     H2 4743   1.823   2.707   0.872
 1501WAT      O 4744   9.544   3.849   2.063
 1501WAT     H1 4745   9.512   3.928   2.115
 1501WAT     H2 4746   9.579   3.879   1.975
 1502WAT      O 4747   0.043   7.791   4.658
 1502WAT     H1 4748   0.052   7.734   4.577
 1502WAT     H2 4749  -0.042   7.769   4.705
 1503WAT      O 4750   8.662   9.712   2.404
 1503WAT     H1 4751   8.709   9.795   2.434
 1503WAT     H2 4752   8.698   9.684   2.315
 1504WAT      O 4753   6.105   1.331   5.106
 1504WAT     H1 4754   6.087   1.372   5.196
 1504WAT     H2 4755   6.181   1.379   5.063
 1505WAT      O 4756   3.983   8.442   9.218
 1505WAT     H1 4757   4.083   8.449   9.219
 1505WAT     H2 4758   3.957   8.346   9.219
 1506WAT      O 4759   1.275   7.805   7.928
 1506WAT     H1 4760   1.284   7.891   7.877
 1506WAT     H2 4761   1.258   7.730   7.865
 1507WAT      O 4762   5.885   4.679   3.799
 1507WAT     H1 4763   5.871   4.592   3.846
 1507WAT     H2 4764   5.983   4.695   3.788
 1508WAT      O 4765   2.628   9.629   4.747
 1508WAT     H1 4766   2.668   9.635   4.838
 1508WAT     H2 4767   2.681   9.566   4.691
 1509WAT      O 4768   3.740   0.178   8.564
 1509WAT     H1 4769   3.834   0.153   8.544
 1509WAT     H2 4770   3.700   0.225   8.486
 1510WAT      O 4771   0.806   9.361   0.581
 1510WAT     H1 4772   0.707   9.370   0.591
 1510WAT     H2 4773   0.847   9.347   0.670
 1511WAT      O 4774   7.881   3.529   2.399
 1511WAT     H1 4775   7.953   3.593   2.428
 1511WAT     H2 4776   7.923   3.443   2.371
 1512WAT      O 4777   3.382   8.380   6.709
 1512WAT     H1 4778   3.438   8.377   6.792
 1512WAT     H2 4779   3.309   8.447   6.721
 1513WAT      O 4780   5.979   7.310   0.384
 1513WAT     H1 4781   5.896   7.340   0.431
 1513WAT     H2 4782   6.059   7.338   0.436
 1514WAT      O 4783   1.475   9.118   3.212
 1514WAT     H1 4784   1.517   9.038   3.254
 1514WAT     H2 4785   1.539   9.195   3.215
 1515WAT      O 4786   3.422   2.548   3.880
 1515WAT     H1 4787   3.447   2.604   3.960
 1515WAT     H2 4788   3.417   2.607   3.800
 1516WAT      O 4789   1.602   8.020   4.609
 1516WAT     H1 4790   1.530   8.073   4.565
 1516WAT     H2 4791   1.565   7.973   4.690
 1517WAT      O 4792   9.376   0.197   9.580
 1517WAT     H1 4793   9.313   0.263   9.539
 1517WAT     H2 4794   9.443   0.168   9.512
 1518WAT      O 4795   8.554   3.717   1.582
 1518WAT     H1 4796   8.547   3.732   1.681
 1518WAT     H2 4797   8.565   3.805   1.536
 1519WAT      O 4798   0.615   5.956   3.247
 1519WAT     H1 4799   0.688   5.964   3.315
 1519WAT     H2 4800   0.551   6.032   3.258
 1520WAT      O 4801   2.362   7.851   8.069
 1520WAT     H1 4802   2.318   7.762   8.077
 1520WAT     H2 4803   2.460   7.841   8.087
 1521WAT      O 4804   0.091   9.255   7.831
 1521WAT     H1 4805   0.017   9.201   7.792
 1521WAT     H2 4806   0.066   9.352   7.830
 1522WAT      O 4807   9.086   2.196   0.737
 1522WAT     H1 4808   9.110   2.215   0.832
 1522WAT     H2 4809   9.001   2.143   0.735
 1523WAT      O 4810   2.012   2.108   9.258
 1523WAT     H1 4811   1.943   2.066   9.200
 1523WAT     H2 4812   2.004   2.072   9.351
 1524WAT      O 4813   0.311   0.144   6.849
 1524WAT     H1 4814   0.304   0.149   6.948
 1524WAT     H2 4815   0.332   0.050   6.821
 1525WAT      O 4816   4.373   5.372   6.058
 1525WAT     H1 4817   4.435   5.324   5.996
 1525WAT     H2 4818   4.354   5.314   6.137
 1526WAT      O 4819   3.015   0.256   7.368
 1526WAT     H1 4820   3.043   0.332   7.427
 1526WAT     H2 4821   2.926   0.222   7.398
 1527WAT      O 4822   3.217   1.617   9.355
 1527WAT     H1 4823   3.275   1.601   9.275
 1527WAT     H2 4824   3.151   1.543   9.363
 1528WAT      O 4825   4.104   6.789   2.781
 1528WAT     H1 4826   4.157   6.718   2.828
 1528WAT     H2 4827   4.049   6.747   2.709
 1529WAT      O 4828   8.267   6.327   1.900
 1529WAT     H1 4829   8.242   6.345   1.805
 1529WAT     H2 4830   8.287   6.414   1.946
 1530WAT      O 4831   4.690   5.946   0.106
 1530WAT     H1 4832   4.742   5.865   0.131
 1530WAT     H2 4833   4.658   5.938   0.011
 1531WAT      O 4834   5.991   2.039   0.103
 1531WAT     H1 4835   6.076   1.989   0.118
 1531WAT     H2 4836   5.947   2.057   0.191
 1532WAT      O 4837   7.249   5.166   2.445
 1532WAT     H1 4838   7.320   5.123   2.501
 1532WAT     H2 4839   7.284   5.250   2.404
 1533WAT      O 4840   4.765   2.816   8.819
 1533WAT     H1 4841   4.766   2.823   8.719
 1533WAT     H2 4842   4.846   2.862   8.855
 1534WAT      O 4843   0.213   6.681   4.024
 1534WAT     H1 4844   0.269   6.617   3.972
 1534WAT     H2 4845   0.234   6.672   4.121
 1535WAT      O 4846   3.535   0.753   2.471
 1535WAT     H1 4847   3.508   0.816   2.398
 1535WAT     H2 4848   3.594   0.800   2.535
 1536WAT      O 4849   7.983   8.031   3.518
 1536WAT     H1 4850   8.017   8.119   3.550
 1536WAT     H2 4851   7.951   7.977   3.596
 1537WAT      O 4852   9.404   4.466   2.330
 1537WAT     H1 4853   9.435   4.542   2.273
 1537WAT     H2 4854   9.305   4.472   2.343
 1538WAT      O 4855   4.394   1.039   0.520
 1538WAT     H1 4856   4.492   1.051   0.536
 1538WAT     H2 4857   4.367   1.090   0.439
 1539WAT      O 4858   9.608   0.258   6.561
 1539WAT     H1 4859   9.647   0.304   6.481
 1539WAT     H2 4860   9.673   0.189   6.595
 1540WAT      O 4861   1.934   5.618   6.252
 1540WAT     H1 4862   1.976   5.686   6.193
 1540WAT     H2 4863   1.942   5.528   6.210
 1541WAT      O 4864   4.757   7.102   9.533
 1541WAT     H1 4865   4.731   7.012   9.566
 1541WAT     H2 4866   4.679   7.145   9.487
 1542WAT      O 4867   0.475   7.426   0.088
 1542WAT     H1 4868   0.477   7.473   0.176
 1542WAT     H2 4869   0.562   7.439   0.041
 1543WAT      O 4870   6.513   1.412   0.488
 1543WAT     H1 4871   6.502   1.492   0.547
 1543WAT     H2 4872   6.489   1.329   0.539
 1544WAT      O 4873   6.466   7.440   9.494
 1544WAT     H1 4874   6.371   7.428   9.523
 1544WAT     H2 4875   6.494   7.535   9.510
 1545WAT      O 4876   1.310   8.589   4.552
 1545WAT     H1 4877   1.236   8.655   4.538
 1545WAT     H2 4878   1.396   8.628   4.520
 1546WAT      O 4879   0.068   7.590   6.444
 1546WAT     H1 4880   0.057   7.688   6.429
 1546WAT     H2 4881   0.082   7.544   6.356
 1547WAT      O 4882   6.545   9.725   9.026
 1547WAT     H1 4883   6.506   9.699   9.115
 1547WAT     H2 4884   6.543   9.645   8.965
 1548WAT      O 4885   8.494   5.784   7.102
 1548WAT     H1 4886   8.513   5.873   7.061
 1548WAT     H2 4887   8.572   5.723   7.089
 1549WAT      O 4888   8.005   8.566   0.066
 1549WAT     H1 4889   8.078   8.561   0.133
 1549WAT     H2 4890   7.918   8.542   0.109
 1550WAT      O 4891   8.149   7.805   1.372
 1550WAT     H1 4892   8.065   7.764   1.406
 1550WAT     H2 4893   8.177   7.758   1.288
 1551WAT      O 4894   4.610   3.125   4.454
 1551WAT     H1 4895   4.538   3.098   4.517
 1551WAT     H2 4896   4.699   3.103   4.492
 1552WAT      O 4897   0.047   5.225   7.073
 1552WAT     H1 4898  -0.012   5.283   7.130
 1552WAT     H2 4899   0.023   5.237   6.977
 1553WAT      O 4900   4.003   0.312   1.242
 1553WAT     H1 4901   4.055   0.245   1.295
 1553WAT     H2 4902   4.066   0.379   1.202
 1554WAT      O 4903   5.295   4.696   6.870
 1554WAT     H1 4904   5.348   4.761   6.816
 1554WAT     H2 4905   5.203   4.733   6.886
 1555WAT      O 4906   6.607   5.998   4.924
 1555WAT     H1 4907   6.602   5.904   4.955
 1555WAT     H2 4908   6.523   6.047   4.949
 1556WAT      O 4909   8.986   2.848   5.295
 1556WAT     H1 4910   9.033   2.778   5.240
 1556WAT     H2 4911   8.939   2.912   5.235
 1557WAT      O 4912   2.566   7.016   4.522
 1557WAT     H1 4913   2.614   6.972   4.598
 1557WAT     H2 4914   2.627   7.084   4.479
 1558WAT      O 4915   4.141   3.075   3.971
 1558WAT     H1 4916   4.043   3.097   3.975
 1558WAT     H2 4917   4.190   3.152   3.930
 1559WAT      O 4918   0.632   2.627   1.091
 1559WAT     H1 4919   0.588   2.637   1.002
 1559WAT     H2 4920   0.677   2.714   1.116
 1560WAT      O 4921   7.030   3.607   4.975
 1560WAT     H1 4922   7.038   3.672   5.050
 1560WAT     H2 4923   7.092   3.633   4.901
 1561WAT      O 4924   8.884   4.568   5.477
 1561WAT     H1 4925   8.785   4.571   5.471
 1561WAT     H2 4926   8.923   4.643   5.423
 1562WAT      O 4927   7.870   1.258   3.749
 1562WAT     H1 4928   7.963   1.295   3.754
 1562WAT     H2 4929   7.874   1.158   3.753
 1563WAT      O 4930   0.267   2.054   5.494
 1563WAT     H1 4931   0.214   2.139   5.503
 1563WAT     H2 4932   0.205   1.976   5.498
 1564WAT      O 4933   0.064   3.152   7.443
 1564WAT     H1 4934   0.051   3.063   7.487
 1564WAT     H2 4935  -0.022   3.180   7.399
 1565WAT      O 4936   3.259   3.648   2.214
 1565WAT     H1 4937   3.261   3.748   2.212
 1565WAT     H2 4938   3.304   3.612   2.132
 1566WAT      O 4939   6.195   5.048   2.660
 1566WAT     H1 4940   6.271   4.985   2.674
 1566WAT     H2 4941   6.147   5.062   2.747
 1567WAT      O 4942   4.617   6.703   4.085
 1567WAT     H1 4943   4.660   6.709   4.175
 1567WAT     H2 4944   4.587   6.608   4.069
 1568WAT      O 4945   7.165   4.442   6.671
 1568WAT     H1 4946   7.204   4.496   6.746
 1568WAT     H2 4947   7.136   4.353   6.705
 1569WAT      O 4948   2.777   0.503   7.428
 1569WAT     H1 4949   2.695   0.545   7.389
 1569WAT     H2 4950   2.766   0.404   7.430
 1570WAT      O 4951   7.208   0.707   6.092
 1570WAT     H1 4952   7.250   0.618   6.112
 1570WAT     H2 4953   7.258   0.751   6.018
 1571WAT      O 4954   4.920   5.061   7.277
 1571WAT     H1 4955   4.949   5.109   7.360
 1571WAT     H2 4956   4.823   5.036   7.285
 1572WAT      O 4957   8.244   8.183   3.812
 1572WAT     H1 4958   8.204   8.274   3.798
 1572WAT     H2 4959   8.243   8.160   3.909
 1573WAT      O 4960   5.164   4.981   7.170
 1573WAT     H1 4961   5.082   5.030   7.201
 1573WAT     H2 4962   5.195   5.021   7.084
 1574WAT      O 4963   3.753   6.143   4.161
 1574WAT     H1 4964   3.747   6.176   4.255
 1574WAT     H2 4965   3.677   6.180   4.107
 1575WAT      O 4966   9.139   0.435   6.633
 1575WAT     H1 4967   9.196   0.353   6.625
 1575WAT     H2 4968   9.054   0.411   6.680
 1576WAT      O 4969   6.836   0.339   3.076
 1576WAT     H1 4970   6.779   0.347   3.158
 1576WAT     H2 4971   6.778   0.329   2.995
 1577WAT      O 4972   6.527   2.536   1.429
 1577WAT     H1 4973   6.490   2.521   1.521
 1577WAT     H2 4974   6.529   2.634   1.409
 1578WAT      O 4975   7.462   0.302   6.075
 1578WAT     H1 4976   7.476   0.228   6.141
 1578WAT     H2 4977   7.522   0.286   5.996
 1579WAT      O 4978   7.231   6.680   7.040
 1579WAT     H1 4979   7.228   6.587   7.005
 1579WAT     H2 4980   7.168   6.689   7.118
 1580WAT      O 4981   2.128   8.290   8.364
 1580WAT     H1 4982   2.120   8.237   8.449
 1580WAT     H2 4983   2.212   8.265   8.316
 1581WAT      O 4984   6.989   7.937   1.091
 1581WAT     H1 4985   6.916   7.890   1.041
 1581WAT     H2 4986   7.076   7.925   1.044
 1582WAT      O 4987   1.265   3.833   1.836
 1582WAT     H1 4988   1.288   3.928   1.813
 1582WAT     H2 4989   1.349   3.779   1.843
 1583WAT      O 4990   1.020   7.731   1.312
 1583WAT     H1 4991   1.065   7.688   1.390
 1583WAT     H2 4992   0.952   7.797   1.345
 1584WAT      O 4993   9.399   7.025   5.340
 1584WAT     H1 4994   9.304   7.056   5.352
 1584WAT     H2 4995   9.410   6.984   5.250
 1585WAT      O 4996   2.009   0.586   4.440
 1585WAT     H1 4997   1.982   0.519   4.509
 1585WAT     H2 4998   2.007   0.543   4.349
 1586WAT      O 4999   4.725   8.824   0.617
 1586WAT     H1 5000   4.739   8.801   0.714
 1586WAT     H2 5001   4.801   8.881   0.586
 1587WAT      O 5002   8.033   5.219   6.008
 1587WAT     H1 5003   8.109   5.154   6.009
 1587WAT     H2 5004   8.011   5.245   6.102
 1588WAT      O 5005   6.804   9.022   5.056
 1588WAT     H1 5006   6.721   9.053   5.103
 1588WAT     H2 5007   6.811   9.066   4.967
 1589WAT      O 5008   4.544   2.879   4.048
 1589WAT     H1 5009   4.485   2.893   4.128
 1589WAT     H2 5010   4.547   2.963   3.994
 1590WAT      O 5011   3.122   9.120   9.825
 1590WAT     H1 5012   3.072   9.062   9.762
 1590WAT     H2 5013   3.171   9.191   9.774
 1591WAT      O 5014   8.809   3.269   8.671
 1591WAT     H1 5015   8.715   3.278   8.637
 1591WAT     H2 5016   8.810   3.283   8.770
 1592WAT      O 5017   8.829   4.985   3.216
 1592WAT     H1 5018   8.889   5.049   3.168
 1592WAT     H2 5019   8.735   4.997   3.184
 1593WAT      O 5020   1.377   8.262   9.189
 1593WAT     H1 5021   1.435   8.187   9.158
 1593WAT     H2 5022   1.369   8.261   9.288
 1594WAT      O 5023   1.351   9.571   9.345
 1594WAT     H1 5024   1.281   9.634   9.312
 1594WAT     H2 5025   1.315   9.516   9.421
 1595WAT      O 5026   3.837   1.576   0.885
 1595WAT     H1 5027   3.781   1.652   0.915
 1595WAT     H2 5028   3.830   1.566   0.785
 1596WAT      O 5029   7.619   7.138   5.120
 1596WAT     H1 5030   7.555   7.209   5.089
 1596WAT     H2 5031   7.639   7.151   5.217
 1597WAT      O 5032   8.422   2.104   6.566
 1597WAT     H1 5033   8.444   2.195   6.530
 1597WAT     H2 5034   8.368   2.054   6.498
 1598WAT      O 5035   1.132   0.422   0.514
 1598WAT     H1 5036   1.217   0.404   0.464
 1598WAT     H2 5037   1.139   0.385   0.607
 1599WAT      O 5038   5.772   8.231   2.387
 1599WAT     H1 5039   5.803   8.310   2.333
 1599WAT     H2 5040   5.845   8.204   2.450
 1600WAT      O 5041   4.907   7.995   1.144
 1600WAT     H1 5042   4.870   7.990   1.236
 1600WAT     H2 5043   4.895   7.907   1.098
 1601WAT      O 5044   8.515   5.851   7.365
 1601WAT     H1 5045   8.490   5.826   7.272
 1601WAT     H2 5046   8.432   5.877   7.416
 1602WAT      O 5047   4.445   4.023   4.639
 1602WAT     H1 5048   4.430   3.990   4.732
 1602WAT     H2 5049   4.540   4.006   4.613
 1603WAT      O 5050   4.527   8.262   6.559
 1603WAT     H1 5051   4.432   8.268   6.590
 1603WAT     H2 5052   4.586   8.313   6.622
 1604WAT      O 5053   6.349   7.651   4.385
 1604WAT     H1 5054   6.341   7.613   4.478
 1604WAT     H2 5055   6.261   7.640   4.337
 1605WAT      O 5056   3.191   1.268   3.662
 1605WAT     H1 5057   3.236   1.253   3.574
 1605WAT     H2 5058   3.106   1.319   3.647
 1606WAT      O 5059   7.049   5.941   6.932
 1606WAT     H1 5060   7.073   5.893   6.848
 1606WAT     H2 5061   7.107   6.022   6.942
 1607WAT      O 5062   6.145   5.236   3.282
 1607WAT     H1 5063   6.160   5.325   3.324
 1607WAT     H2 5064   6.051   5.229   3.249
 1608WAT      O 5065   3.017   1.545   2.817
 1608WAT     H1 5066   3.035   1.644   2.811
 1608WAT     H2 5067   3.104   1.496   2.819
 1609WAT      O 5068   7.893   0.330   0.926
 1609WAT     H1 5069   7.908   0.237   0.890
 1609WAT     H2 5070   7.914   0.332   1.023
 1610WAT      O 5071   5.935   7.662   1.898
 1610WAT     H1 5072   6.017   7.622   1.940
 1610WAT     H2 5073   5.859   7.658   1.963
 1611WAT      O 5074   2.348   0.122   3.913
 1611WAT     H1 5075   2.384   0.106   3.821
 1611WAT     H2 5076   2.293   0.043   3.942
 1612WAT      O 5077   3.253   9.380   0.133
 1612WAT     H1 5078   3.240   9.419   0.224
 1612WAT     H2 5079   3.217   9.287   0.130
 1613WAT      O 5080   0.039   4.842   3.749
 1613WAT     H1 5081   0.008   4.935   3.769
 1613WAT     H2 5082   0.031   4.786   3.832
 1614WAT      O 5083   9.769   8.416   1.497
 1614WAT     H1 5084   9.746   8.321   1.475
 1614WAT     H2 5085   9.695   8.476   1.465
 1615WAT      O 5086   9.797   5.513   3.279
 1615WAT     H1 5087   9.837   5.591   3.328
 1615WAT     H2 5088   9.698   5.517   3.285
 1616WAT      O 5089   6.847   0.225   5.381
 1616WAT     H1 5090   6.920   0.157   5.387
 1616WAT     H2 5091   6.884   0.310   5.344
 1617WAT      O 5092   5.254   9.536   1.450
 1617WAT     H1 5093   5.186   9.516   1.380
 1617WAT     H2 5094   5.227   9.618   1.500
 1618WAT      O 5095   7.917   2.997   0.853
 1618WAT     H1 5096   8.003   3.006   0.803
 1618WAT     H2 5097   7.865   3.083   0.845
 1619WAT      O 5098   0.162   0.120   6.625
 1619WAT     H1 5099   0.165   0.215   6.594
 1619WAT     H2 5100   0.184   0.117   6.723
 1620WAT      O 5101   4.893   0.460   5.989
 1620WAT     H1 5102   4.840   0.545   5.986
 1620WAT     H2 5103   4.883   0.417   6.078
 1621WAT      O 5104   8.980   0.013   6.774
 1621WAT     H1 5105   8.909   0.029   6.843
 1621WAT     H2 5106   9.064  -0.018   6.820
 1622WAT      O 5107   7.680   3.869   0.469
 1622WAT     H1 5108   7.751   3.819   0.419
 1622WAT     H2 5109   7.622   3.918   0.404
 1623WAT      O 5110   9.440   8.781   5.226
 1623WAT     H1 5111   9.516   8.789   5.162
 1623WAT     H2 5112   9.395   8.871   5.235
 1624WAT      O 5113   1.885   5.028   8.201
 1624WAT     H1 5114   1.796   5.041   8.158
 1624WAT     H2 5115   1.873   5.017   8.300
 1625WAT      O 5116   8.336   8.677   4.171
 1625WAT     H1 5117   8.304   8.772   4.164
 1625WAT     H2 5118   8.283   8.630   4.241
 1626WAT      O 5119   5.047   1.861   7.135
 1626WAT     H1 5120   5.087   1.771   7.156
 1626WAT     H2 5121   4.948   1.852   7.129
 1627WAT      O 5122   6.552   6.592   6.851
 1627WAT     H1 5123   6.623   6.530   6.883
 1627WAT     H2 5124   6.485   6.607   6.924
 1628WAT      O 5125   0.567   5.694   8.744
 1628WAT     H1 5126   0.500   5.769   8.748
 1628WAT     H2 5127   0.519   5.607   8.736
 1629WAT      O 5128   4.643   5.210   2.512
 1629WAT     H1 5129   4.684   5.300   2.495
 1629WAT     H2 5130   4.624   5.165   2.425
 1630WAT      O 5131   8.537   7.495   4.710
 1630WAT     H1 5132   8.616   7.492   4.771
 1630WAT     H2 5133   8.510   7.401   4.687
 1631WAT      O 5134   8.833   7.866   4.099
 1631WAT     H1 5135   8.858   7.836   4.007
 1631WAT     H2 5136   8.909   7.916   4.140
 1632WAT      O 5137   9.521   7.782   3.681
 1632WAT     H1 5138   9.536   7.873   3.720
 1632WAT     H2 5139   9.609   7.741   3.657
 1633WAT      O 5140   4.939   6.903   9.193
 1633WAT     H1 5141   4.947   6.896   9.093
 1633WAT     H2 5142   4.886   6.985   9.216
 1634WAT      O 5143   1.140   9.422   7.733
 1634WAT     H1 5144   1.143   9.401   7.831
 1634WAT     H2 5145   1.048   9.450   7.707
 1635WAT      O 5146   5.495   0.461   6.572
 1635WAT     H1 5147   5.529   0.516   6.649
 1635WAT     H2 5148   5.412   0.413   6.600
 1636WAT      O 5149   8.771   9.719   1.260
 1636WAT     H1 5150   8.763   9.619   1.265
 1636WAT     H2 5151   8.778   9.756   1.353
 1637WAT      O 5152   1.606   8.427   6.595
 1637WAT     H1 5153   1.524   8.469   6.634
 1637WAT     H2 5154   1.653   8.374   6.666
 1638WAT      O 5155   3.846   2.096   2.711
 1638WAT     H1 5156   3.751   2.127   2.714
 1638WAT     H2 5157   3.903   2.168   2.672
 1639WAT      O 5158   6.452   7.971   0.632
 1639WAT     H1 5159   6.422   7.926   0.548
 1639WAT     H2 5160   6.439   8.070   0.623
 1640WAT      O 5161   3.741   2.422   3.213
 1640WAT     H1 5162   3.822   2.364   3.222
 1640WAT     H2 5163   3.720   2.463   3.302
 1641WAT      O 5164   7.752   9.740   8.487
 1641WAT     H1 5165   7.744   9.837   8.508
 1641WAT     H2 5166   7.798   9.728   8.399
 1642WAT      O 5167   8.547   2.203   4.787
 1642WAT     H1 5168   8.491   2.163   4.714
 1642WAT     H2 5169   8.642   2.211   4.756
 1643WAT      O 5170   2.253   6.421   7.516
 1643WAT     H1 5171   2.238   6.331   7.475
 1643WAT     H2 5172   2.288   6.410   7.609
 1644WAT      O 5173   6.499   7.651   0.274
 1644WAT     H1 5174   6.554   7.613   0.349
 1644WAT     H2 5175   6.405   7.665   0.305
 1645WAT      O 5176   5.065   1.538   7.757
 1645WAT     H1 5177   5.073   1.442   7.731
 1645WAT     H2 5178   5.095   1.596   7.681
 1646WAT      O 5179   0.674   5.836   2.572
 1646WAT     H1 5180   0.669   5.921   2.520
 1646WAT     H2 5181   0.593   5.829   2.631
 1647WAT      O 5182   2.850   7.871   6.292
 1647WAT     H1 5183   2.829   7.888   6.196
 1647WAT     H2 5184   2.916   7.797   6.300
 1648WAT      O 5185   0.159   5.023   5.220
 1648WAT     H1 5186   0.204   5.072   5.145
 1648WAT     H2 5187   0.157   4.925   5.200
 1649WAT      O 5188   6.959   8.380   7.943
 1649WAT     H1 5189   7.048   8.390   7.898
 1649WAT     H2 5190   6.917   8.294   7.914
 1650WAT      O 5191   9.382   8.611   5.959
 1650WAT     H1 5192   9.440   8.534   5.936
 1650WAT     H2 5193   9.286   8.588   5.940
 1651WAT      O 5194   5.966   1.473   4.904
 1651WAT     H1 5195   6.036   1.418   4.949
 1651WAT     H2 5196   5.988   1.484   4.808
 1652WAT      O 5197   5.963   0.169   0.609
 1652WAT     H1 5198   5.996   0.117   0.688
 1652WAT     H2 5199   5.963   0.110   0.528
 1653WAT      O 5200   7.473   2.460   8.562
 1653WAT     H1 5201   7.379   2.491   8.579
 1653WAT     H2 5202   7.488   2.453   8.464
 1654WAT      O 5203   0.291   6.196   7.708
 1654WAT     H1 5204   0.221   6.135   7.746
 1654WAT     H2 5205   0.355   6.222   7.780
 1655WAT      O 5206   0.376   3.962   2.744
 1655WAT     H1 5207   0.452   3.941   2.682
 1655WAT     H2 5208   0.298   3.902   2.723
 1656WAT      O 5209   0.659   0.357   9.706
 1656WAT     H1 5210   0.722   0.411   9.762
 1656WAT     H2 5211   0.676   0.260   9.722
 1657WAT      O 5212   2.269   2.783   8.924
 1657WAT     H1 5213   2.329   2.804   9.001
 1657WAT     H2 5214   2.278   2.854   8.854
 1658WAT      O 5215   8.527   0.751   1.064
 1658WAT     H1 5216   8.606   0.690   1.065
 1658WAT     H2 5217   8.483   0.751   1.154
 1659WAT      O 5218   2.045   6.405   3.371
 1659WAT     H1 5219   1.964   6.356   3.402
 1659WAT     H2 5220   2.019   6.478   3.308
 1660WAT      O 5221   1.478   6.500   6.649
 1660WAT     H1 5222   1.545   6.526   6.719
 1660WAT     H2 5223   1.392   6.475   6.693
 1661WAT      O 5224   3.670   5.329   4.553
 1661WAT     H1 5225   3.576   5.343   4.584
 1661WAT     H2 5226   3.733   5.349   4.628
 1662WAT      O 5227   3.118   7.693   3.956
 1662WAT     H1 5228   3.217   7.685   3.939
 1662WAT     H2 5229   3.071   7.614   3.917
 1663WAT      O 5230   0.131   1.266   2.121
 1663WAT     H1 5231   0.076   1.340   2.158
 1663WAT     H2 5232   0.078   1.181   2.121
 1664WAT      O 5233   3.103   7.738   6.193
 1664WAT     H1 5234   3.200   7.756   6.209
 1664WAT     H2 5235   3.087   7.639   6.192
 1665WAT      O 5236   6.003   4.768   2.967
 1665WAT     H1 5237   6.012   4.688   2.908
 1665WAT     H2 5238   5.926   4.756   3.029
 1666WAT      O 5239   0.024   6.116   8.310
 1666WAT     H1 5240   0.116   6.104   8.273
 1666WAT     H2 5241   0.022   6.087   8.406
 1667WAT      O 5242   5.268   0.479   3.523
 1667WAT     H1 5243   5.195   0.540   3.554
 1667WAT     H2 5244   5.243   0.384   3.543
 1668WAT      O 5245   9.332   6.003   2.920
 1668WAT     H1 5246   9.404   6.014   2.851
 1668WAT     H2 5247   9.289   6.092   2.937
 1669WAT      O 5248   4.204   9.439   1.663
 1669WAT     H1 5249   4.124   9.499   1.654
 1669WAT     H2 5250   4.277   9.471   1.603
 1670WAT      O 5251   0.067   5.152   8.916
 1670WAT     H1 5252  -0.032   5.140   8.922
 1670WAT     H2 5253   0.092   5.170   8.821
 1671WAT      O 5254   8.327   5.683   1.806
 1671WAT     H1 5255   8.290   5.605   1.755
 1671WAT     H2 5256   8.251   5.740   1.837
 1672WAT      O 5257   1.996   1.297   4.549
 1672WAT     H1 5258   2.022   1.288   4.645
 1672WAT     H2 5259   2.069   1.260   4.492
 1673WAT      O 5260   4.448   3.177   0.019
 1673WAT     H1 5261   4.499   3.135   0.093
 1673WAT     H2 5262   4.454   3.277   0.025
 1674WAT      O 5263   6.598   7.255   6.789
 1674WAT     H1 5264   6.651   7.301   6.718
 1674WAT     H2 5265   6.622   7.293   6.879
 1675WAT      O 5266   5.591   9.413   2.409
 1675WAT     H1 5267   5.560   9.369   2.324
 1675WAT     H2 5268   5.564   9.358   2.487
 1676WAT      O 5269   0.758   8.109   2.759
 1676WAT     H1 5270   0.764   8.070   2.851
 1676WAT     H2 5271   0.799   8.046   2.693
 1677WAT      O 5272   9.578   4.024   6.170
 1677WAT     H1 5273   9.581   3.992   6.075
 1677WAT     H2 5274   9.617   3.955   6.230
 1678WAT      O 5275   7.803   3.093   7.141
 1678WAT     H1 5276   7.777   3.014   7.197
 1678WAT     H2 5277   7.855   3.157   7.197
 1679WAT      O 5278   6.362   0.818   9.206
 1679WAT     H1 5279   6.356   0.862   9.117
 1679WAT     H2 5280   6.439   0.754   9.207
 1680WAT      O 5281   0.317   1.150   6.021
 1680WAT     H1 5282   0.403   1.158   6.071
 1680WAT     H2 5283   0.254   1.091   6.072
 1681WAT      O 5284   4.131   6.446   4.992
 1681WAT     H1 5285   4.136   6.531   4.940
 1681WAT     H2 5286   4.036   6.413   4.995
 1682WAT      O 5287   2.696   3.886   4.957
 1682WAT     H1 5288   2.655   3.909   5.045
 1682WAT     H2 5289   2.629   3.840   4.900
 1683WAT      O 5290   9.365   4.836   9.740
 1683WAT     H1 5291   9.422   4.794   9.810
 1683WAT     H2 5292   9.421   4.858   9.660
 1684WAT      O 5293   2.961   5.269   3.223
 1684WAT     H1 5294   2.908   5.214   3.287
 1684WAT     H2 5295   3.014   5.210   3.163
 1685WAT      O 5296   7.617   2.722   0.024
 1685WAT     H1 5297   7.705   2.677   0.009
 1685WAT     H2 5298   7.624   2.784   0.103
 1686WAT      O 5299   9.016   3.487   9.206
 1686WAT     H1 5300   9.067   3.506   9.289
 1686WAT     H2 5301   8.918   3.478   9.228
 1687WAT      O 5302   1.980   3.482   1.747
 1687WAT     H1 5303   1.913   3.556   1.757
 1687WAT     H2 5304   2.026   3.491   1.659
 1688WAT      O 5305   7.590   6.281   8.536
 1688WAT     H1 5306   7.600   6.363   8.479
 1688WAT     H2 5307   7.680   6.242   8.555
 1689WAT      O 5308   6.624   2.187   2.585
 1689WAT     H1 5309   6.669   2.275   2.599
 1689WAT     H2 5310   6.557   2.195   2.512
 1690WAT      O 5311   1.716   1.553   6.872
 1690WAT     H1 5312   1.740   1.650   6.875
 1690WAT     H2 5313   1.774   1.506   6.806
 1691WAT      O 5314   3.172   0.775   5.836
 1691WAT     H1 5315   3.173   0.875   5.825
 1691WAT     H2 5316   3.124   0.751   5.920
 1692WAT      O 5317   7.835   6.690   2.305
 1692WAT     H1 5318   7.755   6.662   2.357
 1692WAT     H2 5319   7.899   6.738   2.364
 1693WAT      O 5320   8.901   6.875   7.570
 1693WAT     H1 5321   8.858   6.958   7.534
 1693WAT     H2 5322   8.986   6.899   7.616
 1694WAT      O 5323   0.686   0.124   3.972
 1694WAT     H1 5324   0.673   0.046   3.910
 1694WAT     H2 5325   0.783   0.136   3.991
 1695WAT      O 5326   0.455   4.102   0.883
 1695WAT     H1 5327   0.373   4.117   0.828
 1695WAT     H2 5328   0.517   4.041   0.834
 1696WAT      O 5329   4.433   6.570   2.231
 1696WAT     H1 5330   4.355   6.523   2.271
 1696WAT     H2 5331   4.402   6.638   2.166
 1697WAT      O 5332   5.767   1.258   6.149
 1697WAT     H1 5333   5.802   1.343   6.110
 1697WAT     H2 5334   5.686   1.228   6.098
 1698WAT      O 5335   5.858   2.315   3.375
 1698WAT     H1 5336   5.952   2.333   3.346
 1698WAT     H2 5337   5.841   2.216   3.373
 1699WAT      O 5338   6.247   4.286   2.613
 1699WAT     H1 5339   6.182   4.216   2.645
 1699WAT     H2 5340   6.336   4.270   2.655
 1700WAT      O 5341   3.414   4.826   9.408
 1700WAT     H1 5342   3.326   4.845   9.366
 1700WAT     H2 5343   3.401   4.770   9.490
 1701WAT      O 5344   9.315   6.077   3.766
 1701WAT     H1 5345   9.302   6.116   3.675
 1701WAT     H2 5346   9.347   6.149   3.829
 1702WAT      O 5347   9.426   6.406   2.727
 1702WAT     H1 5348   9.411   6.487   2.784
 1702WAT     H2 5349   9.523   6.401   2.700
 1703WAT      O 5350   3.223   9.515   5.372
 1703WAT     H1 5351   3.223   9.425   5.330
 1703WAT     H2 5352   3.190   9.583   5.306
 1704WAT      O 5353   2.559   0.484   3.780
 1704WAT     H1 5354   2.621   0.407   3.798
 1704WAT     H2 5355   2.514   0.470   3.692
 1705WAT      O 5356   5.242   4.843   4.222
 1705WAT     H1 5357   5.294   4.780   4.164
 1705WAT     H2 5358   5.305   4.908   4.265
 1706WAT      O 5359   2.963   8.705   0.727
 1706WAT     H1 5360   3.053   8.707   0.771
 1706WAT     H2 5361   2.950   8.789   0.673
 1707WAT      O 5362   3.244   6.561   5.403
 1707WAT     H1 5363   3.219   6.618   5.325
 1707WAT     H2 5364   3.165   6.551   5.464
 1708WAT      O 5365   8.922   5.492   7.759
 1708WAT     H1 5366   9.016   5.516   7.735
 1708WAT     H2 5367   8.875   5.574   7.793
 1709WAT      O 5368   3.040   2.369   9.637
 1709WAT     H1 5369   2.988   2.322   9.708
 1709WAT     H2 5370   2.997   2.353   9.548
 1710WAT      O 5371   0.221   2.068   4.698
 1710WAT     H1 5372   0.207   2.001   4.625
 1710WAT     H2 5373   0.165   2.043   4.777
 1711WAT      O 5374   7.989   5.511   2.697
 1711WAT     H1 5375   8.041   5.595   2.692
 1711WAT     H2 5376   8.046   5.439   2.738
 1712WAT      O 5377   8.121   2.305   7.186
 1712WAT     H1 5378   8.029   2.342   7.199
 1712WAT     H2 5379   8.122   2.241   7.109
 1713WAT      O 5380   8.568   1.286   4.884
 1713WAT     H1 5381   8.665   1.266   4.893
 1713WAT     H2 5382   8.533   1.245   4.800
 1714WAT      O 5383   7.956   3.955   4.814
 1714WAT     H1 5384   8.007   3.948   4.729
 1714WAT     H2 5385   7.891   4.031   4.808
 1715WAT      O 5386   9.410   3.460   5.830
 1715WAT     H1 5387   9.319   3.419   5.824
 1715WAT     H2 5388   9.435   3.471   5.926
 1716WAT      O 5389   4.682   2.493   7.061
 1716WAT     H1 5390   4.612   2.424   7.044
 1716WAT     H2 5391   4.770   2.448   7.078
 1717WAT      O 5392   5.283   3.748   4.310
 1717WAT     H1 5393   5.360   3.694   4.275
 1717WAT     H2 5394   5.214   3.687   4.348
 1718WAT      O 5395   2.109   3.969   7.969
 1718WAT     H1 5396   2.161   3.994   7.887
 1718WAT     H2 5397   2.170   3.969   8.048
 1719WAT      O 5398   2.035   0.634   4.793
 1719WAT     H1 5399   2.069   0.591   4.877
 1719WAT     H2 5400   1.980   0.568   4.742
 1720WAT      O 5401   2.318   8.243   3.166
 1720WAT     H1 5402   2.414   8.272   3.168
 1720WAT     H2 5403   2.271   8.276   3.248
 1721WAT      O 5404   4.986   8.442   9.248
 1721WAT     H1 5405   5.054   8.428   9.321
 1721WAT     H2 5406   5.032   8.467   9.163
 1722WAT      O 5407   0.331   8.163   3.418
 1722WAT     H1 5408   0.310   8.067   3.397
 1722WAT     H2 5409   0.281   8.223   3.356
 1723WAT      O 5410   4.645   2.725   3.571
 1723WAT     H1 5411   4.688   2.732   3.481
 1723WAT     H2 5412   4.610   2.814   3.599
 1724WAT      O 5413   4.804   9.014   7.963
 1724WAT     H1 5414   4.891   9.003   7.915
 1724WAT     H2 5415   4.818   9.002   8.061
 1725WAT      O 5416   4.713   2.261   9.017
 1725WAT     H1 5417   4.688   2.339   8.959
 1725WAT     H2 5418   4.660   2.264   9.101
 1726WAT      O 5419   5.338   6.589   2.197
 1726WAT     H1 5420   5.276   6.624   2.127
 1726WAT     H2 5421   5.312   6.626   2.286
 1727WAT      O 5422   3.337   5.751   7.463
 1727WAT     H1 5423   3.430   5.781   7.487
 1727WAT     H2 5424   3.315   5.668   7.514
 1728WAT      O 5425   0.884   6.094   7.155
 1728WAT     H1 5426   0.945   6.085   7.234
 1728WAT     H2 5427   0.902   6.020   7.090
 1729WAT      O 5428   0.132   5.205   6.342
 1729WAT     H1 5429   0.052   5.218   6.401
 1729WAT     H2 5430   0.118   5.124   6.285
 1730WAT      O 5431   4.747   4.235   2.548
 1730WAT     H1 5432   4.678   4.293   2.591
 1730WAT     H2 5433   4.799   4.187   2.620
 1731WAT      O 5434   2.532   6.803   3.994
 1731WAT     H1 5435   2.527   6.899   3.965
 1731WAT     H2 5436   2.628   6.777   4.007
 1732WAT      O 5437   3.653   9.755   4.696
 1732WAT     H1 5438   3.715   9.728   4.770
 1732WAT     H2 5439   3.631   9.852   4.705
 1733WAT      O 5440   8.900   7.665   6.479
 1733WAT     H1 5441   8.811   7.620   6.472
 1733WAT     H2 5442   8.948   7.632   6.561
 1734WAT      O 5443   3.440   2.065   1.275
 1734WAT     H1 5444   3.484   2.149   1.241
 1734WAT     H2 5445   3.504   2.015   1.333
 1735WAT      O 5446   2.359   0.955   5.041
 1735WAT     H1 5447   2.360   0.881   4.974
 1735WAT     H2 5448   2.378   0.918   5.132
 1736WAT      O 5449   9.523   7.250   7.084
 1736WAT     H1 5450   9.585   7.199   7.025
 1736WAT     H2 5451   9.555   7.245   7.179
 1737WAT      O 5452   7.731   1.498   4.920
 1737WAT     H1 5453   7.781   1.482   5.005
 1737WAT     H2 5454   7.633   1.482   4.936
 1738WAT      O 5455   9.396   2.493   1.904
 1738WAT     H1 5456   9.415   2.582   1.944
 1738WAT     H2 5457   9.298   2.486   1.884
 1739WAT      O 5458   2.200   3.421   5.144
 1739WAT     H1 5459   2.250   3.338   5.120
 1739WAT     H2 5460   2.219   3.445   5.239
 1740WAT      O 5461   6.899   8.096   9.434
 1740WAT     H1 5462   6.884   8.052   9.523
 1740WAT     H2 5463   6.813   8.130   9.398
 1741WAT      O 5464   0.562   9.466   2.372
 1741WAT     H1 5465   0.591   9.546   2.423
 1741WAT     H2 5466   0.470   9.440   2.400
 1742WAT      O 5467   2.074   6.732   6.678
 1742WAT     H1 5468   2.091   6.704   6.772
 1742WAT     H2 5469   2.086   6.653   6.617
 1743WAT      O 5470   6.164   6.760   7.741
 1743WAT     H1 5471   6.099   6.684   7.746
 1743WAT     H2 5472   6.150   6.821   7.819
 1744WAT      O 5473   3.797   3.154   6.676
 1744WAT     H1 5474   3.769   3.118   6.587
 1744WAT     H2 5475   3.715   3.176   6.730
 1745WAT      O 5476   5.755   1.929   3.418
 1745WAT     H1 5477   5.755   1.831   3.397
 1745WAT     H2 5478   5.728   1.942   3.514
 1746WAT      O 5479   6.636   9.712   4.276
 1746WAT     H1 5480   6.641   9.798   4.226
 1746WAT     H2 5481   6.710   9.709   4.344
 1747WAT      O 5482   1.582   7.349   1.812
 1747WAT     H1 5483   1.548   7.344   1.718
 1747WAT     H2 5484   1.597   7.445   1.835
 1748WAT      O 5485   4.232   4.404   3.397
 1748WAT     H1 5486   4.181   4.459   3.330
 1748WAT     H2 5487   4.170   4.373   3.468
 1749WAT      O 5488   3.895   9.384   8.211
 1749WAT     H1 5489   3.809   9.421   8.176
 1749WAT     H2 5490   3.933   9.448   8.278
 1750WAT      O 5491   7.024   5.527   3.449
 1750WAT     H1 5492   7.043   5.435   3.485
 1750WAT     H2 5493   7.087   5.592   3.492
 1751WAT      O 5494   1.872   2.534   5.701
 1751WAT     H1 5495   1.830   2.584   5.776
 1751WAT     H2 5496   1.802   2.508   5.635
 1752WAT      O 5497   2.770   6.072   1.325
 1752WAT     H1 5498   2.718   6.009   1.382
 1752WAT     H2 5499   2.854   6.027   1.294
 1753WAT      O 5500   3.690   9.347   3.799
 1753WAT     H1 5501   3.651   9.429   3.756
 1753WAT     H2 5502   3.617   9.281   3.816
 1754WAT      O 5503   6.140   7.125   1.987
 1754WAT     H1 5504   6.181   7.201   2.036
 1754WAT     H2 5505   6.040   7.129   1.995
 1755WAT      O 5506   8.381   7.162   4.878
 1755WAT     H1 5507   8.293   7.122   4.852
 1755WAT     H2 5508   8.430   7.192   4.796
 1756WAT      O 5509   4.036   5.375   9.851
 1756WAT     H1 5510   4.035   5.392   9.950
 1756WAT     H2 5511   4.121   5.330   9.826
 1757WAT      O 5512   5.112   0.347   8.057
 1757WAT     H1 5513   5.134   0.379   8.149
 1757WAT     H2 5514   5.023   0.385   8.029
 1758WAT      O 5515   3.354   7.266   8.814
 1758WAT     H1 5516   3.449   7.293   8.798
 1758WAT     H2 5517   3.339   7.173   8.781
 1759WAT      O 5518   4.829   7.237   4.830
 1759WAT     H1 5519   4.730   7.252   4.824
 1759WAT     H2 5520   4.849   7.142   4.805
 1760WAT      O 5521   9.407   9.001   1.206
 1760WAT     H1 5522   9.480   9.005   1.137
 1760WAT     H2 5523   9.318   9.013   1.162
 1761WAT      O 5524   3.832   8.504   3.746
 1761WAT     H1 5525   3.901   8.462   3.806
 1761WAT     H2 5526   3.765   8.435   3.719
 1762WAT      O 5527   2.927   3.242   5.741
 1762WAT     H1 5528   2.830   3.264   5.733
 1762WAT     H2 5529   2.980   3.299   5.678
 1763WAT      O 5530   8.123   2.206   5.992
 1763WAT     H1 5531   8.114   2.206   5.892
 1763WAT     H2 5532   8.220   2.217   6.017
 1764WAT      O 5533   6.064   5.494   3.646
 1764WAT     H1 5534   6.105   5.527   3.731
 1764WAT     H2 5535   5.975   5.538   3.632
 1765WAT      O 5536   5.599   2.232   8.433
 1765WAT     H1 5537   5.649   2.178   8.501
 1765WAT     H2 5538   5.599   2.183   8.346
 1766WAT      O 5539   2.135   5.649   0.922
 1766WAT     H1 5540   2.169   5.650   1.016
 1766WAT     H2 5541   2.137   5.742   0.885
 1767WAT      O 5542   6.320   4.339   9.881
 1767WAT     H1 5543   6.226   4.344   9.913
 1767WAT     H2 5544   6.329   4.265   9.815
 1768WAT      O 5545   3.519   9.123   9.762
 1768WAT     H1 5546   3.451   9.174   9.709
 1768WAT     H2 5547   3.501   9.025   9.756
 1769WAT      O 5548   0.687   4.203   3.001
 1769WAT     H1 5549   0.740   4.208   3.086
 1769WAT     H2 5550   0.628   4.284   2.994
 1770WAT      O 5551   0.362   6.158   6.408
 1770WAT     H1 5552   0.415   6.138   6.491
 1770WAT     H2 5553   0.308   6.078   6.383
 1771WAT      O 5554   7.032   6.891   3.393
 1771WAT     H1 5555   7.014   6.979   3.437
 1771WAT     H2 5556   7.112   6.899   3.333
 1772WAT      O 5557   3.113   4.160   0.683
 1772WAT     H1 5558   3.136   4.254   0.707
 1772WAT     H2 5559   3.195   4.103   0.689
 1773WAT      O 5560   8.417   8.975   3.943
 1773WAT     H1 5561   8.360   9.053   3.970
 1773WAT     H2 5562   8.486   8.958   4.013
 1774WAT      O 5563   5.175   6.843   5.067
 1774WAT     H1 5564   5.142   6.762   5.116
 1774WAT     H2 5565   5.097   6.901   5.042
 1775WAT      O 5566   6.451   7.486   9.226
 1775WAT     H1 5567   6.441   7.466   9.323
 1775WAT     H2 5568   6.415   7.410   9.172
 1776WAT      O 5569   8.568   7.334   7.602
 1776WAT     H1 5570   8.628   7.363   7.527
 1776WAT     H2 5571   8.520   7.250   7.577
 1777WAT      O 5572   6.156   7.299   4.694
 1777WAT     H1 5573   6.182   7.238   4.619
 1777WAT     H2 5574   6.180   7.393   4.669
 1778WAT      O 5575   6.559   1.170   8.714
 1778WAT     H1 5576   6.603   1.121   8.789
 1778WAT     H2 5577   6.544   1.266   8.741
 1779WAT      O 5578   6.970   9.203   6.071
 1779WAT     H1 5579   6.874   9.195   6.097
 1779WAT     H2 5580   6.977   9.259   5.988
 1780WAT      O 5581   2.710   9.293   0.488
 1780WAT     H1 5582   2.722   9.272   0.391
 1780WAT     H2 5583   2.796   9.275   0.537
 1781WAT      O 5584   7.465   3.694   1.746
 1781WAT     H1 5585   7.455   3.594   1.748
 1781WAT     H2 5586   7.560   3.717   1.724
 1782WAT      O 5587   3.781   6.922   5.620
 1782WAT     H1 5588   3.691   6.961   5.600
 1782WAT     H2 5589   3.799   6.844   5.560
 1783WAT      O 5590   4.501   4.139   5.953
 1783WAT     H1 5591   4.523   4.140   6.050
 1783WAT     H2 5592   4.556   4.069   5.907
 1784WAT      O 5593   8.386   8.987   5.375
 1784WAT     H1 5594   8.428   8.978   5.285
 1784WAT     H2 5595   8.289   9.007   5.365
 1785WAT      O 5596   1.782   3.888   9.234
 1785WAT     H1 5597   1.707   3.952   9.250
 1785WAT     H2 5598   1.819   3.857   9.322
 1786WAT      O 5599   5.509   9.293   2.657
 1786WAT     H1 5600   5.505   9.340   2.745
 1786WAT     H2 5601   5.563   9.209   2.666
 1787WAT      O 5602   4.625   1.358   2.384
 1787WAT     H1 5603   4.706   1.306   2.355
 1787WAT     H2 5604   4.591   1.320   2.470
 1788WAT      O 5605   5.985   0.850   8.426
 1788WAT     H1 5606   6.079   0.879   8.440
 1788WAT     H2 5607   5.927   0.890   8.497
 1789WAT      O 5608   3.260   9.359   0.967
 1789WAT     H1 5609   3.195   9.417   1.017
 1789WAT     H2 5610   3.227   9.264   0.969
 1790WAT      O 5611   0.930   2.152   0.877
 1790WAT     H1 5612   0.928   2.086   0.953
 1790WAT     H2 5613   0.872   2.230   0.901
 1791WAT      O 5614   4.550   5.467   0.256
 1791WAT     H1 5615   4.638   5.510   0.274
 1791WAT     H2 5616   4.527   5.478   0.159
 1792WAT      O 5617   6.828   7.941   9.650
 1792WAT     H1 5618   6.847   7.903   9.741
 1792WAT     H2 5619   6.781   7.873   9.595
 1793WAT      O 5620   5.910   3.009   2.248
 1793WAT     H1 5621   5.995   3.020   2.301
 1793WAT     H2 5622   5.884   2.912   2.248
 1794WAT      O 5623   1.730   6.036   1.846
 1794WAT     H1 5624   1.789   5.955   1.845
 1794WAT     H2 5625   1.700   6.057   1.753
 1795WAT      O 5626   3.298   8.929   0.789
 1795WAT     H1 5627   3.395   8.952   0.785
 1795WAT     H2 5628   3.287   8.830   0.799
 1796WAT      O 5629   8.887   1.536   1.056
 1796WAT     H1 5630   8.824   1.599   1.010
 1796WAT     H2 5631   8.912   1.573   1.145
 1797WAT      O 5632   1.904   1.410   2.313
 1797WAT     H1 5633   1.826   1.385   2.256
 1797WAT     H2 5634   1.942   1.328   2.356
 1798WAT      O 5635   3.306   6.480   2.547
 1798WAT     H1 5636   3.215   6.519   2.539
 1798WAT     H2 5637   3.373   6.554   2.559
 1799WAT      O 5638   1.520   9.595   4.647
 1799WAT     H1 5639   1.451   9.552   4.705
 1799WAT     H2 5640   1.561   9.527   4.587
 1800WAT      O 5641   0.500   8.910   7.893
 1800WAT     H1 5642   0.518   8.962   7.810
 1800WAT     H2 5643   0.554   8.826   7.893
 1801WAT      O 5644   5.804   8.451   5.480
 1801WAT     H1 5645   5.904   8.446   5.481
 1801WAT     H2 5646   5.776   8.547   5.471
 1802WAT      O 5647   3.950   1.979   3.169
 1802WAT     H1 5648   3.881   1.958   3.100
 1802WAT     H2 5649   3.938   2.073   3.201
 1803WAT      O 5650   4.372   9.238   5.137
 1803WAT     H1 5651   4.391   9.310   5.070
 1803WAT     H2 5652   4.440   9.242   5.210
 1804WAT      O 5653   7.492   8.258   5.935
 1804WAT     H1 5654   7.425   8.252   6.008
 1804WAT     H2 5655   7.571   8.311   5.967
 1805WAT      O 5656   6.380   6.390   8.808
 1805WAT     H1 5657   6.365   6.293   8.787
 1805WAT     H2 5658   6.420   6.399   8.899
 1806WAT      O 5659   8.934   1.118   6.133
 1806WAT     H1 5660   8.979   1.048   6.078
 1806WAT     H2 5661   9.002   1.182   6.168
 1807WAT      O 5662   7.571   6.075   1.192
 1807WAT     H1 5663   7.633   6.054   1.268
 1807WAT     H2 5664   7.619   6.063   1.106
 1808WAT      O 5665   5.398   4.670   9.199
 1808WAT     H1 5666   5.469   4.682   9.268
 1808WAT     H2 5667   5.419   4.727   9.120
 1809WAT      O 5668   6.254   5.006   7.203
 1809WAT     H1 5669   6.160   5.027   7.176
 1809WAT     H2 5670   6.307   5.090   7.210
 1810WAT      O 5671   5.232   8.155   0.711
 1810WAT     H1 5672   5.242   8.072   0.656
 1810WAT     H2 5673   5.315   8.210   0.703
 1811WAT      O 5674   4.155   6.516   9.033
 1811WAT     H1 5675   4.227   6.453   9.062
 1811WAT     H2 5676   4.162   6.532   8.934
 1812WAT      O 5677   7.768   4.787   2.366
 1812WAT     H1 5678   7.717   4.739   2.437
 1812WAT     H2 5679   7.807   4.721   2.302
 1813WAT      O 5680   5.750   1.165   5.207
 1813WAT     H1 5681   5.742   1.231   5.281
 1813WAT     H2 5682   5.766   1.213   5.121
 1814WAT      O 5683   6.633   4.203   8.036
 1814WAT     H1 5684   6.713   4.243   7.992
 1814WAT     H2 5685   6.566   4.178   7.967
 1815WAT      O 5686   6.117   7.105   2.858
 1815WAT     H1 5687   6.106   7.137   2.953
 1815WAT     H2 5688   6.161   7.016   2.858
 1816WAT      O 5689   4.445   6.918   9.254
 1816WAT     H1 5690   4.539   6.884   9.256
 1816WAT     H2 5691   4.443   7.009   9.213
 1817WAT      O 5692   4.989   5.268   4.038
 1817WAT     H1 5693   4.926   5.337   4.073
 1817WAT     H2 5694   4.941   5.183   4.023
 1818WAT      O 5695   5.054   2.731   9.871
 1818WAT     H1 5696   5.062   2.632   9.855
 1818WAT     H2 5697   5.046   2.779   9.784
 1819WAT      O 5698   7.542   4.765   4.151
 1819WAT     H1 5699   7.610   4.697   4.124
 1819WAT     H2 5700   7.493   4.733   4.232
 1820WAT      O 5701   2.799   0.647   6.705
 1820WAT     H1 5702   2.829   0.715   6.639
 1820WAT     H2 5703   2.799   0.556   6.663
 1821WAT      O 5704   7.397   4.060   9.551
 1821WAT     H1 5705   7.312   4.013   9.526
 1821WAT     H2 5706   7.420   4.127   9.481
 1822WAT      O 5707   9.011   2.007   8.075
 1822WAT     H1 5708   9.083   2.050   8.021
 1822WAT     H2 5709   8.950   1.955   8.015
 1823WAT      O 5710   2.178   1.493   1.256
 1823WAT     H1 5711   2.139   1.403   1.234
 1823WAT     H2 5712   2.126   1.564   1.208
 1824WAT      O 5713   0.247   9.291   7.056
 1824WAT     H1 5714   0.342   9.278   7.028
 1824WAT     H2 5715   0.227   9.230   7.133
 1825WAT      O 5716   0.698   4.653   1.763
 1825WAT     H1 5717   0.714   4.583   1.833
 1825WAT     H2 5718   0.695   4.743   1.806
 1826WAT      O 5719   6.317   8.279   5.779
 1826WAT     H1 5720   6.291   8.246   5.689
 1826WAT     H2 5721   6.398   8.336   5.772
 1827WAT      O 5722   9.439   3.381   8.436
 1827WAT     H1 5723   9.457   3.340   8.347
 1827WAT     H2 5724   9.525   3.398   8.483
 1828WAT      O 5725   5.087   2.492   6.530
 1828WAT     H1 5726   5.058   2.584   6.560
 1828WAT     H2 5727   5.181   2.496   6.498
 1829WAT      O 5728   8.320   4.868   7.268
 1829WAT     H1 5729   8.292   4.807   7.194
 1829WAT     H2 5730   8.412   4.903   7.248
 1830WAT      O 5731   5.545   1.495   3.312
 1830WAT     H1 5732   5.506   1.480   3.403
 1830WAT     H2 5733   5.483   1.457   3.243
 1831WAT      O 5734   8.676   0.097   0.737
 1831WAT     H1 5735   8.701   0.079   0.641
 1831WAT     H2 5736   8.609   0.171   0.740
 1832WAT      O 5737   8.136   7.171   6.103
 1832WAT     H1 5738   8.216   7.187   6.046
 1832WAT     H2 5739   8.104   7.257   6.142
 1833WAT      O 5740   1.845   9.415   6.343
 1833WAT     H1 5741   1.779   9.438   6.271
 1833WAT     H2 5742   1.860   9.495   6.401
 1834WAT      O 5743   5.437   2.883   0.903
 1834WAT     H1 5744   5.448   2.783   0.898
 1834WAT     H2 5745   5.340   2.906   0.895
 1835WAT      O 5746   4.271   6.623   0.522
 1835WAT     H1 5747   4.301   6.607   0.428
 1835WAT     H2 5748   4.267   6.721   0.539
 1836WAT      O 5749   3.582   8.997   1.691
 1836WAT     H1 5750   3.627   9.011   1.603
 1836WAT     H2 5751   3.641   8.942   1.750
 1837WAT      O 5752   6.825   7.443   3.434
 1837WAT     H1 5753   6.859   7.353   3.461
 1837WAT     H2 5754   6.897   7.511   3.445
 1838WAT      O 5755   0.768   6.408   6.282
 1838WAT     H1 5756   0.782   6.343   6.207
 1838WAT     H2 5757   0.852   6.416   6.336
 1839WAT      O 5758   9.148   6.882   6.499
 1839WAT     H1 5759   9.229   6.848   6.452
 1839WAT     H2 5760   9.117   6.814   6.565
 1840WAT      O 5761   4.203   8.145   7.561
 1840WAT     H1 5762   4.124   8.085   7.555
 1840WAT     H2 5763   4.199   8.197   7.646
 1841WAT      O 5764   6.442   1.878   8.221
 1841WAT     H1 5765   6.414   1.800   8.277
 1841WAT     H2 5766   6.525   1.918   8.260
 1842WAT      O 5767   3.394   3.276   2.701
 1842WAT     H1 5768   3.403   3.290   2.800
 1842WAT     H2 5769   3.309   3.316   2.669
 1843WAT      O 5770   9.624   3.593   3.927
 1843WAT     H1 5771   9.526   3.610   3.930
 1843WAT     H2 5772   9.647   3.539   3.845
 1844WAT      O 5773   8.232   9.221   1.705
 1844WAT     H1 5774   8.194   9.192   1.793
 1844WAT     H2 5775   8.243   9.321   1.705
 1845WAT      O 5776   1.410   4.238   2.538
 1845WAT     H1 5777   1.420   4.141   2.558
 1845WAT     H2 5778   1.458   4.260   2.453
 1846WAT      O 5779   2.194   3.320   7.309
 1846WAT     H1 5780   2.230   3.319   7.216
 1846WAT     H2 5781   2.256   3.373   7.367
 1847WAT      O 5782   5.487   0.403   1.240
 1847WAT     H1 5783   5.398   0.392   1.196
 1847WAT     H2 5784   5.475   0.435   1.334
 1848WAT      O 5785   9.350   7.295   7.895
 1848WAT     H1 5786   9.333   7.390   7.921
 1848WAT     H2 5787   9.329   7.235   7.972
 1849WAT      O 5788   1.533   7.457   1.022
 1849WAT     H1 5789   1.519   7.391   1.096
 1849WAT     H2 5790   1.585   7.535   1.057
 1850WAT      O 5791   4.315   2.981   4.174
 1850WAT     H1 5792   4.343   3.070   4.208
 1850WAT     H2 5793   4.248   2.993   4.101
 1851WAT      O 5794   5.462   7.390   0.903
 1851WAT     H1 5795   5.362   7.378   0.898
 1851WAT     H2 5796   5.503   7.361   0.817
 1852WAT      O 5797   5.912   9.470   6.697
 1852WAT     H1 5798   5.866   9.552   6.731
 1852WAT     H2 5799   5.844   9.409   6.657
 1853WAT      O 5800   7.988   5.764   7.323
 1853WAT     H1 5801   7.899   5.795   7.291
 1853WAT     H2 5802   8.010   5.675   7.283
 1854WAT      O 5803   2.148   3.676   6.701
 1854WAT     H1 5804   2.073   3.640   6.645
 1854WAT     H2 5805   2.126   3.768   6.732
 1855WAT      O 5806   8.810   9.483   6.236
 1855WAT     H1 5807   8.881   9.472   6.306
 1855WAT     H2 5808   8.853   9.506   6.149
 1856WAT      O 5809   9.039   3.800   2.606
 1856WAT     H1 5810   9.086   3.776   2.521
 1856WAT     H2 5811   9.087   3.759   2.683
 1857WAT      O 5812   1.036   1.513   9.601
 1857WAT     H1 5813   1.122   1.534   9.648
 1857WAT     H2 5814   1.054   1.447   9.527
 1858WAT      O 5815   9.427   5.135   1.285
 1858WAT     H1 5816   9.429   5.090   1.374
 1858WAT     H2 5817   9.461   5.228   1.294
 1859WAT      O 5818   4.146   9.376   6.162
 1859WAT     H1 5819   4.073   9.337   6.106
 1859WAT     H2 5820   4.171   9.466   6.124
 1860WAT      O 5821   3.711   0.965   0.657
 1860WAT     H1 5822   3.636   1.027   0.679
 1860WAT     H2 5823   3.792   0.989   0.710
 1861WAT      O 5824   5.587   1.678   9.513
 1861WAT     H1 5825   5.505   1.673   9.569
 1861WAT     H2 5826   5.667   1.649   9.566
 1862WAT      O 5827   9.716   8.855   7.221
 1862WAT     H1 5828   9.626   8.890   7.194
 1862WAT     H2 5829   9.752   8.798   7.147
 1863WAT      O 5830   6.363   7.216   5.878
 1863WAT     H1 5831   6.367   7.315   5.896
 1863WAT     H2 5832   6.270   7.191   5.853
 1864WAT      O 5833   6.599   3.613   3.283
 1864WAT     H1 5834   6.621   3.539   3.219
 1864WAT     H2 5835   6.499   3.623   3.290
 1865WAT      O 5836   3.733   7.774   4.839
 1865WAT     H1 5837   3.813   7.824   4.873
 1865WAT     H2 5838   3.663   7.773   4.910
 1866WAT      O 5839   0.282   4.795   9.249
 1866WAT     H1 5840   0.228   4.845   9.182
 1866WAT     H2 5841   0.244   4.704   9.262
 1867WAT      O 5842   2.504   1.795   2.173
 1867WAT     H1 5843   2.504   1.877   2.116
 1867WAT     H2 5844   2.534   1.819   2.265
 1868WAT      O 5845   0.743   0.420   1.004
 1868WAT     H1 5846   0.658   0.368   1.000
 1868WAT     H2 5847   0.806   0.376   1.067
 1869WAT      O 5848   3.285   8.635   0.007
 1869WAT     H1 5849   3.237   8.578   0.074
 1869WAT     H2 5850   3.309   8.578  -0.072
 1870WAT      O 5851   5.703   4.421   7.924
 1870WAT     H1 5852   5.634   4.441   7.855
 1870WAT     H2 5853   5.728   4.505   7.972
 1871WAT      O 5854   0.900   4.743   0.221
 1871WAT     H1 5855   0.819   4.798   0.242
 1871WAT     H2 5856   0.945   4.779   0.139
 1872WAT      O 5857   2.418   2.047   9.397
 1872WAT     H1 5858   2.475   1.968   9.376
 1872WAT     H2 5859   2.371   2.033   9.484
 1873WAT      O 5860   2.342   8.697   4.004
 1873WAT     H1 5861   2.398   8.683   4.085
 1873WAT     H2 5862   2.304   8.609   3.974
 1874WAT      O 5863   1.509   0.496   5.293
 1874WAT     H1 5864   1.510   0.529   5.199
 1874WAT     H2 5865   1.602   0.478   5.324
 1875WAT      O 5866   0.204   7.344   0.048
 1875WAT     H1 5867   0.296   7.367   0.079
 1875WAT     H2 5868   0.207   7.262  -0.009
 1876WAT      O 5869   4.777   6.851   0.991
 1876WAT     H1 5870   4.846   6.782   0.971
 1876WAT     H2 5871   4.757   6.851   1.089
 1877WAT      O 5872   5.008   9.362   2.258
 1877WAT     H1 5873   4.983   9.310   2.340
 1877WAT     H2 5874   5.016   9.300   2.180
 1878WAT      O 5875   8.282   1.469   0.432
 1878WAT     H1 5876   8.374   1.506   0.450
 1878WAT     H2 5877   8.262   1.397   0.498
 1879WAT      O 5878   7.773   4.630   8.263
 1879WAT     H1 5879   7.773   4.546   8.209
 1879WAT     H2 5880   7.824   4.615   8.348
 1880WAT      O 5881   7.534   2.331   4.844
 1880WAT     H1 5882   7.527   2.313   4.942
 1880WAT     H2 5883   7.617   2.287   4.808
 1881WAT      O 5884   3.819   1.542   6.330
 1881WAT     H1 5885   3.909   1.570   6.364
 1881WAT     H2 5886   3.750   1.610   6.358
 1882WAT      O 5887   6.699   4.033   4.328
 1882WAT     H1 5888   6.772   3.967   4.313
 1882WAT     H2 5889   6.627   3.992   4.384
 1883WAT      O 5890   9.802   6.460   4.803
 1883WAT     H1 5891   9.839   6.367   4.802
 1883WAT     H2 5892   9.729   6.466   4.871
 1884WAT      O 5893   8.009   4.849   8.524
 1884WAT     H1 5894   7.994   4.751   8.538
 1884WAT     H2 5895   8.078   4.883   8.588
 1885WAT      O 5896   6.490   6.411   7.718
 1885WAT     H1 5897   6.435   6.476   7.770
 1885WAT     H2 5898   6.434   6.333   7.692
 1886WAT      O 5899   6.637   0.079   5.389
 1886WAT     H1 5900   6.718   0.136   5.390
 1886WAT     H2 5901   6.584   0.095   5.473
 1887WAT      O 5902   9.004   4.693   9.534
 1887WAT     H1 5903   9.030   4.740   9.618
 1887WAT     H2 5904   9.028   4.596   9.542
 1888WAT      O 5905   5.548   0.725   3.860
 1888WAT     H1 5906   5.456   0.764   3.850
 1888WAT     H2 5907   5.561   0.695   3.955
 1889WAT      O 5908   4.101   0.437   3.254
 1889WAT     H1 5909   4.178   0.488   3.291
 1889WAT     H2 5910   4.038   0.500   3.209
 1890WAT      O 5911   6.073   8.385   5.483
 1890WAT     H1 5912   6.138   8.413   5.412
 1890WAT     H2 5913   6.100   8.296   5.519
 1891WAT      O 5914   3.979   1.494   1.704
 1891WAT     H1 5915   3.894   1.544   1.690
 1891WAT     H2 5916   4.050   1.530   1.644
 1892WAT      O 5917   5.683   2.901   7.529
 1892WAT     H1 5918   5.699   2.883   7.432
 1892WAT     H2 5919   5.768   2.935   7.571
 1893WAT      O 5920   7.399   1.314   1.002
 1893WAT     H1 5921   7.494   1.288   1.019
 1893WAT     H2 5922   7.395   1.373   0.921
 1894WAT      O 5923   4.691   5.431   9.564
 1894WAT     H1 5924   4.760   5.456   9.632
 1894WAT     H2 5925   4.702   5.335   9.539
 1895WAT      O 5926   1.279   5.403   7.355
 1895WAT     H1 5927   1.272   5.502   7.369
 1895WAT     H2 5928   1.376   5.377   7.348
 1896WAT      O 5929   5.462   0.457   2.255
 1896WAT     H1 5930   5.443   0.519   2.331
 1896WAT     H2 5931   5.554   0.476   2.219
 1897WAT      O 5932   8.826   7.297   2.683
 1897WAT     H1 5933   8.791   7.246   2.761
 1897WAT     H2 5934   8.795   7.254   2.598
 1898WAT      O 5935   0.624   1.368   5.219
 1898WAT     H1 5936   0.671   1.281   5.210
 1898WAT     H2 5937   0.680   1.440   5.178
 1899WAT      O 5938   4.081   8.279   4.934
 1899WAT     H1 5939   4.067   8.377   4.919
 1899WAT     H2 5940   4.160   8.266   4.995
 1900WAT      O 5941   5.009   7.221   7.657
 1900WAT     H1 5942   5.016   7.176   7.745
 1900WAT     H2 5943   4.995   7.320   7.670
 1901WAT      O 5944   8.872   9.297   6.583
 1901WAT     H1 5945   8.933   9.356   6.529
 1901WAT     H2 5946   8.819   9.239   6.522
 1902WAT      O 5947   1.020   0.925   2.172
 1902WAT     H1 5948   1.068   0.902   2.257
 1902WAT     H2 5949   0.929   0.883   2.172
 1903WAT      O 5950   2.944   9.711   4.785
 1903WAT     H1 5951   2.912   9.802   4.761
 1903WAT     H2 5952   3.010   9.718   4.860
 1904WAT      O 5953   2.517   0.208   6.873
 1904WAT     H1 5954   2.604   0.244   6.839
 1904WAT     H2 5955   2.442   0.265   6.838
 1905WAT      O 5956   9.382   4.316   5.796
 1905WAT     H1 5957   9.442   4.370   5.854
 1905WAT     H2 5958   9.360   4.230   5.841
 1906WAT      O 5959   9.345   8.744   0.100
 1906WAT     H1 5960   9.258   8.725   0.053
 1906WAT     H2 5961   9.348   8.693   0.186
 1907WAT      O 5962   5.856   2.406   7.173
 1907WAT     H1 5963   5.777   2.393   7.233
 1907WAT     H2 5964   5.937   2.424   7.230
 1908WAT      O 5965   5.791   1.113   3.390
 1908WAT     H1 5966   5.725   1.055   3.343
 1908WAT     H2 5967   5.743   1.180   3.446
 1909WAT      O 5968   6.532   4.481   4.580
 1909WAT     H1 5969   6.564   4.542   4.508
 1909WAT     H2 5970   6.547   4.386   4.552
 1910WAT      O 5971   2.934   1.370   3.659
 1910WAT     H1 5972   2.891   1.314   3.588
 1910WAT     H2 5973   2.898   1.463   3.654
 1911WAT      O 5974   9.877   5.612   9.882
 1911WAT     H1 5975   9.842   5.553   9.809
 1911WAT     H2 5976   9.906   5.556   9.960
 1912WAT      O 5977   0.577   2.723   8.306
 1912WAT     H1 5978   0.570   2.820   8.332
 1912WAT     H2 5979   0.561   2.666   8.386
 1913WAT      O 5980   6.813   5.030   0.472
 1913WAT     H1 5981   6.877   5.006   0.399
 1913WAT     H2 5982   6.789   4.947   0.523
 1914WAT      O 5983   6.826   7.213   5.112
 1914WAT     H1 5984   6.816   7.312   5.114
 1914WAT     H2 5985   6.875   7.182   5.194
 1915WAT      O 5986   5.817   4.667   1.795
 1915WAT     H1 5987   5.852   4.759   1.818
 1915WAT     H2 5988   5.773   4.627   1.875
 1916WAT      O 5989   2.502   3.353   6.195
 1916WAT     H1 5990   2.589   3.319   6.159
 1916WAT     H2 5991   2.470   3.292   6.268
 1917WAT      O 5992   0.158   6.932   5.411
 1917WAT     H1 5993   0.251   6.896   5.405
 1917WAT     H2 5994   0.131   6.939   5.507
 1918WAT      O 5995   5.893   3.012   6.922
 1918WAT     H1 5996   5.965   2.947   6.899
 1918WAT     H2 5997   5.887   3.083   6.852
 1919WAT      O 5998   8.729   0.219   4.286
 1919WAT     H1 5999   8.709   0.127   4.254
 1919WAT     H2 6000   8.660   0.282   4.250
 1920WAT      O 6001   0.934   1.848   2.133
 1920WAT     H1 6002   0.891   1.911   2.198
 1920WAT     H2 6003   0.996   1.786   2.181
 1921WAT      O 6004   0.821   7.888   2.937
 1921WAT     H1 6005   0.782   7.883   3.029
 1921WAT     H2 6006   0.921   7.894   2.944
 1922WAT      O 6007   9.671   9.070   7.487
 1922WAT     H1 6008   9.765   9.048   7.463
 1922WAT     H2 6009   9.632   9.133   7.420
 1923WAT      O 6010   7.631   2.050   0.200
 1923WAT     H1 6011   7.598   1.959   0.177
 1923WAT     H2 6012   7.590   2.117   0.138
 1924WAT      O 6013   7.061   5.518   9.184
 1924WAT     H1 6014   7.124   5.467   9.126
 1924WAT     H2 6015   7.110   5.559   9.260
 1925WAT      O 6016   7.532   5.841   4.309
 1925WAT     H1 6017   7.603   5.839   4.380
 1925WAT     H2 6018   7.474   5.921   4.322
 1926WAT      O 6019   4.646   5.063   7.227
 1926WAT     H1 6020   4.653   5.017   7.138
 1926WAT     H2 6021   4.585   5.010   7.287
 1927WAT      O 6022   1.909   7.790   2.215
 1927WAT     H1 6023   1.920   7.857   2.288
 1927WAT     H2 6024   1.841   7.721   2.243
 1928WAT      O 6025   9.728   1.965   6.969
 1928WAT     H1 6026   9.644   1.940   7.017
 1928WAT     H2 6027   9.712   2.046   6.913
 1929WAT      O 6028   6.252   1.545   6.860
 1929WAT     H1 6029   6.283   1.450   6.852
 1929WAT     H2 6030   6.229   1.580   6.770
 1930WAT      O 6031   8.135   0.503   9.786
 1930WAT     H1 6032   8.164   0.585   9.737
 1930WAT     H2 6033   8.049   0.470   9.747
 1931WAT      O 6034   4.511   2.684   2.400
 1931WAT     H1 6035   4.480   2.764   2.348
 1931WAT     H2 6036   4.590   2.710   2.456
 1932WAT      O 6037   8.012   4.141   6.394
 1932WAT     H1 6038   7.920   4.103   6.389
 1932WAT     H2 6039   8.044   4.139   6.488
 1933WAT      O 6040   8.779   7.045   3.635
 1933WAT     H1 6041   8.744   7.138   3.626
 1933WAT     H2 6042   8.723   6.983   3.580
 1934WAT      O 6043   9.409   8.547   3.100
 1934WAT     H1 6044   9.322   8.585   3.068
 1934WAT     H2 6045   9.479   8.619   3.100
 1935WAT      O 6046   1.274   3.151   0.482
 1935WAT     H1 6047   1.276   3.058   0.445
 1935WAT     H2 6048   1.213   3.155   0.562
 1936WAT      O 6049   5.474   7.489   7.884
 1936WAT     H1 6050   5.530   7.423   7.835
 1936WAT     H2 6051   5.532   7.560   7.923
 1937WAT      O 6052   1.324   1.038   2.187
 1937WAT     H1 6053   1.285   1.120   2.230
 1937WAT     H2 6054   1.292   1.031   2.093
 1938WAT      O 6055   7.386   5.890   8.815
 1938WAT     H1 6056   7.345   5.837   8.741
 1938WAT     H2 6057   7.411   5.981   8.782
 1939WAT      O 6058   2.848   0.316   5.626
 1939WAT     H1 6059   2.840   0.411   5.656
 1939WAT     H2 6060   2.945   0.291   5.621
 1940WAT      O 6061   2.099   7.550   4.074
 1940WAT     H1 6062   2.117   7.466   4.123
 1940WAT     H2 6063   2.012   7.543   4.026
 1941WAT      O 6064   1.203   8.400   1.414
 1941WAT     H1 6065   1.298   8.429   1.405
 1941WAT     H2 6066   1.150   8.434   1.336
 1942WAT      O 6067   0.771   7.455   2.876
 1942WAT     H1 6068   0.762   7.416   2.968
 1942WAT     H2 6069   0.692   7.429   2.821
 1943WAT      O 6070   0.172   7.925   2.259
 1943WAT     H1 6071   0.211   7.852   2.316
 1943WAT     H2 6072   0.073   7.930   2.275
 1944WAT      O 6073   8.036   1.985   7.116
 1944WAT     H1 6074   7.986   1.898   7.116
 1944WAT     H2 6075   8.122   1.974   7.166
 1945WAT      O 6076   4.557   8.750   5.798
 1945WAT     H1 6077   4.614   8.699   5.862
 1945WAT     H2 6078   4.608   8.764   5.712
 1946WAT      O 6079   4.227   1.893   5.712
 1946WAT     H1 6080   4.148   1.937   5.668
 1946WAT     H2 6081   4.273   1.835   5.645
 1947WAT      O 6082   1.783   7.608   7.376
 1947WAT     H1 6083   1.801   7.706   7.384
 1947WAT     H2 6084   1.775   7.584   7.279
 1948WAT      O 6085   0.890   3.780   1.905
 1948WAT     H1 6086   0.943   3.843   1.960
 1948WAT     H2 6087   0.805   3.825   1.875
 1949WAT      O 6088   5.124   8.071   0.964
 1949WAT     H1 6089   5.124   8.105   0.870
 1949WAT     H2 6090   5.030   8.047   0.991
 1950WAT      O 6091   6.932   7.721   5.411
 1950WAT     H1 6092   7.011   7.756   5.361
 1950WAT     H2 6093   6.871   7.796   5.434
 1951WAT      O 6094   9.830   1.334   0.330
 1951WAT     H1 6095   9.777   1.417   0.347
 1951WAT     H2 6096   9.920   1.359   0.294
 1952WAT      O 6097   0.925   9.833   1.250
 1952WAT     H1 6098   0.918   9.923   1.208
 1952WAT     H2 6099   1.005   9.786   1.213
 1953WAT      O 6100   8.708   1.207   3.834
 1953WAT     H1 6101   8.668   1.227   3.924
 1953WAT     H2 6102   8.798   1.249   3.828
 1954WAT      O 6103   8.788   6.100   7.104
 1954WAT     H1 6104   8.821   6.194   7.111
 1954WAT     H2 6105   8.862   6.037   7.129
 1955WAT      O 6106   1.888   9.556   4.203
 1955WAT     H1 6107   1.931   9.644   4.224
 1955WAT     H2 6108   1.925   9.520   4.117
 1956WAT      O 6109   0.536   2.101   4.628
 1956WAT     H1 6110   0.583   2.052   4.701
 1956WAT     H2 6111   0.441   2.116   4.654
 1957WAT      O 6112   2.703   7.212   8.705
 1957WAT     H1 6113   2.730   7.142   8.772
 1957WAT     H2 6114   2.625   7.263   8.741
 1958WAT      O 6115   1.394   8.307   2.207
 1958WAT     H1 6116   1.430   8.391   2.167
 1958WAT     H2 6117   1.307   8.327   2.253
 1959WAT      O 6118   5.337   0.008   3.110
 1959WAT     H1 6119   5.280   0.056   3.176
 1959WAT     H2 6120   5.315  -0.089   3.111
 1960WAT      O 6121   4.115   2.898   0.078
 1960WAT     H1 6122   4.063   2.979   0.049
 1960WAT     H2 6123   4.195   2.887   0.020
 1961WAT      O 6124   5.692   7.762   4.178
 1961WAT     H1 6125   5.667   7.668   4.155
 1961WAT     H2 6126   5.619   7.803   4.234
 1962WAT      O 6127   6.688   3.944   2.498
 1962WAT     H1 6128   6.625   4.012   2.463
 1962WAT     H2 6129   6.755   3.921   2.427
 1963WAT      O 6130   3.529   4.877   2.031
 1963WAT     H1 6131   3.482   4.824   2.103
 1963WAT     H2 6132   3.484   4.965   2.021
 1964WAT      O 6133   5.629   8.526   6.950
 1964WAT     H1 6134   5.674   8.547   7.037
 1964WAT     H2 6135   5.547   8.471   6.968
 1965WAT      O 6136   4.951   2.390   9.799
 1965WAT     H1 6137   4.910   2.394   9.891
 1965WAT     H2 6138   4.885   2.424   9.732
 1966WAT      O 6139   6.608   4.938   8.304
 1966WAT     H1 6140   6.543   4.910   8.375
 1966WAT     H2 6141   6.680   4.870   8.297
 1967WAT      O 6142   3.879   6.464   9.623
 1967WAT     H1 6143   3.857   6.367   9.616
 1967WAT     H2 6144   3.971   6.474   9.661
 1968WAT      O 6145   9.088   6.351   1.431
 1968WAT     H1 6146   8.993   6.377   1.452
 1968WAT     H2 6147   9.147   6.431   1.438
 1969WAT      O 6148   5.595   2.422   1.096
 1969WAT     H1 6149   5.523   2.379   1.041
 1969WAT     H2 6150   5.570   2.417   1.193
 1970WAT      O 6151   1.959   9.836   0.275
 1970WAT     H1 6152   2.050   9.830   0.317
 1970WAT     H2 6153   1.924   9.929   0.286
 1971WAT      O 6154   3.639   1.735   4.761
 1971WAT     H1 6155   3.676   1.657   4.810
 1971WAT     H2 6156   3.678   1.819   4.799
 1972WAT      O 6157   5.542   8.040   8.854
 1972WAT     H1 6158   5.596   8.034   8.937
 1972WAT     H2 6159   5.566   7.965   8.792
 1973WAT      O 6160   0.592   2.105   6.620
 1973WAT     H1 6161   0.548   2.143   6.539
 1973WAT     H2 6162   0.647   2.175   6.664
 1974WAT      O 6163   3.038   4.697   1.966
 1974WAT     H1 6164   2.992   4.753   1.897
 1974WAT     H2 6165   2.986   4.702   2.052
 1975WAT      O 6166   5.870   4.700   4.617
 1975WAT     H1 6167   5.784   4.679   4.570
 1975WAT     H2 6168   5.946   4.682   4.555
 1976WAT      O 6169   3.903   0.622   4.131
 1976WAT     H1 6170   3.894   0.523   4.135
 1976WAT     H2 6171   3.999   0.648   4.139
 1977WAT      O 6172   9.756   7.567   4.817
 1977WAT     H1 6173   9.660   7.546   4.800
 1977WAT     H2 6174   9.814   7.517   4.753
 1978WAT      O 6175   6.583   7.217   9.501
 1978WAT     H1 6176   6.538   7.304   9.484
 1978WAT     H2 6177   6.532   7.166   9.571
 1979WAT      O 6178   0.186   8.987   0.099
 1979WAT     H1 6179   0.228   8.909   0.052
 1979WAT     H2 6180   0.121   8.953   0.167
 1980WAT      O 6181   1.495   0.641   1.496
 1980WAT     H1 6182   1.544   0.717   1.539
 1980WAT     H2 6183   1.423   0.678   1.436
 1981WAT      O 6184   3.997   4.538   0.510
 1981WAT     H1 6185   3.933   4.613   0.493
 1981WAT     H2 6186   3.979   4.499   0.600
 1982WAT      O 6187   9.222   9.675   8.360
 1982WAT     H1 6188   9.279   9.747   8.398
 1982WAT     H2 6189   9.260   9.586   8.385
 1983WAT      O 6190   1.301   4.556   5.398
 1983WAT     H1 6191   1.295   4.492   5.474
 1983WAT     H2 6192   1.306   4.505   5.312
 1984WAT      O 6193   9.183   0.072   5.332
 1984WAT     H1 6194   9.093   0.040   5.300
 1984WAT     H2 6195   9.248   0.068   5.256
 1985WAT      O 6196   2.438   3.053   6.083
 1985WAT     H1 6197   2.495   2.985   6.038
 1985WAT     H2 6198   2.476   3.076   6.172
 1986WAT      O 6199   5.154   0.518   6.057
 1986WAT     H1 6200   5.063   0.517   6.016
 1986WAT     H2 6201   5.146   0.515   6.157
 1987WAT      O 6202   9.664   7.174   4.876
 1987WAT     H1 6203   9.733   7.206   4.941
 1987WAT     H2 6204   9.575   7.170   4.921
 1988WAT      O 6205   0.343   4.946   7.928
 1988WAT     H1 6206   0.312   4.928   7.835
 1988WAT     H2 6207   0.265   4.946   7.990
 1989WAT      O 6208   9.877   1.747   6.878
 1989WAT     H1 6209   9.827   1.664   6.855
 1989WAT     H2 6210   9.812   1.821   6.898
 1990WAT      O 6211   4.854   1.323   2.972
 1990WAT     H1 6212   4.872   1.354   3.065
 1990WAT     H2 6213   4.940   1.320   2.921
 1991WAT      O 6214   1.354   5.076   2.741
 1991WAT     H1 6215   1.328   4.991   2.696
 1991WAT     H2 6216   1.451   5.073   2.766
 1992WAT      O 6217   1.874   2.635   6.880
 1992WAT     H1 6218   1.870   2.734   6.891
 1992WAT     H2 6219   1.841   2.610   6.789
 1993WAT      O 6220   4.002   8.571   2.223
 1993WAT     H1 6221   4.076   8.593   2.160
 1993WAT     H2 6222   3.944   8.651   2.236
 1994WAT      O 6223   0.290   2.712   0.973
 1994WAT     H1 6224   0.216   2.655   0.938
 1994WAT     H2 6225   0.307   2.689   1.069
 1995WAT      O 6226   3.298   1.063   8.498
 1995WAT     H1 6227   3.346   1.003   8.434
 1995WAT     H2 6228   3.229   1.116   8.448
 1996WAT      O 6229   6.900   8.558   6.122
 1996WAT     H1 6230   6.991   8.578   6.084
 1996WAT     H2 6231   6.836   8.543   6.047
 1997WAT      O 6232   6.178   6.132   2.416
 1997WAT     H1 6233   6.193   6.068   2.341
 1997WAT     H2 6234   6.242   6.208   2.409
 1998WAT      O 6235   3.003   4.588   5.356
 1998WAT     H1 6236   3.027   4.495   5.385
 1998WAT     H2 6237   3.070   4.653   5.392
 1999WAT      O 6238   4.439   1.080   9.887
 1999WAT     H1 6239   4.497   1.117   9.814
 1999WAT     H2 6240   4.344   1.078   9.855
 2000WAT      O 6241   9.786   1.867   7.997
 2000WAT     H1 6242   9.841   1.890   7.916
 2000WAT     H2 6243   9.837   1.803   8.055
 2001WAT      O 6244   8.125   8.570   6.245
 2001WAT     H1 6245   8.033   8.608   6.242
 2001WAT     H2 6246   8.175   8.609   6.323
 2002WAT      O 6247   6.631   6.543   0.216
 2002WAT     H1 6248   6.571   6.616   0.250
 2002WAT     H2 6249   6.620   6.535   0.117
 2003WAT      O 6250   4.299   5.881   8.815
 2003WAT     H1 6251   4.239   5.835   8.880
 2003WAT     H2 6252   4.394   5.867   8.841
 2004WAT      O 6253   4.460   4.458   9.862
 2004WAT     H1 6254   4.432   4.379   9.915
 2004WAT     H2 6255   4.426   4.542   9.905
 2005WAT      O 6256   6.799   9.428   1.701
 2005WAT     H1 6257   6.847   9.341   1.691
 2005WAT     H2 6258   6.784   9.468   1.611
 2006WAT      O 6259   6.011   8.973   4.568
 2006WAT     H1 6260   5.982   8.890   4.615
 2006WAT     H2 6261   5.930   9.028   4.545
 2007WAT      O 6262   9.811   3.674   3.439
 2007WAT     H1 6263   9.821   3.643   3.344
 2007WAT     H2 6264   9.887   3.734   3.463
 2008WAT      O 6265   9.275   9.620   1.899
 2008WAT     H1 6266   9.220   9.544   1.863
 2008WAT     H2 6267   9.322   9.591   1.982
 2009WAT      O 6268   8.348   2.718   4.300
 2009WAT     H1 6269   8.438   2.729   4.343
 2009WAT     H2 6270   8.278   2.757   4.361
 2010WAT      O 6271   1.288   0.212   4.898
 2010WAT     H1 6272   1.351   0.158   4.954
 2010WAT     H2 6273   1.283   0.305   4.935
 2011WAT      O 6274   5.920   0.377   4.398
 2011WAT     H1 6275   5.903   0.285   4.361
 2011WAT     H2 6276   5.840   0.407   4.450
 2012WAT      O 6277   7.812   5.404   0.143
 2012WAT     H1 6278   7.831   5.497   0.113
 2012WAT     H2 6279   7.853   5.339   0.079
 2013WAT      O 6280   9.432   6.829   8.355
 2013WAT     H1 6281   9.410   6.926   8.356
 2013WAT     H2 6282   9.532   6.818   8.355
 2014WAT      O 6283   7.797   0.681   8.784
 2014WAT     H1 6284   7.698   0.671   8.781
 2014WAT     H2 6285   7.822   0.747   8.854
 2015WAT      O 6286   3.553   1.116   6.542
 2015WAT     H1 6287   3.486   1.150   6.607
 2015WAT     H2 6288   3.598   1.193   6.496
 2016WAT      O 6289   5.676   0.697   4.326
 2016WAT     H1 6290   5.686   0.796   4.317
 2016WAT     H2 6291   5.616   0.663   4.254
 2017WAT      O 6292   8.236   1.990   2.174
 2017WAT     H1 6293   8.322   1.939   2.178
 2017WAT     H2 6294   8.159   1.928   2.183
 2018WAT      O 6295   1.118   7.583   3.524
 2018WAT     H1 6296   1.106   7.629   3.612
 2018WAT     H2 6297   1.065   7.498   3.523
 2019WAT      O 6298   2.097   2.523   3.339
 2019WAT     H1 6299   2.111   2.552   3.245
 2019WAT     H2 6300   2.105   2.423   3.345
 2020WAT      O 6301   3.825   9.136   3.370
 2020WAT     H1 6302   3.888   9.175   3.303
 2020WAT     H2 6303   3.754   9.083   3.323
 2021WAT      O 6304   3.733   9.182   6.060
 2021WAT     H1 6305   3.670   9.257   6.041
 2021WAT     H2 6306   3.689   9.095   6.039
 2022WAT      O 6307   4.725   3.534   0.032
 2022WAT     H1 6308   4.791   3.493   0.096
 2022WAT     H2 6309   4.754   3.517  -0.062
 2023WAT      O 6310   8.997   7.291   0.811
 2023WAT     H1 6311   8.977   7.195   0.832
 2023WAT     H2 6312   8.935   7.350   0.862
 2024WAT      O 6313   5.722   3.450   4.408
 2024WAT     H1 6314   5.640   3.502   4.430
 2024WAT     H2 6315   5.775   3.498   4.338
 2025WAT      O 6316   9.459   3.478   4.541
 2025WAT     H1 6317   9.460   3.435   4.451
 2025WAT     H2 6318   9.524   3.431   4.601
 2026WAT      O 6319   8.946   5.151   4.893
 2026WAT     H1 6320   8.909   5.077   4.950
 2026WAT     H2 6321   8.889   5.161   4.811
 2027WAT      O 6322   2.994   9.637   0.001
 2027WAT     H1 6323   2.953   9.577   0.070
 2027WAT     H2 6324   3.084   9.667   0.032
 2028WAT      O 6325   0.745   3.457   3.663
 2028WAT     H1 6326   0.719   3.539   3.612
 2028WAT     H2 6327   0.838   3.429   3.636
 2029WAT      O 6328   0.938   7.458   4.304
 2029WAT     H1 6329   0.992   7.396   4.361
 2029WAT     H2 6330   0.996   7.494   4.230
 2030WAT      O 6331   9.050   8.774   1.945
 2030WAT     H1 6332   9.076   8.796   1.851
 2030WAT     H2 6333   9.011   8.855   1.988
 2031WAT      O 6334   6.021   5.226   6.691
 2031WAT     H1 6335   5.941   5.284   6.705
 2031WAT     H2 6336   6.063   5.249   6.603
 2032WAT      O 6337   8.119   7.684   2.046
 2032WAT     H1 6338   8.026   7.648   2.036
 2032WAT     H2 6339   8.131   7.765   1.989
 2033WAT      O 6340   7.627   9.526   1.527
 2033WAT     H1 6341   7.694   9.523   1.454
 2033WAT     H2 6342   7.632   9.442   1.582
 2034WAT      O 6343   3.288   9.318   9.689
 2034WAT     H1 6344   3.307   9.292   9.594
 2034WAT     H2 6345   3.269   9.416   9.694
 2035WAT      O 6346   3.355   0.285   7.469
 2035WAT     H1 6347   3.313   0.251   7.553
 2035WAT     H2 6348   3.327   0.227   7.392
 2036WAT      O 6349   5.775   5.766   2.031
 2036WAT     H1 6350   5.826   5.811   2.103
 2036WAT     H2 6351   5.737   5.835   1.968
 2037WAT      O 6352   5.036   3.785   3.880
 2037WAT     H1 6353   5.117   3.793   3.823
 2037WAT     H2 6354   5.031   3.861   3.944
 2038WAT      O 6355   7.910   2.195   2.437
 2038WAT     H1 6356   7.844   2.251   2.386
 2038WAT     H2 6357   7.890   2.098   2.421
 2039WAT      O 6358   6.157   6.606   0.465
 2039WAT     H1 6359   6.235   6.544   0.479
 2039WAT     H2 6360   6.093   6.594   0.541
 2040WAT      O 6361   0.798   7.754   3.807
 2040WAT     H1 6362   0.778   7.833   3.750
 2040WAT     H2 6363   0.744   7.675   3.776
 2041WAT      O 6364   8.779   5.620   0.541
 2041WAT     H1 6365   8.724   5.647   0.620
 2041WAT     H2 6366   8.720   5.574   0.474
 2042WAT      O 6367   5.227   6.551   1.639
 2042WAT     H1 6368   5.173   6.634   1.654
 2042WAT     H2 6369   5.198   6.508   1.553
 2043WAT      O 6370   0.769   3.721   1.350
 2043WAT     H1 6371   0.716   3.763   1.276
 2043WAT     H2 6372   0.804   3.793   1.411
 2044WAT      O 6373   3.483   1.411   6.635
 2044WAT     H1 6374   3.556   1.389   6.571
 2044WAT     H2 6375   3.395   1.384   6.596
 2045WAT      O 6376   6.183   8.798   7.500
 2045WAT     H1 6377   6.204   8.748   7.416
 2045WAT     H2 6378   6.151   8.734   7.570
 2046WAT      O 6379   8.576   0.855   2.390
 2046WAT     H1 6380   8.563   0.932   2.327
 2046WAT     H2 6381   8.545   0.882   2.481
 2047WAT      O 6382   5.854   6.269   9.294
 2047WAT     H1 6383   5.846   6.367   9.276
 2047WAT     H2 6384   5.809   6.218   9.220
 2048WAT      O 6385   7.273   4.471   4.622
 2048WAT     H1 6386   7.272   4.481   4.522
 2048WAT     H2 6387   7.280   4.561   4.664
 2049WAT      O 6388   6.582   9.718   6.721
 2049WAT     H1 6389   6.521   9.677   6.653
 2049WAT     H2 6390   6.661   9.658   6.736
 2050WAT      O 6391   9.313   9.291   7.302
 2050WAT     H1 6392   9.293   9.289   7.204
 2050WAT     H2 6393   9.273   9.210   7.346
 2051WAT      O 6394   2.160   6.803   8.710
 2051WAT     H1 6395   2.197   6.753   8.788
 2051WAT     H2 6396   2.075   6.759   8.679
 2052WAT      O 6397   5.453   6.971   3.337
 2052WAT     H1 6398   5.543   6.933   3.357
 2052WAT     H2 6399   5.417   7.018   3.419
 2053WAT      O 6400   2.339   9.282   7.155
 2053WAT     H1 6401   2.243   9.275   7.128
 2053WAT     H2 6402   2.386   9.345   7.093
 2054WAT      O 6403   8.363   9.117   1.293
 2054WAT     H1 6404   8.317   9.028   1.282
 2054WAT     H2 6405   8.410   9.118   1.381
 2055WAT      O 6406   2.132   8.873   0.365
 2055WAT     H1 6407   2.143   8.955   0.422
 2055WAT     H2 6408   2.045   8.829   0.386
 2056WAT      O 6409   7.908   4.271   8.945
 2056WAT     H1 6410   7.869   4.345   9.000
 2056WAT     H2 6411   7.995   4.242   8.986
 2057WAT      O 6412   6.475   7.854   1.526
 2057WAT     H1 6413   6.544   7.802   1.576
 2057WAT     H2 6414   6.408   7.892   1.590
 2058WAT      O 6415   0.119   0.867   4.946
 2058WAT     H1 6416   0.112   0.924   4.865
 2058WAT     H2 6417   0.084   0.775   4.926
 2059WAT      O 6418   1.729   3.715   9.042
 2059WAT     H1 6419   1.728   3.761   9.131
 2059WAT     H2 6420   1.718   3.782   8.969
 2060WAT      O 6421   3.667   3.147   4.208
 2060WAT     H1 6422   3.672   3.231   4.262
 2060WAT     H2 6423   3.572   3.113   4.208
 2061WAT      O 6424   8.897   0.874   3.813
 2061WAT     H1 6425   8.826   0.836   3.872
 2061WAT     H2 6426   8.855   0.920   3.734
 2062WAT      O 6427   6.598   1.142   3.303
 2062WAT     H1 6428   6.506   1.162   3.270
 2062WAT     H2 6429   6.617   1.198   3.384
 2063WAT      O 6430   9.359   6.912   5.907
 2063WAT     H1 6431   9.289   6.892   5.974
 2063WAT     H2 6432   9.416   6.831   5.892
 2064WAT      O 6433   3.386   4.415   4.931
 2064WAT     H1 6434   3.480   4.387   4.953
 2064WAT     H2 6435   3.379   4.435   4.834
 2065WAT      O 6436   9.214   0.925   1.729
 2065WAT     H1 6437   9.224   0.826   1.713
 2065WAT     H2 6438   9.295   0.958   1.778
 2066WAT      O 6439   7.833   8.686   7.601
 2066WAT     H1 6440   7.872   8.643   7.520
 2066WAT     H2 6441   7.879   8.650   7.683
 2067WAT      O 6442   5.325   7.469   6.388
 2067WAT     H1 6443   5.285   7.379   6.369
 2067WAT     H2 6444   5.328   7.523   6.304
 2068WAT      O 6445   5.320   3.311   3.862
 2068WAT     H1 6446   5.290   3.372   3.935
 2068WAT     H2 6447   5.411   3.338   3.831
 2069WAT      O 6448   8.546   0.998   1.735
 2069WAT     H1 6449   8.481   0.958   1.670
 2069WAT     H2 6450   8.615   0.929   1.759
 2070WAT      O 6451   9.761   4.017   9.294
 2070WAT     H1 6452   9.735   4.043   9.388
 2070WAT     H2 6453   9.861   4.011   9.288
 2071WAT      O 6454   2.311   1.098   2.903
 2071WAT     H1 6455   2.282   1.077   2.810
 2071WAT     H2 6456   2.257   1.044   2.968
 2072WAT      O 6457   1.998   5.600   3.897
 2072WAT     H1 6458   1.969   5.651   3.979
 2072WAT     H2 6459   1.918   5.565   3.849
 2073WAT      O 6460   4.793   5.684   4.380
 2073WAT     H1 6461   4.812   5.773   4.339
 2073WAT     H2 6462   4.876   5.648   4.422
 2074WAT      O 6463   0.020   5.787   7.396
 2074WAT     H1 6464   0.109   5.829   7.412
 2074WAT     H2 6465  -0.049   5.829   7.455
 2075WAT      O 6466   0.158   1.958   4.447
 2075WAT     H1 6467   0.156   1.873   4.394
 2075WAT     H2 6468   0.141   2.036   4.387
 2076WAT      O 6469   3.629   4.295   8.774
 2076WAT     H1 6470   3.560   4.222   8.770
 2076WAT     H2 6471   3.587   4.380   8.805
 2077WAT      O 6472   0.664   0.238   2.115
 2077WAT     H1 6473   0.640   0.146   2.147
 2077WAT     H2 6474   0.591   0.301   2.138
 2078WAT      O 6475   4.417   9.366   6.536
 2078WAT     H1 6476   4.448   9.385   6.630
 2078WAT     H2 6477   4.328   9.408   6.522
 2079WAT      O 6478   5.875   9.745   2.204
 2079WAT     H1 6479   5.837   9.837   2.216
 2079WAT     H2 6480   5.920   9.717   2.288
 2080WAT      O 6481   7.355   7.005   2.088
 2080WAT     H1 6482   7.403   6.919   2.073
 2080WAT     H2 6483   7.419   7.081   2.085
 2081WAT      O 6484   7.199   2.507   1.365
 2081WAT     H1 6485   7.238   2.417   1.385
 2081WAT     H2 6486   7.269   2.565   1.324
 2082WAT      O 6487   6.920   3.448   7.133
 2082WAT     H1 6488   6.865   3.486   7.059
 2082WAT     H2 6489   6.883   3.478   7.221
 2083WAT      O 6490   1.028   8.313   0.176
 2083WAT     H1 6491   1.064   8.397   0.217
 2083WAT     H2 6492   1.097   8.241   0.182
 2084WAT      O 6493   1.392   9.240   9.097
 2084WAT     H1 6494   1.385   9.185   9.180
 2084WAT     H2 6495   1.354   9.189   9.020
 2085WAT      O 6496   6.910   1.328   6.779
 2085WAT     H1 6497   6.986   1.372   6.731
 2085WAT     H2 6498   6.831   1.322   6.719
 2086WAT      O 6499   4.801   6.642   9.431
 2086WAT     H1 6500   4.758   6.577   9.494
 2086WAT     H2 6501   4.900   6.635   9.438
 2087WAT      O 6502   0.152   5.598   4.734
 2087WAT     H1 6503   0.149   5.645   4.822
 2087WAT     H2 6504   0.061   5.561   4.713
 2088WAT      O 6505   0.445   6.388   5.190
 2088WAT     H1 6506   0.499   6.452   5.137
 2088WAT     H2 6507   0.396   6.438   5.262
 2089WAT      O 6508   5.803   8.522   1.789
 2089WAT     H1 6509   5.870   8.587   1.755
 2089WAT     H2 6510   5.711   8.549   1.758
 2090WAT      O 6511   6.834   8.897   8.773
 2090WAT     H1 6512   6.816   8.825   8.840
 2090WAT     H2 6513   6.763   8.896   8.703
 2091WAT      O 6514   7.674   9.816   7.664
 2091WAT     H1 6515   7.765   9.792   7.631
 2091WAT     H2 6516   7.649   9.907   7.631
 2092WAT      O 6517   4.670   7.922   9.365
 2092WAT     H1 6518   4.719   7.851   9.315
 2092WAT     H2 6519   4.572   7.905   9.360
 2093WAT      O 6520   1.013   6.644   7.192
 2093WAT     H1 6521   1.093   6.589   7.167
 2093WAT     H2 6522   1.020   6.734   7.149
 2094WAT      O 6523   6.319   5.707   0.383
 2094WAT     H1 6524   6.358   5.720   0.474
 2094WAT     H2 6525   6.391   5.715   0.315
 2095WAT      O 6526   2.871   6.604   7.239
 2095WAT     H1 6527   2.937   6.580   7.168
 2095WAT     H2 6528   2.779   6.577   7.209
 2096WAT      O 6529   7.099   9.435   3.668
 2096WAT     H1 6530   7.079   9.422   3.765
 2096WAT     H2 6531   7.068   9.355   3.616
 2097WAT      O 6532   5.538   8.004   5.995
 2097WAT     H1 6533   5.575   7.997   5.902
 2097WAT     H2 6534   5.488   8.090   6.005
 2098WAT      O 6535   3.522   1.942   2.369
 2098WAT     H1 6536   3.569   1.896   2.444
 2098WAT     H2 6537   3.550   1.901   2.282
 2099WAT      O 6538   3.831   8.011   7.018
 2099WAT     H1 6539   3.868   8.066   6.944
 2099WAT     H2 6540   3.901   7.999   7.089
 2100WAT      O 6541   0.775   8.144   6.639
 2100WAT     H1 6542   0.696   8.111   6.586
 2100WAT     H2 6543   0.854   8.154   6.578
 2101WAT      O 6544   8.766   2.585   6.045
 2101WAT     H1 6545   8.800   2.520   5.977
 2101WAT     H2 6546   8.666   2.584   6.045
 2102WAT      O 6547   0.418   4.520   8.634
 2102WAT     H1 6548   0.418   4.572   8.719
 2102WAT     H2 6549   0.337   4.461   8.631
 2103WAT      O 6550   7.827   0.188   2.004
 2103WAT     H1 6551   7.911   0.163   1.955
 2103WAT     H2 6552   7.749   0.180   1.942
 2104WAT      O 6553   3.312   1.391   7.828
 2104WAT     H1 6554   3.356   1.309   7.790
 2104WAT     H2 6555   3.374   1.435   7.892
 2105WAT      O 6556   3.665   6.838   9.056
 2105WAT     H1 6557   3.674   6.869   8.961
 2105WAT     H2 6558   3.723   6.758   9.071
 2106WAT      O 6559   2.325   0.653   5.151
 2106WAT     H1 6560   2.312   0.729   5.215
 2106WAT     H2 6561   2.295   0.568   5.194
 2107WAT      O 6562   6.774   9.481   2.913
 2107WAT     H1 6563   6.839   9.496   2.839
 2107WAT     H2 6564   6.681   9.490   2.877
 2108WAT      O 6565   9.749   8.179   4.738
 2108WAT     H1 6566   9.776   8.256   4.796
 2108WAT     H2 6567   9.707   8.213   4.654
 2109WAT      O 6568   6.388   9.399   9.042
 2109WAT     H1 6569   6.356   9.493   9.028
 2109WAT     H2 6570   6.421   9.389   9.136
 2110WAT      O 6571   9.831   6.344   8.230
 2110WAT     H1 6572   9.878   6.258   8.251
 2110WAT     H2 6573   9.768   6.329   8.153
 2111WAT      O 6574   7.491   8.738   8.205
 2111WAT     H1 6575   7.589   8.746   8.189
 2111WAT     H2 6576   7.450   8.683   8.132
 2112WAT      O 6577   8.522   3.780   5.604
 2112WAT     H1 6578   8.578   3.766   5.523
 2112WAT     H2 6579   8.546   3.712   5.673
 2113WAT      O 6580   9.349   2.177   4.615
 2113WAT     H1 6581   9.398   2.138   4.693
 2113WAT     H2 6582   9.412   2.235   4.563
 2114WAT      O 6583   8.445   0.450   2.889
 2114WAT     H1 6584   8.402   0.449   2.979
 2114WAT     H2 6585   8.381   0.415   2.821
 2115WAT      O 6586   2.765   6.965   8.833
 2115WAT     H1 6587   2.803   6.895   8.772
 2115WAT     H2 6588   2.685   6.928   8.880
 2116WAT      O 6589   3.826   3.739   7.475
 2116WAT     H1 6590   3.917   3.766   7.444
 2116WAT     H2 6591   3.757   3.793   7.427
 2117WAT      O 6592   4.802   7.437   9.797
 2117WAT     H1 6593   4.873   7.396   9.854
 2117WAT     H2 6594   4.714   7.430   9.843
 2118WAT      O 6595   1.118   5.906   8.189
 2118WAT     H1 6596   1.108   5.999   8.154
 2118WAT     H2 6597   1.149   5.845   8.116
 2119WAT      O 6598   1.239   7.904   2.283
 2119WAT     H1 6599   1.331   7.896   2.323
 2119WAT     H2 6600   1.236   7.853   2.197
 2120WAT      O 6601   7.136   7.221   7.131
 2120WAT     H1 6602   7.121   7.140   7.187
 2120WAT     H2 6603   7.190   7.195   7.050
 2121WAT      O 6604   7.240   5.209   3.061
 2121WAT     H1 6605   7.196   5.204   3.151
 2121WAT     H2 6606   7.248   5.304   3.033
 2122WAT      O 6607   5.308   7.025   1.244
 2122WAT     H1 6608   5.334   6.987   1.156
 2122WAT     H2 6609   5.239   6.967   1.287
 2123WAT      O 6610   4.585   8.979   7.599
 2123WAT     H1 6611   4.677   8.940   7.600
 2123WAT     H2 6612   4.590   9.079   7.606
 2124WAT      O 6613   8.620   7.801   2.929
 2124WAT     H1 6614   8.631   7.718   2.983
 2124WAT     H2 6615   8.700   7.813   2.870
 2125WAT      O 6616   7.362   8.887   3.106
 2125WAT     H1 6617   7.337   8.968   3.158
 2125WAT     H2 6618   7.283   8.826   3.099
 2126WAT      O 6619   9.397   5.520   2.651
 2126WAT     H1 6620   9.423   5.592   2.586
 2126WAT     H2 6621   9.298   5.512   2.654
 2127WAT      O 6622   3.532   1.049   5.029
 2127WAT     H1 6623   3.595   1.045   5.107
 2127WAT     H2 6624   3.439   1.033   5.061
 2128WAT      O 6625   5.959   8.920   3.734
 2128WAT     H1 6626   5.971   9.011   3.775
 2128WAT     H2 6627   6.048   8.881   3.715
 2129WAT      O 6628   8.098   8.724   3.095
 2129WAT     H1 6629   8.016   8.751   3.146
 2129WAT     H2 6630   8.178   8.731   3.154
 2130WAT      O 6631   7.459   4.366   5.974
 2130WAT     H1 6632   7.552   4.358   5.938
 2130WAT     H2 6633   7.449   4.307   6.055
 2131WAT      O 6634   9.423   7.191   5.877
 2131WAT     H1 6635   9.392   7.101   5.909
 2131WAT     H2 6636   9.474   7.180   5.792
 2132WAT      O 6637   1.075   0.675   4.206
 2132WAT     H1 6638   0.985   0.652   4.169
 2132WAT     H2 6639   1.134   0.710   4.132
 2133WAT      O 6640   1.180   1.674   1.979
 2133WAT     H1 6641   1.178   1.673   2.079
 2133WAT     H2 6642   1.202   1.767   1.947
 2134WAT      O 6643   6.468   7.899   9.031
 2134WAT     H1 6644   6.438   7.962   8.960
 2134WAT     H2 6645   6.389   7.855   9.072
 2135WAT      O 6646   0.990   8.680   3.753
 2135WAT     H1 6647   0.975   8.721   3.663
 2135WAT     H2 6648   0.977   8.750   3.823
 2136WAT      O 6649   4.476   6.219   6.300
 2136WAT     H1 6650   4.454   6.303   6.251
 2136WAT     H2 6651   4.461   6.140   6.240
 2137WAT      O 6652   2.024   7.676   6.880
 2137WAT     H1 6653   2.040   7.633   6.791
 2137WAT     H2 6654   2.008   7.605   6.949
 2138WAT      O 6655   2.475   0.879   8.598
 2138WAT     H1 6656   2.556   0.889   8.656
 2138WAT     H2 6657   2.463   0.783   8.573
 2139WAT      O 6658   3.600   6.320   0.325
 2139WAT     H1 6659   3.538   6.399   0.316
 2139WAT     H2 6660   3.615   6.300   0.421
 2140WAT      O 6661   2.936   0.326   8.406
 2140WAT     H1 6662   2.924   0.257   8.478
 2140WAT     H2 6663   2.863   0.317   8.338
 2141WAT      O 6664   2.313   1.591   2.483
 2141WAT     H1 6665   2.287   1.506   2.529
 2141WAT     H2 6666   2.407   1.614   2.505
 2142WAT      O 6667   2.484   2.827   9.442
 2142WAT     H1 6668   2.556   2.825   9.512
 2142WAT     H2 6669   2.394   2.830   9.487
 2143WAT      O 6670   2.293   5.062   7.926
 2143WAT     H1 6671   2.375   5.088   7.875
 2143WAT     H2 6672   2.283   4.962   7.924
 2144WAT      O 6673   4.320   1.541   3.692
 2144WAT     H1 6674   4.232   1.562   3.733
 2144WAT     H2 6675   4.375   1.624   3.686
 2145WAT      O 6676   5.848   3.491   5.594
 2145WAT     H1 6677   5.898   3.574   5.569
 2145WAT     H2 6678   5.853   3.477   5.693
 2146WAT      O 6679   7.349   4.735   4.734
 2146WAT     H1 6680   7.297   4.791   4.670
 2146WAT     H2 6681   7.447   4.755   4.724
 2147WAT      O 6682   2.719   9.438   6.193
 2147WAT     H1 6683   2.745   9.527   6.158
 2147WAT     H2 6684   2.802   9.387   6.219
 2148WAT      O 6685   9.257   1.627   4.563
 2148WAT     H1 6686   9.194   1.660   4.493
 2148WAT     H2 6687   9.298   1.706   4.610
 2149WAT      O 6688   4.500   5.710   6.461
 2149WAT     H1 6689   4.424   5.768   6.434
 2149WAT     H2 6690   4.586   5.752   6.432
 2150WAT      O 6691   9.444   6.418   8.003
 2150WAT     H1 6692   9.509   6.412   7.926
 2150WAT     H2 6693   9.450   6.509   8.044
 2151WAT      O 6694   3.150   7.408   0.691
 2151WAT     H1 6695   3.241   7.372   0.716
 2151WAT     H2 6696   3.137   7.497   0.735
 2152WAT      O 6697   6.876   5.428   1.200
 2152WAT     H1 6698   6.894   5.525   1.181
 2152WAT     H2 6699   6.831   5.386   1.121
 2153WAT      O 6700   8.539   7.257   5.068
 2153WAT     H1 6701   8.483   7.294   5.142
 2153WAT     H2 6702   8.480   7.236   4.989
 2154WAT      O 6703   0.062   8.270   4.327
 2154WAT     H1 6704   0.050   8.233   4.419
 2154WAT     H2 6705   0.139   8.225   4.282
 2155WAT      O 6706   6.556   8.865   6.084
 2155WAT     H1 6707   6.548   8.964   6.084
 2155WAT     H2 6708   6.519   8.828   6.170
 2156WAT      O 6709   4.391   0.167   4.362
 2156WAT     H1 6710   4.339   0.150   4.278
 2156WAT     H2 6711   4.337   0.137   4.441
 2157WAT      O 6712   1.453   2.707   2.163
 2157WAT     H1 6713   1.544   2.726   2.126
 2157WAT     H2 6714   1.450   2.614   2.199
 2158WAT      O 6715   1.358   8.747   1.352
 2158WAT     H1 6716   1.421   8.672   1.331
 2158WAT     H2 6717   1.264   8.714   1.345
 2159WAT      O 6718   0.535   6.855   9.059
 2159WAT     H1 6719   0.454   6.912   9.044
 2159WAT     H2 6720   0.606   6.880   8.994
 2160WAT      O 6721   6.971   8.335   6.711
 2160WAT     H1 6722   6.950   8.410   6.647
 2160WAT     H2 6723   7.035   8.272   6.667
 2161WAT      O 6724   3.060   9.136   4.512
 2161WAT     H1 6725   3.044   9.060   4.575
 2161WAT     H2 6726   3.158   9.155   4.508
 2162WAT      O 6727   2.759   0.280   2.129
 2162WAT     H1 6728   2.674   0.268   2.179
 2162WAT     H2 6729   2.755   0.226   2.044
 2163WAT      O 6730   9.090   3.064   9.122
 2163WAT     H1 6731   9.180   3.049   9.083
 2163WAT     H2 6732   9.033   2.984   9.107
 2164WAT      O 6733   7.918   4.066   4.241
 2164WAT     H1 6734   7.909   3.966   4.240
 2164WAT     H2 6735   7.836   4.106   4.282
 2165WAT      O 6736   5.840   5.198   5.403
 2165WAT     H1 6737   5.895   5.226   5.481
 2165WAT     H2 6738   5.858   5.102   5.382
 2166WAT      O 6739   2.039   4.298   7.935
 2166WAT     H1 6740   2.017   4.280   8.031
 2166WAT     H2 6741   1.954   4.303   7.882
 2167WAT      O 6742   2.808   2.546   1.949
 2167WAT     H1 6743   2.878   2.482   1.981
 2167WAT     H2 6744   2.846   2.604   1.877
 2168WAT      O 6745   6.583   3.628   8.159
 2168WAT     H1 6746   6.651   3.667   8.097
 2168WAT     H2 6747   6.614   3.637   8.253
 2169WAT      O 6748   5.236   0.228   4.881
 2169WAT     H1 6749   5.299   0.162   4.841
 2169WAT     H2 6750   5.278   0.319   4.881
 2170WAT      O 6751   1.451   7.430   7.572
 2170WAT     H1 6752   1.408   7.519   7.559
 2170WAT     H2 6753   1.382   7.363   7.598
 2171WAT      O 6754   8.417   4.292   7.535
 2171WAT     H1 6755   8.383   4.218   7.477
 2171WAT     H2 6756   8.390   4.274   7.630
 2172WAT      O 6757   8.574   9.134   7.465
 2172WAT     H1 6758   8.665   9.093   7.470
 2172WAT     H2 6759   8.544   9.139   7.370
 2173WAT      O 6760   3.644   8.926   0.996
 2173WAT     H1 6761   3.731   8.976   1.001
 2173WAT     H2 6762   3.597   8.949   0.911
 2174WAT      O 6763   8.996   1.845   3.224
 2174WAT     H1 6764   9.033   1.761   3.264
 2174WAT     H2 6765   8.938   1.892   3.291
 2175WAT      O 6766   8.305   0.328   1.755
 2175WAT     H1 6767   8.277   0.354   1.847
 2175WAT     H2 6768   8.397   0.363   1.737
 2176WAT      O 6769   1.045   5.519   7.766
 2176WAT     H1 6770   1.050   5.421   7.784
 2176WAT     H2 6771   1.022   5.567   7.850
 2177WAT      O 6772   4.110   2.070   5.321
 2177WAT     H1 6773   4.119   2.169   5.314
 2177WAT     H2 6774   4.037   2.048   5.385
 2178WAT      O 6775   3.675   3.886   1.304
 2178WAT     H1 6776   3.687   3.979   1.339
 2178WAT     H2 6777   3.715   3.821   1.368
 2179WAT      O 6778   4.252   4.014   6.634
 2179WAT     H1 6779   4.226   3.968   6.718
 2179WAT     H2 6780   4.292   3.948   6.570
 2180WAT      O 6781   4.467   0.680   4.542
 2180WAT     H1 6782   4.384   0.633   4.571
 2180WAT     H2 6783   4.501   0.737   4.616
 2181WAT      O 6784   9.707   3.174   2.788
 2181WAT     H1 6785   9.799   3.138   2.769
 2181WAT     H2 6786   9.709   3.274   2.782
 2182WAT      O 6787   7.657   6.858   6.875
 2182WAT     H1 6788   7.576   6.893   6.922
 2182WAT     H2 6789   7.695   6.928   6.816
 2183WAT      O 6790   7.135   4.661   0.726
 2183WAT     H1 6791   7.175   4.645   0.636
 2183WAT     H2 6792   7.078   4.743   0.723
 2184WAT      O 6793   0.130   4.438   0.827
 2184WAT     H1 6794   0.215   4.489   0.843
 2184WAT     H2 6795   0.142   4.377   0.749
 2185WAT      O 6796   7.380   2.528   9.028
 2185WAT     H1 6797   7.334   2.441   9.048
 2185WAT     H2 6798   7.319   2.586   8.974
 2186WAT      O 6799   6.583   2.261   7.588
 2186WAT     H1 6800   6.500   2.297   7.544
 2186WAT     H2 6801   6.572   2.265   7.687
 2187WAT      O 6802   6.214   1.537   0.394
 2187WAT     H1 6803   6.269   1.505   0.317
 2187WAT     H2 6804   6.128   1.575   0.360
 2188WAT      O 6805   8.494   4.237   0.672
 2188WAT     H1 6806   8.406   4.266   0.633
 2188WAT     H2 6807   8.478   4.167   0.741
 2189WAT      O 6808   5.214   1.848   8.222
 2189WAT     H1 6809   5.308   1.877   8.203
 2189WAT     H2 6810   5.179   1.795   8.145
 2190WAT      O 6811   3.118   6.514   0.860
 2190WAT     H1 6812   3.019   6.511   0.848
 2190WAT     H2 6813   3.140   6.549   0.951
 2191WAT      O 6814   0.555   6.431   5.501
 2191WAT     H1 6815   0.585   6.356   5.443
 2191WAT     H2 6816   0.632   6.494   5.516
 2192WAT      O 6817   7.561   7.287   3.511
 2192WAT     H1 6818   7.573   7.372   3.459
 2192WAT     H2 6819   7.506   7.223   3.459
 2193WAT      O 6820   0.435   4.818   6.304
 2193WAT     H1 6821   0.399   4.821   6.397
 2193WAT     H2 6822   0.380   4.757   6.248
 2194WAT      O 6823   2.630   1.341   1.789
 2194WAT     H1 6824   2.665   1.250   1.767
 2194WAT     H2 6825   2.707   1.402   1.812
 2195WAT      O 6826   3.425   1.122   9.466
 2195WAT     H1 6827   3.348   1.101   9.526
 2195WAT     H2 6828   3.393   1.181   9.391
 2196WAT      O 6829   1.949   9.775   9.493
 2196WAT     H1 6830   1.932   9.820   9.405
 2196WAT     H2 6831   1.862   9.744   9.532
 2197WAT      O 6832   1.439   8.241   3.883
 2197WAT     H1 6833   1.430   8.162   3.944
 2197WAT     H2 6834   1.515   8.226   3.820
 2198WAT      O 6835   4.354   2.921   9.826
 2198WAT     H1 6836   4.347   3.019   9.805
 2198WAT     H2 6837   4.411   2.909   9.908
 2199WAT      O 6838   8.627   4.846   0.165
 2199WAT     H1 6839   8.600   4.895   0.248
 2199WAT     H2 6840   8.606   4.749   0.175
 2200WAT      O 6841   7.237   5.841   7.969
 2200WAT     H1 6842   7.337   5.840   7.960
 2200WAT     H2 6843   7.200   5.756   7.934
 2201WAT      O 6844   0.361   9.346   7.897
 2201WAT     H1 6845   0.380   9.314   7.990
 2201WAT     H2 6846   0.284   9.296   7.859
 2202WAT      O 6847   2.271   6.144   7.360
 2202WAT     H1 6848   2.328   6.171   7.282
 2202WAT     H2 6849   2.318   6.072   7.412
 2203WAT      O 6850   5.793   4.305   7.374
 2203WAT     H1 6851   5.881   4.342   7.345
 2203WAT     H2 6852   5.757   4.244   7.303
 2204WAT      O 6853   0.301   7.973   6.425
 2204WAT     H1 6854   0.272   7.996   6.332
 2204WAT     H2 6855   0.261   8.038   6.489
 2205WAT      O 6856   9.676   8.408   7.584
 2205WAT     H1 6857   9.768   8.369   7.589
 2205WAT     H2 6858   9.675   8.481   7.516
 2206WAT      O 6859   8.170   3.090   0.762
 2206WAT     H1 6860   8.132   3.170   0.716
 2206WAT     H2 6861   8.189   3.018   0.694
 2207WAT      O 6862   0.344   0.614   8.880
 2207WAT     H1 6863   0.268   0.670   8.848
 2207WAT     H2 6864   0.325   0.578   8.971
 2208WAT      O 6865   9.543   0.686   9.305
 2208WAT     H1 6866   9.556   0.598   9.351
 2208WAT     H2 6867   9.565   0.760   9.369
 2209WAT      O 6868   9.270   1.061   4.086
 2209WAT     H1 6869   9.354   1.054   4.034
 2209WAT     H2 6870   9.203   0.996   4.051
 2210WAT      O 6871   5.271   2.960   7.702
 2210WAT     H1 6872   5.315   2.973   7.613
 2210WAT     H2 6873   5.264   3.048   7.749
 2211WAT      O 6874   2.709   7.508   2.449
 2211WAT     H1 6875   2.804   7.526   2.423
 2211WAT     H2 6876   2.652   7.503   2.367
 2212WAT      O 6877   9.747   0.361   6.362
 2212WAT     H1 6878   9.831   0.357   6.416
 2212WAT     H2 6879   9.751   0.295   6.288
 2213WAT      O 6880   2.332   6.914   9.795
 2213WAT     H1 6881   2.280   6.869   9.868
 2213WAT     H2 6882   2.293   7.004   9.777
 2214WAT      O 6883   9.133   9.043   4.861
 2214WAT     H1 6884   9.193   8.983   4.915
 2214WAT     H2 6885   9.046   9.053   4.908
 2215WAT      O 6886   3.485   7.758   0.376
 2215WAT     H1 6887   3.554   7.813   0.330
 2215WAT     H2 6888   3.453   7.686   0.314
 2216WAT      O 6889   6.697   0.929   7.441
 2216WAT     H1 6890   6.731   0.839   7.467
 2216WAT     H2 6891   6.764   0.999   7.465
 2217WAT      O 6892   9.508   2.705   2.007
 2217WAT     H1 6893   9.527   2.801   2.028
 2217WAT     H2 6894   9.526   2.649   2.087
 2218WAT      O 6895   6.565   5.849   9.049
 2218WAT     H1 6896   6.585   5.769   8.991
 2218WAT     H2 6897   6.623   5.925   9.021
 2219WAT      O 6898   5.311   1.775   4.296
 2219WAT     H1 6899   5.341   1.724   4.215
 2219WAT     H2 6900   5.288   1.869   4.270
 2220WAT      O 6901   4.430   8.161   0.889
 2220WAT     H1 6902   4.357   8.155   0.820
 2220WAT     H2 6903   4.515   8.191   0.846
 2221WAT      O 6904   1.276   4.993   1.509
 2221WAT     H1 6905   1.190   5.006   1.559
 2221WAT     H2 6906   1.283   5.061   1.437
 2222WAT      O 6907   7.813   2.578   3.501
 2222WAT     H1 6908   7.742   2.634   3.458
 2222WAT     H2 6909   7.901   2.625   3.494
 2223WAT      O 6910   2.977   7.384   4.652
 2223WAT     H1 6911   2.997   7.423   4.742
 2223WAT     H2 6912   2.995   7.451   4.581
 2224WAT      O 6913   0.391   5.527   3.517
 2224WAT     H1 6914   0.455   5.521   3.594
 2224WAT     H2 6915   0.341   5.441   3.509
 2225WAT      O 6916   2.737   0.523   3.448
 2225WAT     H1 6917   2.821   0.470   3.455
 2225WAT     H2 6918   2.725   0.578   3.530
 2226WAT      O 6919   2.645   7.216   0.703
 2226WAT     H1 6920   2.653   7.145   0.772
 2226WAT     H2 6921   2.562   7.269   0.719
 2227WAT      O 6922   4.399   8.683   9.685
 2227WAT     H1 6923   4.396   8.714   9.780
 2227WAT     H2 6924   4.492   8.657   9.661
 2228WAT      O 6925   7.983   4.754   1.150
 2228WAT     H1 6926   8.061   4.709   1.106
 2228WAT     H2 6927   7.970   4.717   1.242
 2229WAT      O 6928   4.436   6.969   7.976
 2229WAT     H1 6929   4.366   7.029   8.015
 2229WAT     H2 6930   4.464   7.004   7.887
 2230WAT      O 6931   4.111   3.370   3.094
 2230WAT     H1 6932   4.073   3.303   3.030
 2230WAT     H2 6933   4.184   3.326   3.148
 2231WAT      O 6934   0.729   8.023   8.665
 2231WAT     H1 6935   0.706   7.932   8.698
 2231WAT     H2 6936   0.687   8.092   8.725
 2232WAT      O 6937   1.687   3.866   8.817
 2232WAT     H1 6938   1.785   3.887   8.812
 2232WAT     H2 6939   1.661   3.812   8.737
 2233WAT      O 6940   5.856   3.167   6.704
 2233WAT     H1 6941   5.808   3.120   6.630
 2233WAT     H2 6942   5.826   3.262   6.709
 2234WAT      O 6943   3.837   6.827   1.567
 2234WAT     H1 6944   3.908   6.766   1.533
 2234WAT     H2 6945   3.877   6.916   1.591
 2235WAT      O 6946   0.542   7.127   3.379
 2235WAT     H1 6947   0.627   7.101   3.334
 2235WAT     H2 6948   0.499   7.202   3.327
 2236WAT      O 6949   0.116   7.971   2.815
 2236WAT     H1 6950   0.055   8.024   2.756
 2236WAT     H2 6951   0.083   7.974   2.909
 2237WAT      O 6952   5.473   1.879   8.889
 2237WAT     H1 6953   5.427   1.945   8.830
 2237WAT     H2 6954   5.428   1.877   8.979
 2238WAT      O 6955   0.661   4.624   9.048
 2238WAT     H1 6956   0.651   4.710   9.099
 2238WAT     H2 6957   0.714   4.559   9.102
 2239WAT      O 6958   2.920   3.362   6.883
 2239WAT     H1 6959   2.954   3.454   6.902
 2239WAT     H2 6960   2.823   3.367   6.858
 2240WAT      O 6961   3.434   3.111   2.148
 2240WAT     H1 6962   3.431   3.191   2.208
 2240WAT     H2 6963   3.341   3.083   2.125
 2241WAT      O 6964   8.906   9.286   8.293
 2241WAT     H1 6965   8.986   9.343   8.276
 2241WAT     H2 6966   8.842   9.294   8.216
 2242WAT      O 6967   5.053   3.279   7.576
 2242WAT     H1 6968   5.117   3.265   7.501
 2242WAT     H2 6969   5.099   3.260   7.663
 2243WAT      O 6970   5.999   0.583   8.517
 2243WAT     H1 6971   6.052   0.574   8.432
 2243WAT     H2 6972   5.959   0.675   8.521
 2244WAT      O 6973   0.983   2.713   8.138
 2244WAT     H1 6974   0.902   2.655   8.133
 2244WAT     H2 6975   1.009   2.743   8.046
 2245WAT      O 6976   4.570   7.837   2.552
 2245WAT     H1 6977   4.640   7.770   2.577
 2245WAT     H2 6978   4.531   7.877   2.635
 2246WAT      O 6979   9.793   5.658   6.680
 2246WAT     H1 6980   9.774   5.572   6.727
 2246WAT     H2 6981   9.872   5.702   6.722
 2247WAT      O 6982   3.248   1.463   3.890
 2247WAT     H1 6983   3.223   1.392   3.824
 2247WAT     H2 6984   3.201   1.548   3.867
 2248WAT      O 6985   7.201   5.572   9.410
 2248WAT     H1 6986   7.255   5.489   9.392
 2248WAT     H2 6987   7.207   5.595   9.507
 2249WAT      O 6988   2.797   5.918   9.121
 2249WAT     H1 6989   2.722   5.926   9.187
 2249WAT     H2 6990   2.885   5.925   9.169
 2250WAT      O 6991   9.736   1.038   8.191
 2250WAT     H1 6992   9.762   1.085   8.276
 2250WAT     H2 6993   9.811   1.045   8.125
 2251WAT      O 6994   1.275   2.429   8.342
 2251WAT     H1 6995   1.183   2.392   8.358
 2251WAT     H2 6996   1.290   2.438   8.243
 2252WAT      O 6997   4.278   4.529   6.601
 2252WAT     H1 6998   4.260   4.440   6.645
 2252WAT     H2 6999   4.195   4.560   6.555
 2253WAT      O 7000   2.054   4.062   4.253
 2253WAT     H1 7001   1.972   4.005   4.247
 2253WAT     H2 7002   2.078   4.076   4.349
 2254WAT      O 7003   3.484   9.535   1.764
 2254WAT     H1 7004   3.476   9.436   1.753
 2254WAT     H2 7005   3.569   9.556   1.812
 2255WAT      O 7006   2.075   7.300   9.535
 2255WAT     H1 7007   1.987   7.258   9.517
 2255WAT     H2 7008   2.064   7.400   9.538
 2256WAT      O 7009   6.484   2.560   2.129
 2256WAT     H1 7010   6.454   2.537   2.222
 2256WAT     H2 7011   6.515   2.655   2.126
 2257WAT      O 7012   8.157   9.527   1.340
 2257WAT     H1 7013   8.109   9.517   1.426
 2257WAT     H2 7014   8.171   9.438   1.298
 2258WAT      O 7015   2.247   5.414   8.974
 2258WAT     H1 7016   2.311   5.401   8.898
 2258WAT     H2 7017   2.153   5.403   8.941
 2259WAT      O 7018   1.437   1.938   7.724
 2259WAT     H1 7019   1.483   1.998   7.789
 2259WAT     H2 7020   1.352   1.981   7.693
 2260WAT      O 7021   7.714   7.880   9.106
 2260WAT     H1 7022   7.789   7.814   9.119
 2260WAT     H2 7023   7.635   7.850   9.159
 2261WAT      O 7024   6.659   3.157   1.087
 2261WAT     H1 7025   6.680   3.065   1.054
 2261WAT     H2 7026   6.719   3.223   1.040
 2262WAT      O 7027   2.211   0.781   2.397
 2262WAT     H1 7028   2.202   0.717   2.320
 2262WAT     H2 7029   2.299   0.828   2.391
 2263WAT      O 7030   8.343   8.824   7.390
 2263WAT     H1 7031   8.288   8.856   7.467
 2263WAT     H2 7032   8.440   8.833   7.411
 2264WAT      O 7033   9.052   6.289   7.815
 2264WAT     H1 7034   8.960   6.258   7.840
 2264WAT     H2 7035   9.056   6.304   7.716
 2265WAT      O 7036   9.357   3.714   7.765
 2265WAT     H1 7037   9.349   3.664   7.852
 2265WAT     H2 7038   9.297   3.671   7.697
 2266WAT      O 7039   0.526   2.102   2.761
 2266WAT     H1 7040   0.478   2.078   2.846
 2266WAT     H2 7041   0.582   2.184   2.777
 2267WAT      O 7042   8.590   0.149   4.992
 2267WAT     H1 7043   8.545   0.154   5.081
 2267WAT     H2 7044   8.596   0.054   4.963
 2268WAT      O 7045   4.078   7.139   3.403
 2268WAT     H1 7046   4.081   7.086   3.488
 2268WAT     H2 7047   4.161   7.121   3.350
 2269WAT      O 7048   9.076   1.847   0.829
 2269WAT     H1 7049   9.119   1.757   0.828
 2269WAT     H2 7050   9.068   1.879   0.924
 2270WAT      O 7051   5.437   6.374   8.911
 2270WAT     H1 7052   5.453   6.292   8.857
 2270WAT     H2 7053   5.460   6.455   8.857
 2271WAT      O 7054   9.742   0.385   2.935
 2271WAT     H1 7055   9.690   0.452   2.988
 2271WAT     H2 7056   9.756   0.303   2.989
 2272WAT      O 7057   7.719   6.447   3.631
 2272WAT     H1 7058   7.654   6.371   3.635
 2272WAT     H2 7059   7.674   6.531   3.663
 2273WAT      O 7060   6.963   4.915   8.190
 2273WAT     H1 7061   7.054   4.886   8.161
 2273WAT     H2 7062   6.914   4.837   8.229
 2274WAT      O 7063   1.365   5.313   4.012
 2274WAT     H1 7064   1.329   5.300   3.920
 2274WAT     H2 7065   1.294   5.353   4.070
 2275WAT      O 7066   2.463   5.559   1.271
 2275WAT     H1 7067   2.559   5.562   1.245
 2275WAT     H2 7068   2.452   5.500   1.352
 2276WAT      O 7069   7.696   9.107   8.061
 2276WAT     H1 7070   7.598   9.102   8.079
 2276WAT     H2 7071   7.746   9.105   8.147
 2277WAT      O 7072   9.364   8.763   8.405
 2277WAT     H1 7073   9.416   8.847   8.386
 2277WAT     H2 7074   9.384   8.731   8.497
 2278WAT      O 7075   0.574   2.292   6.408
 2278WAT     H1 7076   0.573   2.385   6.442
 2278WAT     H2 7077   0.633   2.286   6.327
 2279WAT      O 7078   1.000   8.151   6.164
 2279WAT     H1 7079   1.060   8.074   6.142
 2279WAT     H2 7080   1.055   8.233   6.177
 2280WAT      O 7081   0.077   3.116   5.688
 2280WAT     H1 7082   0.103   3.175   5.612
 2280WAT     H2 7083   0.095   3.020   5.663
 2281WAT      O 7084   5.640   9.345   7.793
 2281WAT     H1 7085   5.556   9.382   7.754
 2281WAT     H2 7086   5.718   9.400   7.763
 2282WAT      O 7087   8.114   2.504   0.927
 2282WAT     H1 7088   8.031   2.518   0.981
 2282WAT     H2 7089   8.184   2.459   0.982
 2283WAT      O 7090   1.440   0.941   6.094
 2283WAT     H1 7091   1.344   0.953   6.070
 2283WAT     H2 7092   1.450   0.940   6.193
 2284WAT      O 7093   5.006   7.872   5.048
 2284WAT     H1 7094   5.084   7.912   5.097
 2284WAT     H2 7095   4.989   7.780   5.083
 2285WAT      O 7096   4.287   6.133   2.738
 2285WAT     H1 7097   4.355   6.083   2.683
 2285WAT     H2 7098   4.198   6.090   2.727
 2286WAT      O 7099   7.106   1.846   6.006
 2286WAT     H1 7100   7.199   1.813   5.993
 2286WAT     H2 7101   7.054   1.779   6.060
 2287WAT      O 7102   6.015   3.631   1.074
 2287WAT     H1 7103   5.962   3.716   1.069
 2287WAT     H2 7104   5.963   3.562   1.123
 2288WAT      O 7105   4.639   6.980   3.055
 2288WAT     H1 7106   4.557   6.924   3.063
 2288WAT     H2 7107   4.720   6.925   3.075
 2289WAT      O 7108   1.671   2.812   7.634
 2289WAT     H1 7109   1.621   2.811   7.547
 2289WAT     H2 7110   1.651   2.896   7.683
 2290WAT      O 7111   4.919   2.001   5.969
 2290WAT     H1 7112   4.921   2.027   5.872
 2290WAT     H2 7113   4.991   1.933   5.986
 2291WAT      O 7114   6.964   5.326   4.293
 2291WAT     H1 7115   6.989   5.229   4.289
 2291WAT     H2 7116   7.043   5.382   4.270
 2292WAT      O 7117   3.463   6.573   2.165
 2292WAT     H1 7118   3.446   6.517   2.084
 2292WAT     H2 7119   3.549   6.546   2.207
 2293WAT      O 7120   1.486   3.686   1.884
 2293WAT     H1 7121   1.458   3.629   1.962
 2293WAT     H2 7122   1.569   3.647   1.843
 2294WAT      O 7123   3.501   8.492   5.061
 2294WAT     H1 7124   3.510   8.394   5.048
 2294WAT     H2 7125   3.409   8.521   5.036
 2295WAT      O 7126   7.073   9.389   6.238
 2295WAT     H1 7127   7.003   9.431   6.296
 2295WAT     H2 7128   7.038   9.303   6.201
 2296WAT      O 7129   2.409   8.728   7.860
 2296WAT     H1 7130   2.381   8.803   7.800
 2296WAT     H2 7131   2.503   8.701   7.838
 2297WAT      O 7132   1.241   8.689   9.128
 2297WAT     H1 7133   1.322   8.727   9.084
 2297WAT     H2 7134   1.171   8.760   9.136
 2298WAT      O 7135   7.311   8.681   0.685
 2298WAT     H1 7136   7.331   8.777   0.705
 2298WAT     H2 7137   7.245   8.647   0.752
 2299WAT      O 7138   0.173   4.732   0.592
 2299WAT     H1 7139   0.182   4.806   0.658
 2299WAT     H2 7140   0.256   4.676   0.592
 2300WAT      O 7141   0.842   1.819   0.875
 2300WAT     H1 7142   0.817   1.778   0.963
 2300WAT     H2 7143   0.760   1.847   0.826
 2301WAT      O 7144   1.181   8.401   5.935
 2301WAT     H1 7145   1.273   8.394   5.896
 2301WAT     H2 7146   1.115   8.355   5.876
 2302WAT      O 7147   3.083   2.688   4.195
 2302WAT     H1 7148   2.994   2.669   4.236
 2302WAT     H2 7149   3.119   2.606   4.151
 2303WAT      O 7150   9.513   2.242   6.206
 2303WAT     H1 7151   9.549   2.306   6.138
 2303WAT     H2 7152   9.417   2.224   6.186
 2304WAT      O 7153   5.388   3.715   5.869
 2304WAT     H1 7154   5.406   3.791   5.931
 2304WAT     H2 7155   5.428   3.735   5.779
 2305WAT      O 7156   5.813   1.881   6.403
 2305WAT     H1 7157   5.771   1.824   6.474
 2305WAT     H2 7158   5.856   1.961   6.446
 2306WAT      O 7159   2.675   6.162   1.109
 2306WAT     H1 7160   2.603   6.232   1.113
 2306WAT     H2 7161   2.694   6.128   1.200
 2307WAT      O 7162   0.884   7.060   6.342
 2307WAT     H1 7163   0.899   7.120   6.421
 2307WAT     H2 7164   0.971   7.023   6.311
 2308WAT      O 7165   2.671   0.797   8.072
 2308WAT     H1 7166   2.718   0.805   8.160
 2308WAT     H2 7167   2.739   0.780   8.000
 2309WAT      O 7168   2.895   4.977   7.752
 2309WAT     H1 7169   2.954   5.007   7.676
 2309WAT     H2 7170   2.912   4.881   7.771
 2310WAT      O 7171   7.113   9.216   7.472
 2310WAT     H1 7172   7.014   9.206   7.463
 2310WAT     H2 7173   7.148   9.272   7.398
 2311WAT      O 7174   2.205   9.599   8.651
 2311WAT     H1 7175   2.251   9.566   8.734
 2311WAT     H2 7176   2.173   9.521   8.597
 2312WAT      O 7177   7.306   9.000   7.674
 2312WAT     H1 7178   7.306   8.947   7.759
 2312WAT     H2 7179   7.337   9.094   7.694
 2313WAT      O 7180   5.472   3.070   0.528
 2313WAT     H1 7181   5.395   3.115   0.572
 2313WAT     H2 7182   5.548   3.063   0.592
 2314WAT      O 7183   5.461   7.865   2.457
 2314WAT     H1 7184   5.504   7.795   2.400
 2314WAT     H2 7185   5.524   7.941   2.470
 2315WAT      O 7186   2.030   6.739   7.769
 2315WAT     H1 7187   2.097   6.666   7.754
 2315WAT     H2 7188   1.961   6.737   7.698
 2316WAT      O 7189   0.336   5.370   8.051
 2316WAT     H1 7190   0.372   5.386   7.959
 2316WAT     H2 7191   0.236   5.368   8.048
 2317WAT      O 7192   4.658   3.326   0.858
 2317WAT     H1 7193   4.711   3.250   0.820
 2317WAT     H2 7194   4.669   3.407   0.800
 2318WAT      O 7195   6.697   9.271   5.471
 2318WAT     H1 7196   6.648   9.184   5.469
 2318WAT     H2 7197   6.732   9.291   5.379
 2319WAT      O 7198   6.900   3.414   1.364
 2319WAT     H1 7199   6.913   3.491   1.302
 2319WAT     H2 7200   6.930   3.438   1.456
 2320WAT      O 7201   3.471   7.030   8.560
 2320WAT     H1 7202   3.383   7.077   8.548
 2320WAT     H2 7203   3.542   7.081   8.511
 2321WAT      O 7204   8.038   2.367   4.964
 2321WAT     H1 7205   8.028   2.282   5.016
 2321WAT     H2 7206   8.087   2.434   5.019
 2322WAT      O 7207   2.260   7.087   3.992
 2322WAT     H1 7208   2.288   7.083   4.088
 2322WAT     H2 7209   2.161   7.079   3.986
 2323WAT      O 7210   4.150   6.627   8.210
 2323WAT     H1 7211   4.067   6.637   8.156
 2323WAT     H2 7212   4.159   6.533   8.241
 2324WAT      O 7213   3.982   8.690   1.228
 2324WAT     H1 7214   3.884   8.681   1.214
 2324WAT     H2 7215   4.024   8.731   1.147
 2325WAT      O 7216   9.847   2.191   7.246
 2325WAT     H1 7217   9.852   2.225   7.340
 2325WAT     H2 7218   9.758   2.213   7.207
 2326WAT      O 7219   6.994   6.855   5.322
 2326WAT     H1 7220   7.093   6.869   5.312
 2326WAT     H2 7221   6.978   6.768   5.368
 2327WAT      O 7222   2.526   9.339   9.684
 2327WAT     H1 7223   2.529   9.397   9.766
 2327WAT     H2 7224   2.564   9.389   9.606
 2328WAT      O 7225   9.216   9.084   8.857
 2328WAT     H1 7226   9.187   9.001   8.904
 2328WAT     H2 7227   9.239   9.063   8.762
 2329WAT      O 7228   5.244   4.198   8.635
 2329WAT     H1 7229   5.322   4.149   8.674
 2329WAT     H2 7230   5.262   4.218   8.538
 2330WAT      O 7231   9.294   7.209   9.534
 2330WAT     H1 7232   9.391   7.232   9.545
 2330WAT     H2 7233   9.282   7.157   9.450
 2331WAT      O 7234   9.315   6.575   8.360
 2331WAT     H1 7235   9.387   6.506   8.362
 2331WAT     H2 7236   9.355   6.665   8.377
 2332WAT      O 7237   0.601   8.216   0.078
 2332WAT     H1 7238   0.569   8.282   0.146
 2332WAT     H2 7239   0.539   8.216  -0.000
 2333WAT      O 7240   8.617   1.063   5.283
 2333WAT     H1 7241   8.567   1.149   5.293
 2333WAT     H2 7242   8.590   1.019   5.197
 2334WAT      O 7243   2.952   2.622   0.542
 2334WAT     H1 7244   2.992   2.539   0.503
 2334WAT     H2 7245   2.969   2.624   0.640
 2335WAT      O 7246   4.635   4.846   0.867
 2335WAT     H1 7247   4.541   4.869   0.842
 2335WAT     H2 7248   4.675   4.922   0.920
 2336WAT      O 7249   6.528   1.638   0.635
 2336WAT     H1 7250   6.574   1.647   0.723
 2336WAT     H2 7251   6.557   1.711   0.574
 2337WAT      O 7252   6.869   5.789   4.018
 2337WAT     H1 7253   6.854   5.691   4.031
 2337WAT     H2 7254   6.860   5.836   4.106
 2338WAT      O 7255   0.336   5.438   4.600
 2338WAT     H1 7256   0.314   5.434   4.502
 2338WAT     H2 7257   0.274   5.502   4.645
 2339WAT      O 7258   6.211   2.267   4.444
 2339WAT     H1 7259   6.144   2.333   4.477
 2339WAT     H2 7260   6.211   2.266   4.344
 2340WAT      O 7261   7.330   4.348   3.279
 2340WAT     H1 7262   7.331   4.344   3.379
 2340WAT     H2 7263   7.359   4.259   3.242
 2341WAT      O 7264   1.944   8.308   0.221
 2341WAT     H1 7265   2.027   8.288   0.170
 2341WAT     H2 7266   1.968   8.342   0.312
 2342WAT      O 7267   0.202   1.771   6.072
 2342WAT     H1 7268   0.147   1.689   6.056
 2342WAT     H2 7269   0.248   1.796   5.987
 2343WAT      O 7270   1.554   8.034   5.232
 2343WAT     H1 7271   1.472   8.001   5.185
 2343WAT     H2 7272   1.628   8.046   5.165
 2344WAT      O 7273   7.444   9.273   4.065
 2344WAT     H1 7274   7.460   9.366   4.035
 2344WAT     H2 7275   7.516   9.213   4.029
 2345WAT      O 7276   9.713   1.569   6.213
 2345WAT     H1 7277   9.699   1.600   6.307
 2345WAT     H2 7278   9.684   1.473   6.205
 2346WAT      O 7279   1.672   1.826   3.410
 2346WAT     H1 7280   1.749   1.858   3.466
 2346WAT     H2 7281   1.590   1.878   3.435
 2347WAT      O 7282   6.400   7.803   1.260
 2347WAT     H1 7283   6.433   7.819   1.353
 2347WAT     H2 7284   6.450   7.861   1.196
 2348WAT      O 7285   4.012   6.554   4.483
 2348WAT     H1 7286   4.009   6.513   4.574
 2348WAT     H2 7287   4.008   6.482   4.413
 2349WAT      O 7288   2.214   2.471   1.641
 2349WAT     H1 7289   2.125   2.470   1.686
 2349WAT     H2 7290   2.201   2.490   1.543
 2350WAT      O 7291   8.616   1.876   2.187
 2350WAT     H1 7292   8.699   1.830   2.220
 2350WAT     H2 7293   8.639   1.970   2.160
 2351WAT      O 7294   9.711   6.189   2.882
 2351WAT     H1 7295   9.616   6.168   2.858
 2351WAT     H2 7296   9.772   6.130   2.829
 2352WAT      O 7297   5.366   7.581   6.636
 2352WAT     H1 7298   5.335   7.528   6.714
 2352WAT     H2 7299   5.347   7.531   6.551
 2353WAT      O 7300   2.292   6.345   0.352
 2353WAT     H1 7301   2.358   6.394   0.295
 2353WAT     H2 7302   2.341   6.285   0.416
 2354WAT      O 7303   4.549   9.518   8.855
 2354WAT     H1 7304   4.520   9.449   8.789
 2354WAT     H2 7305   4.469   9.552   8.905
 2355WAT      O 7306   2.687   1.768   1.832
 2355WAT     H1 7307   2.590   1.751   1.810
 2355WAT     H2 7308   2.719   1.848   1.783
 2356WAT      O 7309   4.741   1.544   0.812
 2356WAT     H1 7310   4.677   1.492   0.869
 2356WAT     H2 7311   4.831   1.544   0.855
 2357WAT      O 7312   8.144   8.452   3.870
 2357WAT     H1 7313   8.070   8.516   3.850
 2357WAT     H2 7314   8.149   8.436   3.968
 2358WAT      O 7315   5.631   4.791   6.442
 2358WAT     H1 7316   5.682   4.707   6.424
 2358WAT     H2 7317   5.694   4.866   6.459
 2359WAT      O 7318   3.506   4.586   8.447
 2359WAT     H1 7319   3.550   4.643   8.378
 2359WAT     H2 7320   3.536   4.614   8.538
 2360WAT      O 7321   2.437   0.371   9.503
 2360WAT     H1 7322   2.402   0.417   9.585
 2360WAT     H2 7323   2.408   0.422   9.422
 2361WAT      O 7324   1.962   2.217   3.152
 2361WAT     H1 7325   1.910   2.232   3.237
 2361WAT     H2 7326   1.940   2.127   3.116
 2362WAT      O 7327   7.523   2.628   9.269
 2362WAT     H1 7328   7.498   2.570   9.346
 2362WAT     H2 7329   7.461   2.612   9.193
 2363WAT      O 7330   8.029   4.379   4.706
 2363WAT     H1 7331   8.009   4.441   4.782
 2363WAT     H2 7332   8.106   4.320   4.731
 2364WAT      O 7333   3.278   8.643   4.920
 2364WAT     H1 7334   3.222   8.724   4.907
 2364WAT     H2 7335   3.348   8.638   4.849
 2365WAT      O 7336   7.328   8.853   2.301
 2365WAT     H1 7337   7.308   8.913   2.224
 2365WAT     H2 7338   7.382   8.903   2.369
 2366WAT      O 7339   0.041   2.588   2.280
 2366WAT     H1 7340  -0.001   2.507   2.322
 2366WAT     H2 7341   0.050   2.660   2.349
 2367WAT      O 7342   8.164   2.301   5.724
 2367WAT     H1 7343   8.200   2.390   5.748
 2367WAT     H2 7344   8.103   2.310   5.646
 2368WAT      O 7345   2.754   9.192   3.237
 2368WAT     H1 7346   2.797   9.106   3.263
 2368WAT     H2 7347   2.681   9.213   3.301
 2369WAT      O 7348   3.655   8.310   5.676
 2369WAT     H1 7349   3.609   8.346   5.595
 2369WAT     H2 7350   3.598   8.239   5.718
 2370WAT      O 7351   4.986   3.743   5.316
 2370WAT     H1 7352   5.025   3.812   5.376
 2370WAT     H2 7353   5.050   3.724   5.241
 2371WAT      O 7354   8.169   2.238   2.265
 2371WAT     H1 7355   8.200   2.155   2.219
 2371WAT     H2 7356   8.100   2.214   2.333
 2372WAT      O 7357   8.739   0.944   6.136
 2372WAT     H1 7358   8.716   0.964   6.041
 2372WAT     H2 7359   8.821   0.994   6.162
 2373WAT      O 7360   0.516   1.155   7.263
 2373WAT     H1 7361   0.541   1.059   7.273
 2373WAT     H2 7362   0.556   1.192   7.179
 2374WAT      O 7363   5.385   1.457   8.588
 2374WAT     H1 7364   5.393   1.391   8.663
 2374WAT     H2 7365   5.383   1.550   8.625
 2375WAT      O 7366   1.891   2.176   3.645
 2375WAT     H1 7367   1.835   2.122   3.708
 2375WAT     H2 7368   1.959   2.227   3.697
 2376WAT      O 7369   2.394   6.023   6.495
 2376WAT     H1 7370   2.442   5.945   6.536
 2376WAT     H2 7371   2.322   5.989   6.435
 2377WAT      O 7372   4.118   4.836   5.063
 2377WAT     H1 7373   4.053   4.822   4.988
 2377WAT     H2 7374   4.175   4.915   5.042
 2378WAT      O 7375   0.392   0.945   5.037
 2378WAT     H1 7376   0.364   1.021   5.096
 2378WAT     H2 7377   0.316   0.881   5.027
 2379WAT      O 7378   8.577   8.930   2.731
 2379WAT     H1 7379   8.511   8.953   2.659
 2379WAT     H2 7380   8.669   8.955   2.701
 2380WAT      O 7381   0.320   7.675   0.213
 2380WAT     H1 7382   0.366   7.763   0.199
 2380WAT     H2 7383   0.371   7.621   0.279
 2381WAT      O 7384   9.738   7.986   7.801
 2381WAT     H1 7385   9.730   7.903   7.856
 2381WAT     H2 7386   9.835   8.002   7.779
 2382WAT      O 7387   4.733   5.093   0.933
 2382WAT     H1 7388   4.799   5.088   1.008
 2382WAT     H2 7389   4.762   5.165   0.869
 2383WAT      O 7390   1.085   4.143   4.888
 2383WAT     H1 7391   1.165   4.101   4.931
 2383WAT     H2 7392   1.061   4.093   4.805
 2384WAT      O 7393   1.538   0.243   1.201
 2384WAT     H1 7394   1.587   0.274   1.120
 2384WAT     H2 7395   1.603   0.208   1.268
 2385WAT      O 7396   1.284   6.420   6.857
 2385WAT     H1 7397   1.302   6.491   6.925
 2385WAT     H2 7398   1.313   6.331   6.892
 2386WAT      O 7399   1.975   9.559   7.265
 2386WAT     H1 7400   2.008   9.651   7.289
 2386WAT     H2 7401   2.050   9.506   7.227
 2387WAT      O 7402   0.102   3.440   5.886
 2387WAT     H1 7403   0.146   3.495   5.815
 2387WAT     H2 7404   0.018   3.400   5.850
 2388WAT      O 7405   2.439   2.586   7.307
 2388WAT     H1 7406   2.412   2.563   7.400
 2388WAT     H2 7407   2.473   2.505   7.260
 2389WAT      O 7408   6.835   9.751   0.605
 2389WAT     H1 7409   6.814   9.654   0.615
 2389WAT     H2 7410   6.885   9.783   0.686
 2390WAT      O 7411   2.187   6.870   5.927
 2390WAT     H1 7412   2.251   6.873   6.004
 2390WAT     H2 7413   2.188   6.959   5.880
 2391WAT      O 7414   3.407   6.864   1.330
 2391WAT     H1 7415   3.353   6.809   1.395
 2391WAT     H2 7416   3.497   6.883   1.369
 2392WAT      O 7417   6.938   6.086   9.005
 2392WAT     H1 7418   6.966   6.172   9.048
 2392WAT     H2 7419   6.994   6.069   8.923
 2393WAT      O 7420   9.102   0.927   8.053
 2393WAT     H1 7421   9.124   0.990   7.978
 2393WAT     H2 7422   9.100   0.977   8.139
 2394WAT      O 7423   7.092   4.748   3.213
 2394WAT     H1 7424   7.045   4.766   3.126
 2394WAT     H2 7425   7.161   4.676   3.199
 2395WAT      O 7426   2.706   1.595   4.580
 2395WAT     H1 7427   2.720   1.680   4.632
 2395WAT     H2 7428   2.622   1.603   4.526
 2396WAT      O 7429   8.465   6.145   1.918
 2396WAT     H1 7430   8.458   6.055   1.874
 2396WAT     H2 7431   8.378   6.193   1.909
 2397WAT      O 7432   9.258   9.202   3.490
 2397WAT     H1 7433   9.182   9.154   3.533
 2397WAT     H2 7434   9.292   9.272   3.551
 2398WAT      O 7435   9.088   8.967   8.623
 2398WAT     H1 7436   9.023   9.041   8.638
 2398WAT     H2 7437   9.040   8.879   8.625
 2399WAT      O 7438   9.177   0.774   9.601
 2399WAT     H1 7439   9.142   0.722   9.524
 2399WAT     H2 7440   9.193   0.869   9.573
 2400WAT      O 7441   7.557   4.618   6.080
 2400WAT     H1 7442   7.533   4.610   6.177
 2400WAT     H2 7443   7.501   4.554   6.027
 2401WAT      O 7444   6.363   2.084   4.068
 2401WAT     H1 7445   6.448   2.133   4.086
 2401WAT     H2 7446   6.309   2.134   3.999
 2402WAT      O 7447   5.954   6.651   7.179
 2402WAT     H1 7448   5.864   6.689   7.155
 2402WAT     H2 7449   5.944   6.587   7.255
 2403WAT      O 7450   6.322   8.049   8.598
 2403WAT     H1 7451   6.300   8.142   8.569
 2403WAT     H2 7452   6.238   7.996   8.604
 2404WAT      O 7453   7.088   4.183   2.407
 2404WAT     H1 7454   7.005   4.230   2.375
 2404WAT     H2 7455   7.167   4.219   2.358
 2405WAT      O 7456   0.974   4.281   5.913
 2405WAT     H1 7457   0.985   4.229   5.829
 2405WAT     H2 7458   0.948   4.375   5.891
 2406WAT      O 7459   1.940   6.405   6.143
 2406WAT     H1 7460   1.936   6.369   6.050
 2406WAT     H2 7461   2.005   6.481   6.146
 2407WAT      O 7462   6.612   2.289   1.365
 2407WAT     H1 7463   6.709   2.283   1.387
 2407WAT     H2 7464   6.582   2.384   1.370
 2408WAT      O 7465   3.639   9.109   8.108
 2408WAT     H1 7466   3.556   9.055   8.122
 2408WAT     H2 7467   3.614   9.204   8.088
 2409WAT      O 7468   4.194   4.215   1.402
 2409WAT     H1 7469   4.222   4.132   1.451
 2409WAT     H2 7470   4.264   4.239   1.334
 2410WAT      O 7471   2.993   5.248   5.546
 2410WAT     H1 7472   2.998   5.218   5.450
 2410WAT     H2 7473   2.980   5.168   5.605
 2411WAT      O 7474   3.808   1.358   7.047
 2411WAT     H1 7475   3.803   1.445   6.999
 2411WAT     H2 7476   3.749   1.361   7.128
 2412WAT      O 7477   3.120   4.449   2.968
 2412WAT     H1 7478   3.043   4.386   2.957
 2412WAT     H2 7479   3.145   4.455   3.064
 2413WAT      O 7480   4.947   3.442   1.319
 2413WAT     H1 7481   4.922   3.446   1.416
 2413WAT     H2 7482   5.046   3.430   1.311
 2414WAT      O 7483   7.055   3.140   2.929
 2414WAT     H1 7484   7.125   3.208   2.950
 2414WAT     H2 7485   6.964   3.182   2.938
 2415WAT      O 7486   3.181   6.654   6.151
 2415WAT     H1 7487   3.192   6.596   6.232
 2415WAT     H2 7488   3.084   6.660   6.127
 2416WAT      O 7489   1.315   4.039   5.098
 2416WAT     H1 7490   1.265   4.106   5.154
 2416WAT     H2 7491   1.329   3.956   5.150
 2417WAT      O 7492   8.133   0.981   3.972
 2417WAT     H1 7493   8.231   0.982   3.989
 2417WAT     H2 7494   8.084   1.005   4.056
 2418WAT      O 7495   4.389   7.882   2.070
 2418WAT     H1 7496   4.351   7.934   2.147
 2418WAT     H2 7497   4.345   7.792   2.066
 2419WAT      O 7498   0.895   7.258   8.525
 2419WAT     H1 7499   0.934   7.341   8.564
 2419WAT     H2 7500   0.942   7.236   8.439
 2420WAT      O 7501   6.876   5.367   3.026
 2420WAT     H1 7502   6.787   5.367   2.980
 2420WAT     H2 7503   6.916   5.458   3.021
 2421WAT      O 7504   8.647   0.885   9.596
 2421WAT     H1 7505   8.677   0.962   9.652
 2421WAT     H2 7506   8.712   0.810   9.604
 2422WAT      O 7507   4.296   3.552   8.419
 2422WAT     H1 7508   4.387   3.568   8.458
 2422WAT     H2 7509   4.261   3.465   8.452
 2423WAT      O 7510   6.652   8.054   1.975
 2423WAT     H1 7511   6.565   8.006   1.959
 2423WAT     H2 7512   6.725   7.987   1.989
 2424WAT      O 7513   7.470   1.763   8.408
 2424WAT     H1 7514   7.435   1.674   8.381
 2424WAT     H2 7515   7.394   1.821   8.438
 2425WAT      O 7516   5.933   1.895   9.018
 2425WAT     H1 7517   5.943   1.963   9.091
 2425WAT     H2 7518   5.897   1.811   9.057
 2426WAT      O 7519   3.303   1.884   1.669
 2426WAT     H1 7520   3.206   1.898   1.651
 2426WAT     H2 7521   3.339   1.814   1.608
 2427WAT      O 7522   9.128   2.742   8.241
 2427WAT     H1 7523   9.039   2.702   8.262
 2427WAT     H2 7524   9.121   2.842   8.249
 2428WAT      O 7525   3.059   8.397   6.328
 2428WAT     H1 7526   2.982   8.358   6.278
 2428WAT     H2 7527   3.144   8.356   6.297
 2429WAT      O 7528   1.856   4.724   2.036
 2429WAT     H1 7529   1.803   4.666   2.098
 2429WAT     H2 7530   1.904   4.794   2.088
 2430WAT      O 7531   8.188   9.180   6.805
 2430WAT     H1 7532   8.280   9.160   6.839
 2430WAT     H2 7533   8.122   9.165   6.879
 2431WAT      O 7534   4.532   3.100   3.880
 2431WAT     H1 7535   4.593   3.141   3.813
 2431WAT     H2 7536   4.481   3.171   3.928
 2432WAT      O 7537   1.040   8.869   6.445
 2432WAT     H1 7538   1.018   8.877   6.348
 2432WAT     H2 7539   0.955   8.858   6.497
 2433WAT      O 7540   6.156   5.770   4.198
 2433WAT     H1 7541   6.215   5.842   4.236
 2433WAT     H2 7542   6.100   5.808   4.125
 2434WAT      O 7543   1.209   4.767   1.367
 2434WAT     H1 7544   1.252   4.849   1.404
 2434WAT     H2 7545   1.237   4.688   1.421
 2435WAT      O 7546   4.957   6.679   1.823
 2435WAT     H1 7547   4.861   6.703   1.833
 2435WAT     H2 7548   4.987   6.700   1.730
 2436WAT      O 7549   8.769   5.316   6.646
 2436WAT     H1 7550   8.835   5.391   6.643
 2436WAT     H2 7551   8.687   5.342   6.595
 2437WAT      O 7552   8.865   3.052   8.537
 2437WAT     H1 7553   8.782   3.013   8.497
 2437WAT     H2 7554   8.841   3.132   8.592
 2438WAT      O 7555   6.967   8.057   6.980
 2438WAT     H1 7556   6.877   8.087   6.947
 2438WAT     H2 7557   7.035   8.073   6.910
 2439WAT      O 7558   2.016   4.893   3.966
 2439WAT     H1 7559   2.086   4.948   4.011
 2439WAT     H2 7560   1.938   4.880   4.028
 2440WAT      O 7561   1.410   4.114   1.915
 2440WAT     H1 7562   1.478   4.069   1.973
 2440WAT     H2 7563   1.435   4.101   1.819
 2441WAT      O 7564   6.651   3.448   5.952
 2441WAT     H1 7565   6.665   3.465   5.854
 2441WAT     H2 7566   6.722   3.493   6.005
 2442WAT      O 7567   3.859   9.574   6.253
 2442WAT     H1 7568   3.924   9.612   6.319
 2442WAT     H2 7569   3.840   9.479   6.276
 2443WAT      O 7570   4.754   5.734   4.037
 2443WAT     H1 7571   4.739   5.653   3.981
 2443WAT     H2 7572   4.690   5.733   4.114
 2444WAT      O 7573   3.263   6.508   9.032
 2444WAT     H1 7574   3.300   6.600   9.020
 2444WAT     H2 7575   3.278   6.478   9.126
 2445WAT      O 7576   4.724   2.153   3.883
 2445WAT     H1 7577   4.821   2.168   3.862
 2445WAT     H2 7578   4.673   2.237   3.864
 2446WAT      O 7579   7.732   3.383   4.048
 2446WAT     H1 7580   7.754   3.438   3.967
 2446WAT     H2 7581   7.766   3.430   4.130
 2447WAT      O 7582   1.737   7.336   8.631
 2447WAT     H1 7583   1.794   7.341   8.714
 2447WAT     H2 7584   1.662   7.272   8.647
 2448WAT      O 7585   9.402   5.691   3.174
 2448WAT     H1 7586   9.443   5.627   3.238
 2448WAT     H2 7587   9.437   5.674   3.082
 2449WAT      O 7588   5.008   3.637   9.268
 2449WAT     H1 7589   5.073   3.658   9.341
 2449WAT     H2 7590   4.993   3.538   9.264
 2450WAT      O 7591   4.646   2.427   4.516
 2450WAT     H1 7592   4.595   2.427   4.602
 2450WAT     H2 7593   4.608   2.357   4.455
 2451WAT      O 7594   3.607   2.884   5.696
 2451WAT     H1 7595   3.667   2.885   5.777
 2451WAT     H2 7596   3.512   2.890   5.725
 2452WAT      O 7597   7.916   2.377   3.124
 2452WAT     H1 7598   7.899   2.280   3.108
 2452WAT     H2 7599   7.862   2.431   3.059
 2453WAT      O 7600   1.522   6.795   3.223
 2453WAT     H1 7601   1.616   6.780   3.252
 2453WAT     H2 7602   1.510   6.891   3.197
 2454WAT      O 7603   6.966   2.784   2.471
 2454WAT     H1 7604   7.041   2.771   2.536
 2454WAT     H2 7605   6.959   2.704   2.411
 2455WAT      O 7606   8.963   4.794   5.313
 2455WAT     H1 7607   9.053   4.760   5.287
 2455WAT     H2 7608   8.968   4.892   5.331
 2456WAT      O 7609   2.547   9.792   6.834
 2456WAT     H1 7610   2.567   9.886   6.861
 2456WAT     H2 7611   2.533   9.736   6.916
 2457WAT      O 7612   9.618   1.904   2.808
 2457WAT     H1 7613   9.594   1.936   2.899
 2457WAT     H2 7614   9.665   1.977   2.758
 2458WAT      O 7615   0.502   3.900   8.343
 2458WAT     H1 7616   0.589   3.913   8.390
 2458WAT     H2 7617   0.467   3.808   8.362
 2459WAT      O 7618   5.263   3.976   1.804
 2459WAT     H1 7619   5.255   3.910   1.878
 2459WAT     H2 7620   5.185   4.039   1.807
 2460WAT      O 7621   3.525   4.109   2.386
 2460WAT     H1 7622   3.517   4.201   2.425
 2460WAT     H2 7623   3.434   4.069   2.378
 2461WAT      O 7624   4.112   6.112   5.118
 2461WAT     H1 7625   4.142   6.108   5.023
 2461WAT     H2 7626   4.184   6.150   5.175
 2462WAT      O 7627   2.024   4.081   3.281
 2462WAT     H1 7628   2.011   4.120   3.190
 2462WAT     H2 7629   1.998   4.149   3.350
 2463WAT      O 7630   7.880   9.666   3.164
 2463WAT     H1 7631   7.785   9.683   3.188
 2463WAT     H2 7632   7.934   9.749   3.181
 2464WAT      O 7633   4.813   4.541   1.438
 2464WAT     H1 7634   4.899   4.493   1.418
 2464WAT     H2 7635   4.820   4.636   1.410
 2465WAT      O 7636   6.473   7.564   5.434
 2465WAT     H1 7637   6.529   7.615   5.499
 2465WAT     H2 7638   6.505   7.469   5.428
 2466WAT      O 7639   3.026   2.515   0.805
 2466WAT     H1 7640   2.956   2.464   0.754
 2466WAT     H2 7641   3.058   2.459   0.881
 2467WAT      O 7642   7.195   1.666   0.937
 2467WAT     H1 7643   7.279   1.624   0.901
 2467WAT     H2 7644   7.150   1.602   0.999
 2468WAT      O 7645   3.710   1.165   2.985
 2468WAT     H1 7646   3.723   1.264   2.990
 2468WAT     H2 7647   3.638   1.139   3.050
 2469WAT      O 7648   3.128   0.271   5.397
 2469WAT     H1 7649   3.129   0.230   5.488
 2469WAT     H2 7650   3.199   0.228   5.341
 2470WAT      O 7651   5.226   6.209   4.260
 2470WAT     H1 7652   5.142   6.234   4.308
 2470WAT     H2 7653   5.281   6.148   4.317
 2471WAT      O 7654   5.520   7.943   4.347
 2471WAT     H1 7655   5.469   7.994   4.278
 2471WAT     H2 7656   5.463   7.929   4.428
 2472WAT      O 7657   5.804   4.507   2.484
 2472WAT     H1 7658   5.846   4.513   2.575
 2472WAT     H2 7659   5.756   4.593   2.464
 2473WAT      O 7660   5.131   1.006   1.295
 2473WAT     H1 7661   5.072   1.083   1.269
 2473WAT     H2 7662   5.134   0.999   1.395
 2474WAT      O 7663   1.156   1.029   4.243
 2474WAT     H1 7664   1.218   1.017   4.165
 2474WAT     H2 7665   1.069   1.066   4.211
 2475WAT      O 7666   1.575   3.894   3.328
 2475WAT     H1 7667   1.545   3.810   3.281
 2475WAT     H2 7668   1.596   3.964   3.260
 2476WAT      O 7669   8.311   3.552   0.932
 2476WAT     H1 7670   8.282   3.484   0.998
 2476WAT     H2 7671   8.319   3.510   0.842
 2477WAT      O 7672   2.394   5.740   3.176
 2477WAT     H1 7673   2.305   5.717   3.136
 2477WAT     H2 7674   2.384   5.752   3.274
 2478WAT      O 7675   3.362   2.670   8.904
 2478WAT     H1 7676   3.399   2.734   8.836
 2478WAT     H2 7677   3.286   2.619   8.865
 2479WAT      O 7678   6.458   4.176   6.717
 2479WAT     H1 7679   6.419   4.159   6.626
 2479WAT     H2 7680   6.492   4.270   6.722
 2480WAT      O 7681   7.207   1.956   3.640
 2480WAT     H1 7682   7.164   1.867   3.655
 2480WAT     H2 7683   7.203   1.978   3.542
 2481WAT      O 7684   8.352   1.606   7.292
 2481WAT     H1 7685   8.355   1.705   7.279
 2481WAT     H2 7686   8.369   1.584   7.388
 2482WAT      O 7687   0.275   5.169   5.020
 2482WAT     H1 7688   0.205   5.154   4.950
 2482WAT     H2 7689   0.341   5.095   5.018
 2483WAT      O 7690   2.810   1.960   8.389
 2483WAT     H1 7691   2.847   2.002   8.306
 2483WAT     H2 7692   2.864   1.878   8.411
 2484WAT      O 7693   3.333   7.900   3.192
 2484WAT     H1 7694   3.396   7.968   3.155
 2484WAT     H2 7695   3.268   7.873   3.121
 2485WAT      O 7696   9.252   2.765   5.886
 2485WAT     H1 7697   9.230   2.707   5.808
 2485WAT     H2 7698   9.167   2.795   5.930
 2486WAT      O 7699   5.244   7.847   2.599
 2486WAT     H1 7700   5.174   7.780   2.577
 2486WAT     H2 7701   5.324   7.832   2.541
 2487WAT      O 7702   9.208   6.720   2.725
 2487WAT     H1 7703   9.273   6.720   2.649
 2487WAT     H2 7704   9.115   6.730   2.689
 2488WAT      O 7705   5.595   5.067   3.955
 2488WAT     H1 7706   5.587   5.081   4.054
 2488WAT     H2 7707   5.504   5.076   3.913
 2489WAT      O 7708   0.625   0.648   9.106
 2489WAT     H1 7709   0.617   0.715   9.181
 2489WAT     H2 7710   0.534   0.624   9.072
 2490WAT      O 7711   0.396   0.302   7.478
 2490WAT     H1 7712   0.403   0.225   7.541
 2490WAT     H2 7713   0.484   0.316   7.432
 2491WAT      O 7714   5.048   7.861   7.466
 2491WAT     H1 7715   5.071   7.853   7.369
 2491WAT     H2 7716   5.125   7.903   7.515
 2492WAT      O 7717   6.819   8.657   4.206
 2492WAT     H1 7718   6.801   8.735   4.147
 2492WAT     H2 7719   6.760   8.581   4.180
 2493WAT      O 7720   5.674   1.083   7.673
 2493WAT     H1 7721   5.714   1.160   7.624
 2493WAT     H2 7722   5.747   1.019   7.699
 2494WAT      O 7723   6.394   8.432   7.968
 2494WAT     H1 7724   6.447   8.514   7.946
 2494WAT     H2 7725   6.449   8.351   7.950
 2495WAT      O 7726   8.262   0.284   0.450
 2495WAT     H1 7727   8.214   0.225   0.516
 2495WAT     H2 7728   8.196   0.341   0.402
 2496WAT      O 7729   0.238   7.687   4.995
 2496WAT     H1 7730   0.255   7.743   4.913
 2496WAT     H2 7731   0.293   7.723   5.071
 2497WAT      O 7732   9.167   9.031   6.923
 2497WAT     H1 7733   9.161   8.937   6.958
 2497WAT     H2 7734   9.076   9.072   6.923
 2498WAT      O 7735   5.023   4.863   8.550
 2498WAT     H1 7736   4.992   4.924   8.622
 2498WAT     H2 7737   4.998   4.769   8.572
 2499WAT      O 7738   2.536   9.587   3.752
 2499WAT     H1 7739   2.539   9.527   3.672
 2499WAT     H2 7740   2.586   9.545   3.828
 2500WAT      O 7741   4.066   5.972   3.583
 2500WAT     H1 7742   3.981   5.927   3.559
 2500WAT     H2 7743   4.126   5.977   3.503
 2501WAT      O 7744   7.367   7.865   3.420
 2501WAT     H1 7745   7.342   7.806   3.343
 2501WAT     H2 7746   7.450   7.916   3.398
 2502WAT      O 7747   8.429   5.129   4.083
 2502WAT     H1 7748   8.398   5.220   4.110
 2502WAT     H2 7749   8.406   5.112   3.987
 2503WAT      O 7750   6.569   4.882   2.517
 2503WAT     H1 7751   6.643   4.869   2.450
 2503WAT     H2 7752   6.571   4.976   2.551
 2504WAT      O 7753   9.340   8.386   3.329
 2504WAT     H1 7754   9.338   8.299   3.281
 2504WAT     H2 7755   9.351   8.461   3.263
 2505WAT      O 7756   8.786   9.662   8.792
 2505WAT     H1 7757   8.773   9.686   8.696
 2505WAT     H2 7758   8.748   9.571   8.809
 2506WAT      O 7759   4.018   2.999   7.371
 2506WAT     H1 7760   4.020   2.908   7.413
 2506WAT     H2 7761   3.928   3.017   7.334
 2507WAT      O 7762   4.156   2.405   9.284
 2507WAT     H1 7763   4.140   2.478   9.350
 2507WAT     H2 7764   4.210   2.440   9.207
 2508WAT      O 7765   4.391   2.313   9.498
 2508WAT     H1 7766   4.466   2.294   9.562
 2508WAT     H2 7767   4.317   2.247   9.513
 2509WAT      O 7768   4.564   5.086   1.339
 2509WAT     H1 7769   4.504   5.157   1.302
 2509WAT     H2 7770   4.575   5.013   1.272
 2510WAT      O 7771   3.017   9.225   9.399
 2510WAT     H1 7772   2.919   9.208   9.406
 2510WAT     H2 7773   3.037   9.319   9.427
 2511WAT      O 7774   7.250   6.250   7.253
 2511WAT     H1 7775   7.309   6.323   7.289
 2511WAT     H2 7776   7.302   6.194   7.189
 2512WAT      O 7777   6.757   5.799   2.580
 2512WAT     H1 7778   6.744   5.897   2.597
 2512WAT     H2 7779   6.811   5.787   2.496
 2513WAT      O 7780   7.293   9.779   4.920
 2513WAT     H1 7781   7.382   9.823   4.908
 2513WAT     H2 7782   7.283   9.750   5.015
 2514WAT      O 7783   2.617   5.794   3.537
 2514WAT     H1 7784   2.688   5.775   3.605
 2514WAT     H2 7785   2.612   5.893   3.520
 2515WAT      O 7786   5.144   6.610   6.975
 2515WAT     H1 7787   5.151   6.656   7.064
 2515WAT     H2 7788   5.227   6.627   6.922
 2516WAT      O 7789   4.191   3.135   6.134
 2516WAT     H1 7790   4.164   3.230   6.120
 2516WAT     H2 7791   4.267   3.112   6.073
 2517WAT      O 7792   3.317   8.832   7.800
 2517WAT     H1 7793   3.365   8.747   7.824
 2517WAT     H2 7794   3.261   8.862   7.878
 2518WAT      O 7795   0.299   2.181   7.789
 2518WAT     H1 7796   0.289   2.098   7.733
 2518WAT     H2 7797   0.366   2.242   7.746
 2519WAT      O 7798   9.187   1.843   4.215
 2519WAT     H1 7799   9.097   1.819   4.177
 2519WAT     H2 7800   9.176   1.875   4.309
 2520WAT      O 7801   9.140   4.309   2.515
 2520WAT     H1 7802   9.108   4.390   2.564
 2520WAT     H2 7803   9.190   4.249   2.578
 2521WAT      O 7804   0.091   7.459   8.673
 2521WAT     H1 7805   0.080   7.553   8.641
 2521WAT     H2 7806   0.022   7.401   8.629
 2522WAT      O 7807   0.437   5.852   2.751
 2522WAT     H1 7808   0.415   5.940   2.710
 2522WAT     H2 7809   0.352   5.799   2.763
 2523WAT      O 7810   3.561   4.928   4.707
 2523WAT     H1 7811   3.596   4.844   4.666
 2523WAT     H2 7812   3.637   4.991   4.725
 2524WAT      O 7813   2.673   9.301   1.746
 2524WAT     H1 7814   2.643   9.284   1.652
 2524WAT     H2 7815   2.756   9.250   1.764
 2525WAT      O 7816   2.177   4.307   2.190
 2525WAT     H1 7817   2.177   4.325   2.288
 2525WAT     H2 7818   2.173   4.393   2.140
 2526WAT      O 7819   8.676   3.955   9.888
 2526WAT     H1 7820   8.706   3.891   9.817
 2526WAT     H2 7821   8.737   4.035   9.889
 2527WAT      O 7822   6.900   6.206   9.578
 2527WAT     H1 7823   6.968   6.238   9.644
 2527WAT     H2 7824   6.808   6.230   9.610
 2528WAT      O 7825   3.098   7.585   0.196
 2528WAT     H1 7826   3.128   7.602   0.290
 2528WAT     H2 7827   3.135   7.497   0.165
 2529WAT      O 7828   3.082   5.839   8.156
 2529WAT     H1 7829   3.100   5.937   8.147
 2529WAT     H2 7830   3.157   5.795   8.204
 2530WAT      O 7831   4.112   8.578   9.583
 2530WAT     H1 7832   4.146   8.494   9.540
 2530WAT     H2 7833   4.190   8.630   9.618
 2531WAT      O 7834   3.222   7.510   2.785
 2531WAT     H1 7835   3.166   7.479   2.862
 2531WAT     H2 7836   3.241   7.434   2.724
 2532WAT      O 7837   7.780   2.507   4.791
 2532WAT     H1 7838   7.867   2.533   4.834
 2532WAT     H2 7839   7.773   2.551   4.702
 2533WAT      O 7840   2.323   4.047   0.761
 2533WAT     H1 7841   2.386   4.124   0.752
 2533WAT     H2 7842   2.358   3.983   0.830
 2534WAT      O 7843   6.982   7.733   3.191
 2534WAT     H1 7844   6.963   7.656   3.131
 2534WAT     H2 7845   7.054   7.790   3.152
 2535WAT      O 7846   6.515   0.159   0.343
 2535WAT     H1 7847   6.440   0.169   0.409
 2535WAT     H2 7848   6.524   0.062   0.318
 2536WAT      O 7849   0.144   0.315   4.867
 2536WAT     H1 7850   0.146   0.304   4.967
 2536WAT     H2 7851   0.095   0.239   4.826
 2537WAT      O 7852   6.855   1.100   0.663
 2537WAT     H1 7853   6.882   1.175   0.723
 2537WAT     H2 7854   6.868   1.127   0.568
 2538WAT      O 7855   7.404   7.608   4.201
 2538WAT     H1 7856   7.407   7.587   4.299
 2538WAT     H2 7857   7.497   7.616   4.166
 2539WAT      O 7858   6.437   5.587   1.343
 2539WAT     H1 7859   6.349   5.541   1.357
 2539WAT     H2 7860   6.498   5.567   1.419
 2540WAT      O 7861   0.404   0.458   6.519
 2540WAT     H1 7862   0.496   0.419   6.512
 2540WAT     H2 7863   0.407   0.555   6.494
 2541WAT      O 7864   0.599   3.394   5.603
 2541WAT     H1 7865   0.667   3.463   5.629
 2541WAT     H2 7866   0.510   3.438   5.591
 2542WAT      O 7867   6.212   9.614   7.265
 2542WAT     H1 7868   6.186   9.661   7.180
 2542WAT     H2 7869   6.205   9.677   7.342
 2543WAT      O 7870   7.770   8.607   0.528
 2543WAT     H1 7871   7.802   8.683   0.471
 2543WAT     H2 7872   7.721   8.542   0.472
 2544WAT      O 7873   8.872   5.654   1.513
 2544WAT     H1 7874   8.810   5.704   1.452
 2544WAT     H2 7875   8.941   5.606   1.459
 2545WAT      O 7876   4.395   7.566   6.149
 2545WAT     H1 7877   4.443   7.626   6.213
 2545WAT     H2 7878   4.461   7.517   6.093
 2546WAT      O 7879   0.527   8.349   1.686
 2546WAT     H1 7880   0.622   8.359   1.717
 2546WAT     H2 7881   0.486   8.439   1.673
 2547WAT      O 7882   7.862   3.654   3.563
 2547WAT     H1 7883   7.866   3.617   3.656
 2547WAT     H2 7884   7.879   3.753   3.566
 2548WAT      O 7885   2.732   2.510   2.657
 2548WAT     H1 7886   2.779   2.552   2.579
 2548WAT     H2 7887   2.637   2.491   2.633
 2549WAT      O 7888   7.336   1.384   5.583
 2549WAT     H1 7889   7.264   1.428   5.530
 2549WAT     H2 7890   7.400   1.338   5.520
 2550WAT      O 7891   7.206   7.068   4.905
 2550WAT     H1 7892   7.270   7.083   4.829
 2550WAT     H2 7893   7.114   7.093   4.877
 2551WAT      O 7894   7.911   7.520   1.870
 2551WAT     H1 7895   7.987   7.541   1.809
 2551WAT     H2 7896   7.866   7.606   1.897
 2552WAT      O 7897   8.928   8.720   6.653
 2552WAT     H1 7898   9.013   8.668   6.659
 2552WAT     H2 7899   8.949   8.816   6.636
 2553WAT      O 7900   7.002   8.949   5.230
 2553WAT     H1 7901   6.923   8.982   5.178
 2553WAT     H2 7902   6.969   8.895   5.308
 2554WAT      O 7903   1.560   7.440   8.292
 2554WAT     H1 7904   1.551   7.368   8.223
 2554WAT     H2 7905   1.590   7.525   8.248
 2555WAT      O 7906   2.746   8.086   0.830
 2555WAT     H1 7907   2.721   7.997   0.868
 2555WAT     H2 7908   2.688   8.106   0.751
 2556WAT      O 7909   2.797   1.477   7.706
 2556WAT     H1 7910   2.746   1.419   7.770
 2556WAT     H2 7911   2.810   1.429   7.620
 2557WAT      O 7912   1.780   8.533   7.080
 2557WAT     H1 7913   1.749   8.451   7.128
 2557WAT     H2 7914   1.880   8.539   7.085
 2558WAT      O 7915   2.757   6.103   5.986
 2558WAT     H1 7916   2.779   6.094   5.889
 2558WAT     H2 7917   2.762   6.200   6.012
 2559WAT      O 7918   8.868   4.994   7.261
 2559WAT     H1 7919   8.823   5.073   7.219
 2559WAT     H2 7920   8.967   5.002   7.250
 2560WAT      O 7921   5.578   4.023   7.730
 2560WAT     H1 7922   5.668   4.053   7.700
 2560WAT     H2 7923   5.520   4.103   7.745
 2561WAT      O 7924   3.941   1.878   5.048
 2561WAT     H1 7925   3.849   1.911   5.026
 2561WAT     H2 7926   4.007   1.952   5.034
 2562WAT      O 7927   6.949   7.791   7.506
 2562WAT     H1 7928   6.885   7.867   7.510
 2562WAT     H2 7929   6.969   7.758   7.598
 2563WAT      O 7930   0.695   2.317   4.638
 2563WAT     H1 7931   0.785   2.310   4.595
 2563WAT     H2 7932   0.641   2.235   4.617
 2564WAT      O 7933   6.358   8.821   7.120
 2564WAT     H1 7934   6.443   8.768   7.123
 2564WAT     H2 7935   6.288   8.768   7.073
 2565WAT      O 7936   8.786   8.752   4.232
 2565WAT     H1 7937   8.872   8.752   4.282
 2565WAT     H2 7938   8.796   8.701   4.147
 2566WAT      O 7939   0.799   9.429   9.533
 2566WAT     H1 7940   0.700   9.440   9.523
 2566WAT     H2 7941   0.820   9.399   9.626
 2567WAT      O 7942   5.833   2.607   6.951
 2567WAT     H1 7943   5.865   2.537   7.015
 2567WAT     H2 7944   5.897   2.616   6.875
 2568WAT      O 7945   2.517   0.254   5.036
 2568WAT     H1 7946   2.447   0.260   4.965
 2568WAT     H2 7947   2.555   0.161   5.038
 2569WAT      O 7948   1.574   7.007   4.043
 2569WAT     H1 7949   1.642   6.955   4.094
 2569WAT     H2 7950   1.577   6.980   3.947
 2570WAT      O 7951   4.726   2.314   2.063
 2570WAT     H1 7952   4.813   2.362   2.052
 2570WAT     H2 7953   4.684   2.340   2.150
 2571WAT      O 7954   3.029   7.020   8.349
 2571WAT     H1 7955   3.050   6.925   8.370
 2571WAT     H2 7956   2.953   7.025   8.285
 2572WAT      O 7957   6.134   5.487   2.085
 2572WAT     H1 7958   6.175   5.430   2.014
 2572WAT     H2 7959   6.114   5.430   2.166
 2573WAT      O 7960   7.518   3.640   2.559
 2573WAT     H1 7961   7.420   3.626   2.548
 2573WAT     H2 7962   7.558   3.560   2.604
 2574WAT      O 7963   5.472   8.201   5.004
 2574WAT     H1 7964   5.564   8.188   5.042
 2574WAT     H2 7965   5.471   8.283   4.947
 2575WAT      O 7966   5.233   3.479   5.541
 2575WAT     H1 7967   5.141   3.496   5.505
 2575WAT     H2 7968   5.228   3.463   5.639
 2576WAT      O 7969   6.452   3.266   2.372
 2576WAT     H1 7970   6.388   3.343   2.362
 2576WAT     H2 7971   6.461   3.242   2.468
 2577WAT      O 7972   1.772   3.347   6.643
 2577WAT     H1 7973   1.700   3.326   6.577
 2577WAT     H2 7974   1.731   3.368   6.732
 2578WAT      O 7975   8.312   2.988   6.772
 2578WAT     H1 7976   8.239   2.953   6.714
 2578WAT     H2 7977   8.400   2.950   6.742
 2579WAT      O 7978   3.227   7.522   7.628
 2579WAT     H1 7979   3.202   7.428   7.652
 2579WAT     H2 7980   3.279   7.522   7.542
 2580WAT      O 7981   9.212   4.669   5.367
 2580WAT     H1 7982   9.284   4.736   5.347
 2580WAT     H2 7983   9.190   4.672   5.464
 2581WAT      O 7984   0.221   4.973   1.291
 2581WAT     H1 7985   0.273   4.929   1.365
 2581WAT     H2 7986   0.279   4.980   1.210
 2582WAT      O 7987   4.615   1.118   0.816
 2582WAT     H1 7988   4.680   1.119   0.892
 2582WAT     H2 7989   4.566   1.204   0.813
 2583WAT      O 7990   0.212   7.139   8.219
 2583WAT     H1 7991   0.145   7.212   8.206
 2583WAT     H2 7992   0.304   7.178   8.220
 2584WAT      O 7993   9.203   0.029   1.960
 2584WAT     H1 7994   9.232  -0.056   1.916
 2584WAT     H2 7995   9.263   0.104   1.930
 2585WAT      O 7996   9.106   1.367   1.722
 2585WAT     H1 7997   9.106   1.397   1.627
 2585WAT     H2 7998   9.190   1.397   1.767
 2586WAT      O 7999   3.250   2.068   6.019
 2586WAT     H1 8000   3.210   1.976   6.026
 2586WAT     H2 8001   3.272   2.087   5.923
 2587WAT      O 8002   7.807   6.006   4.331
 2587WAT     H1 8003   7.897   5.965   4.320
 2587WAT     H2 8004   7.758   5.960   4.404
 2588WAT      O 8005   2.693   4.481   4.198
 2588WAT     H1 8006   2.781   4.528   4.195
 2588WAT     H2 8007   2.678   4.444   4.289
 2589WAT      O 8008   3.246   2.161   7.353
 2589WAT     H1 8009   3.293   2.073   7.345
 2589WAT     H2 8010   3.313   2.235   7.352
 2590WAT      O 8011   9.864   9.283   8.768
 2590WAT     H1 8012   9.795   9.355   8.772
 2590WAT     H2 8013   9.842   9.219   8.694
 2591WAT      O 8014   7.881   7.185   4.996
 2591WAT     H1 8015   7.912   7.280   4.993
 2591WAT     H2 8016   7.813   7.174   5.068
 2592WAT      O 8017   5.419   5.341   4.094
 2592WAT     H1 8018   5.437   5.253   4.138
 2592WAT     H2 8019   5.450   5.415   4.154
 2593WAT      O 8020   8.130   0.722   3.275
 2593WAT     H1 8021   8.192   0.651   3.307
 2593WAT     H2 8022   8.079   0.689   3.196
 2594WAT      O 8023   8.533   4.863   9.763
 2594WAT     H1 8024   8.502   4.957   9.748
 2594WAT     H2 8025   8.538   4.844   9.861
 2595WAT      O 8026   3.227   1.572   8.102
 2595WAT     H1 8027   3.148   1.619   8.141
 2595WAT     H2 8028   3.257   1.621   8.020
 2596WAT      O 8029   0.176   8.413   5.382
 2596WAT     H1 8030   0.077   8.427   5.385
 2596WAT     H2 8031   0.223   8.500   5.370
 2597WAT      O 8032   9.872   0.921   3.175
 2597WAT     H1 8033   9.870   1.021   3.179
 2597WAT     H2 8034   9.899   0.885   3.264
 2598WAT      O 8035   9.394   0.080   0.983
 2598WAT     H1 8036   9.359   0.017   1.052
 2598WAT     H2 8037   9.492   0.094   0.998
 2599WAT      O 8038   2.343   4.016   0.477
 2599WAT     H1 8039   2.353   4.057   0.568
 2599WAT     H2 8040   2.394   3.930   0.474
 2600WAT      O 8041   6.398   3.153   9.361
 2600WAT     H1 8042   6.343   3.134   9.279
 2600WAT     H2 8043   6.436   3.245   9.355
 2601WAT      O 8044   0.935   8.221   0.854
 2601WAT     H1 8045   0.888   8.276   0.785
 2601WAT     H2 8046   0.876   8.145   0.881
 2602WAT      O 8047   4.559   5.598   6.140
 2602WAT     H1 8048   4.499   5.518   6.133
 2602WAT     H2 8049   4.518   5.674   6.090
 2603WAT      O 8050   8.057   1.540   8.741
 2603WAT     H1 8051   8.072   1.521   8.644
 2603WAT     H2 8052   7.979   1.486   8.774
 2604WAT      O 8053   5.895   3.588   4.227
 2604WAT     H1 8054   5.838   3.654   4.177
 2604WAT     H2 8055   5.980   3.632   4.255
 2605WAT      O 8056   6.857   3.156   6.417
 2605WAT     H1 8057   6.807   3.234   6.457
 2605WAT     H2 8058   6.792   3.095   6.373
 2606WAT      O 8059   5.918   7.476   7.275
 2606WAT     H1 8060   5.831   7.426   7.271
 2606WAT     H2 8061   5.933   7.523   7.187
 2607WAT      O 8062   9.842   1.481   0.752
 2607WAT     H1 8063   9.877   1.429   0.830
 2607WAT     H2 8064   9.918   1.512   0.695
 2608WAT      O 8065   0.590   6.606   7.489
 2608WAT     H1 8066   0.628   6.555   7.411
 2608WAT     H2 8067   0.508   6.655   7.461
 2609WAT      O 8068   0.576   2.174   6.978
 2609WAT     H1 8069   0.481   2.202   6.963
 2609WAT     H2 8070   0.589   2.081   6.942
 2610WAT      O 8071   2.267   6.428   8.512
 2610WAT     H1 8072   2.243   6.334   8.537
 2610WAT     H2 8073   2.185   6.485   8.516
 2611WAT      O 8074   4.911   6.057   7.532
 2611WAT     H1 8075   4.925   6.056   7.631
 2611WAT     H2 8076   4.890   6.149   7.502
 2612WAT      O 8077   8.117   7.465   6.213
 2612WAT     H1 8078   8.170   7.509   6.141
 2612WAT     H2 8079   8.025   7.446   6.179
 2613WAT      O 8080   4.955   1.417   0.109
 2613WAT     H1 8081   5.028   1.402   0.176
 2613WAT     H2 8082   4.889   1.343   0.116
 2614WAT      O 8083   3.311   7.192   5.200
 2614WAT     H1 8084   3.314   7.103   5.247
 2614WAT     H2 8085   3.402   7.213   5.165
 2615WAT      O 8086   3.083   1.556   3.401
 2615WAT     H1 8087   3.155   1.625   3.405
 2615WAT     H2 8088   3.116   1.470   3.441
 2616WAT      O 8089   5.311   9.097   4.926
 2616WAT     H1 8090   5.320   9.005   4.966
 2616WAT     H2 8091   5.336   9.095   4.830
 2617WAT      O 8092   8.660   9.839   4.146
 2617WAT     H1 8093   8.738   9.782   4.122
 2617WAT     H2 8094   8.575   9.790   4.123
 2618WAT      O 8095   2.374   6.615   6.854
 2618WAT     H1 8096   2.454   6.659   6.896
 2618WAT     H2 8097   2.298   6.680   6.852
 2619WAT      O 8098   0.485   6.770   0.154
 2619WAT     H1 8099   0.449   6.852   0.110
 2619WAT     H2 8100   0.585   6.773   0.154
 2620WAT      O 8101   9.600   5.841   0.677
 2620WAT     H1 8102   9.518   5.817   0.625
 2620WAT     H2 8103   9.670   5.876   0.614
 2621WAT      O 8104   2.129   3.955   2.399
 2621WAT     H1 8105   2.225   3.953   2.428
 2621WAT     H2 8106   2.090   3.863   2.406
 2622WAT      O 8107   3.902   5.481   6.715
 2622WAT     H1 8108   3.885   5.392   6.758
 2622WAT     H2 8109   3.987   5.476   6.661
 2623WAT      O 8110   6.288   4.738   9.459
 2623WAT     H1 8111   6.371   4.776   9.501
 2623WAT     H2 8112   6.314   4.687   9.377
 2624WAT      O 8113   0.717   3.465   6.439
 2624WAT     H1 8114   0.746   3.450   6.345
 2624WAT     H2 8115   0.797   3.488   6.495
 2625WAT      O 8116   3.195   5.302   1.094
 2625WAT     H1 8117   3.274   5.250   1.062
 2625WAT     H2 8118   3.114   5.243   1.093
 2626WAT      O 8119   2.052   0.738   6.241
 2626WAT     H1 8120   2.133   0.696   6.200
 2626WAT     H2 8121   1.975   0.674   6.236
 2627WAT      O 8122   7.171   1.802   3.058
 2627WAT     H1 8123   7.243   1.842   3.115
 2627WAT     H2 8124   7.135   1.871   2.995
 2628WAT      O 8125   9.738   6.943   6.674
 2628WAT     H1 8126   9.658   6.975   6.622
 2628WAT     H2 8127   9.822   6.974   6.629
 2629WAT      O 8128   8.229   0.499   3.111
 2629WAT     H1 8129   8.204   0.415   3.158
 2629WAT     H2 8130   8.147   0.543   3.075
 2630WAT      O 8131   8.435   7.738   8.483
 2630WAT     H1 8132   8.466   7.828   8.452
 2630WAT     H2 8133   8.513   7.677   8.492
 2631WAT      O 8134   7.932   8.753   3.493
 2631WAT     H1 8135   8.019   8.705   3.481
 2631WAT     H2 8136   7.890   8.727   3.580
 2632WAT      O 8137   7.524   0.469   3.356
 2632WAT     H1 8138   7.467   0.484   3.275
 2632WAT     H2 8139   7.529   0.553   3.410
 2633WAT      O 8140   4.674   5.121   6.803
 2633WAT     H1 8141   4.590   5.167   6.775
 2633WAT     H2 8142   4.656   5.066   6.885
 2634WAT      O 8143   3.814   5.475   9.053
 2634WAT     H1 8144   3.856   5.505   9.139
 2634WAT     H2 8145   3.884   5.434   8.995
 2635WAT      O 8146   5.279   3.245   1.089
 2635WAT     H1 8147   5.303   3.172   1.153
 2635WAT     H2 8148   5.199   3.218   1.035
 2636WAT      O 8149   1.123   4.550   2.357
 2636WAT     H1 8150   1.052   4.482   2.372
 2636WAT     H2 8151   1.189   4.516   2.290
 2637WAT      O 8152   2.684   3.877   6.653
 2637WAT     H1 8153   2.631   3.835   6.726
 2637WAT     H2 8154   2.759   3.930   6.693
 2638WAT      O 8155   6.011   9.459   0.327
 2638WAT     H1 8156   5.987   9.556   0.333
 2638WAT     H2 8157   5.952   9.406   0.388
 2639WAT      O 8158   8.919   2.770   0.445
 2639WAT     H1 8159   8.862   2.804   0.370
 2639WAT     H2 8160   8.872   2.696   0.492
 2640WAT      O 8161   5.379   5.808   1.329
 2640WAT     H1 8162   5.374   5.892   1.276
 2640WAT     H2 8163   5.385   5.730   1.267
 2641WAT      O 8164   4.516   0.895   3.584
 2641WAT     H1 8165   4.465   0.909   3.669
 2641WAT     H2 8166   4.452   0.892   3.507
 2642WAT      O 8167   4.556   8.655   6.216
 2642WAT     H1 8168   4.525   8.573   6.264
 2642WAT     H2 8169   4.637   8.634   6.162
 2643WAT      O 8170   3.987   4.061   5.825
 2643WAT     H1 8171   3.898   4.106   5.813
 2643WAT     H2 8172   3.997   4.032   5.920
 2644WAT      O 8173   1.692   6.293   8.838
 2644WAT     H1 8174   1.674   6.387   8.810
 2644WAT     H2 8175   1.613   6.235   8.816
 2645WAT      O 8176   5.243   6.935   7.302
 2645WAT     H1 8177   5.323   6.911   7.357
 2645WAT     H2 8178   5.260   6.911   7.207
 2646WAT      O 8179   4.190   9.743   4.011
 2646WAT     H1 8180   4.194   9.718   3.914
 2646WAT     H2 8181   4.264   9.697   4.060
 2647WAT      O 8182   0.216   1.069   6.957
 2647WAT     H1 8183   0.141   1.099   7.015
 2647WAT     H2 8184   0.254   0.983   6.992
 2648WAT      O 8185   2.574   1.987   1.979
 2648WAT     H1 8186   2.650   2.051   1.972
 2648WAT     H2 8187   2.594   1.905   1.925
 2649WAT      O 8188   4.668   8.139   9.205
 2649WAT     H1 8189   4.651   8.061   9.265
 2649WAT     H2 8190   4.611   8.131   9.123
 2650WAT      O 8191   8.637   1.785   7.395
 2650WAT     H1 8192   8.659   1.740   7.482
 2650WAT     H2 8193   8.714   1.841   7.366
 2651WAT      O 8194   8.951   5.775   9.137
 2651WAT     H1 8195   8.873   5.742   9.083
 2651WAT     H2 8196   8.944   5.740   9.230
 2652WAT      O 8197   4.914   4.642   9.421
 2652WAT     H1 8198   4.823   4.608   9.444
 2652WAT     H2 8199   4.958   4.679   9.503
 2653WAT      O 8200   3.915   0.806   7.466
 2653WAT     H1 8201   3.840   0.744   7.443
 2653WAT     H2 8202   3.934   0.801   7.564
 2654WAT      O 8203   5.970   2.961   2.852
 2654WAT     H1 8204   6.061   2.931   2.880
 2654WAT     H2 8205   5.901   2.915   2.908
 2655WAT      O 8206   1.303   2.502   4.126
 2655WAT     H1 8207   1.354   2.447   4.193
 2655WAT     H2 8208   1.210   2.516   4.159
 2656WAT      O 8209   3.011   1.591   4.525
 2656WAT     H1 8210   3.023   1.682   4.564
 2656WAT     H2 8211   2.954   1.536   4.586
 2657WAT      O 8212   5.683   8.600   9.790
 2657WAT     H1 8213   5.586   8.583   9.810
 2657WAT     H2 8214   5.729   8.632   9.873
 2658WAT      O 8215   5.149   7.721   8.993
 2658WAT     H1 8216   5.121   7.808   9.032
 2658WAT     H2 8217   5.233   7.690   9.038
 2659WAT      O 8218   3.965   8.493   4.664
 2659WAT     H1 8219   4.009   8.516   4.751
 2659WAT     H2 8220   4.030   8.446   4.605
 2660WAT      O 8221   9.830   3.341   8.781
 2660WAT     H1 8222   9.886   3.423   8.769
 2660WAT     H2 8223   9.735   3.368   8.795
 2661WAT      O 8224   1.587   7.737   4.468
 2661WAT     H1 8225   1.537   7.770   4.547
 2661WAT     H2 8226   1.527   7.678   4.413
 2662WAT      O 8227   1.707   6.591   2.030
 2662WAT     H1 8228   1.770   6.566   1.957
 2662WAT     H2 8229   1.758   6.616   2.112
 2663WAT      O 8230   4.727   1.497   4.506
 2663WAT     H1 8231   4.732   1.467   4.411
 2663WAT     H2 8232   4.699   1.420   4.564
 2664WAT      O 8233   2.507   5.134   7.792
 2664WAT     H1 8234   2.569   5.121   7.869
 2664WAT     H2 8235   2.508   5.230   7.764
 2665WAT      O 8236   9.571   3.483   3.253
 2665WAT     H1 8237   9.637   3.542   3.300
 2665WAT     H2 8238   9.548   3.524   3.165
 2666WAT      O 8239   5.426   0.067   2.874
 2666WAT     H1 8240   5.407   0.047   2.970
 2666WAT     H2 8241   5.350   0.037   2.818
 2667WAT      O 8242   3.222   9.303   3.139
 2667WAT     H1 8243   3.223   9.256   3.051
 2667WAT     H2 8244   3.129   9.330   3.161
 2668WAT      O 8245   6.713   8.168   9.875
 2668WAT     H1 8246   6.680   8.147   9.783
 2668WAT     H2 8247   6.771   8.094   9.908
 2669WAT      O 8248   8.311   3.839   4.323
 2669WAT     H1 8249   8.369   3.758   4.318
 2669WAT     H2 8250   8.309   3.884   4.234
 2670WAT      O 8251   0.937   7.955   5.456
 2670WAT     H1 8252   1.007   7.896   5.415
 2670WAT     H2 8253   0.901   7.911   5.539
 2671WAT      O 8254   6.155   7.303   6.243
 2671WAT     H1 8255   6.219   7.230   6.224
 2671WAT     H2 8256   6.173   7.341   6.334
 2672WAT      O 8257   8.807   1.555   7.687
 2672WAT     H1 8258   8.794   1.546   7.786
 2672WAT     H2 8259   8.869   1.631   7.669
 2673WAT      O 8260   1.550   1.877   2.052
 2673WAT     H1 8261   1.525   1.840   2.141
 2673WAT     H2 8262   1.623   1.821   2.011
 2674WAT      O 8263   6.095   3.460   5.380
 2674WAT     H1 8264   6.083   3.531   5.449
 2674WAT     H2 8265   6.018   3.462   5.316
 2675WAT      O 8266   4.218   0.640   0.014
 2675WAT     H1 8267   4.311   0.611  -0.008
 2675WAT     H2 8268   4.178   0.686  -0.065
 2676WAT      O 8269   5.604   5.808   6.865
 2676WAT     H1 8270   5.639   5.754   6.941
 2676WAT     H2 8271   5.605   5.753   6.782
 2677WAT      O 8272   8.380   6.260   0.843
 2677WAT     H1 8273   8.382   6.178   0.900
 2677WAT     H2 8274   8.418   6.240   0.753
 2678WAT      O 8275   3.988   6.791   8.912
 2678WAT     H1 8276   3.947   6.852   8.843
 2678WAT     H2 8277   4.077   6.759   8.879
 2679WAT      O 8278   9.322   9.737   1.178
 2679WAT     H1 8279   9.415   9.701   1.189
 2679WAT     H2 8280   9.256   9.662   1.183
 2680WAT      O 8281   8.849   5.137   6.821
 2680WAT     H1 8282   8.772   5.096   6.869
 2680WAT     H2 8283   8.816   5.212   6.764
 2681WAT      O 8284   0.715   5.117   2.059
 2681WAT     H1 8285   0.714   5.136   2.158
 2681WAT     H2 8286   0.701   5.203   2.009
 2682WAT      O 8287   4.568   3.876   2.782
 2682WAT     H1 8288   4.659   3.874   2.739
 2682WAT     H2 8289   4.544   3.970   2.804
 2683WAT      O 8290   6.997   5.001   1.148
 2683WAT     H1 8291   7.095   4.995   1.133
 2683WAT     H2 8292   6.954   4.912   1.128
 2684WAT      O 8293   6.340   7.315   6.707
 2684WAT     H1 8294   6.431   7.290   6.740
 2684WAT     H2 8295   6.275   7.245   6.734
 2685WAT      O 8296   3.855   7.853   6.211
 2685WAT     H1 8297   3.906   7.874   6.128
 2685WAT     H2 8298   3.913   7.800   6.273
 2686WAT      O 8299   1.921   3.535   5.341
 2686WAT     H1 8300   2.019   3.533   5.360
 2686WAT     H2 8301   1.877   3.602   5.401
 2687WAT      O 8302   6.962   4.211   0.180
 2687WAT     H1 8303   6.865   4.235   0.184
 2687WAT     H2 8304   6.983   4.169   0.092
 2688WAT      O 8305   5.002   5.072   0.121
 2688WAT     H1 8306   4.953   4.996   0.079
 2688WAT     H2 8307   5.091   5.040   0.153
 2689WAT      O 8308   2.471   2.096   0.756
 2689WAT     H1 8309   2.440   2.001   0.748
 2689WAT     H2 8310   2.467   2.140   0.667
 2690WAT      O 8311   2.027   8.091   3.660
 2690WAT     H1 8312   1.944   8.065   3.709
 2690WAT     H2 8313   2.098   8.022   3.673
 2691WAT      O 8314   6.412   4.752   2.976
 2691WAT     H1 8315   6.360   4.764   3.060
 2691WAT     H2 8316   6.389   4.664   2.934
 2692WAT      O 8317   0.645   4.760   4.124
 2692WAT     H1 8318   0.575   4.830   4.118
 2692WAT     H2 8319   0.714   4.775   4.053
 2693WAT      O 8320   1.485   9.699   0.098
 2693WAT     H1 8321   1.484   9.623   0.033
 2693WAT     H2 8322   1.526   9.668   0.184
 2694WAT      O 8323   8.889   9.795   7.718
 2694WAT     H1 8324   8.937   9.730   7.777
 2694WAT     H2 8325   8.951   9.870   7.695
 2695WAT      O 8326   7.340   6.020   6.003
 2695WAT     H1 8327   7.437   6.003   6.019
 2695WAT     H2 8328   7.316   5.986   5.912
 2696WAT      O 8329   8.660   7.079   8.252
 2696WAT     H1 8330   8.589   7.127   8.200
 2696WAT     H2 8331   8.617   7.021   8.322
 2697WAT      O 8332   0.598   1.901   5.627
 2697WAT     H1 8333   0.620   1.991   5.589
 2697WAT     H2 8334   0.518   1.909   5.687
 2698WAT      O 8335   8.870   8.215   0.180
 2698WAT     H1 8336   8.883   8.155   0.102
 2698WAT     H2 8337   8.844   8.306   0.148
 2699WAT      O 8338   5.680   9.805   8.539
 2699WAT     H1 8339   5.684   9.711   8.505
 2699WAT     H2 8340   5.727   9.866   8.475
 2700WAT      O 8341   8.297   2.453   5.467
 2700WAT     H1 8342   8.389   2.416   5.456
 2700WAT     H2 8343   8.292   2.508   5.550
 2701WAT      O 8344   2.953   4.867   2.630
 2701WAT     H1 8345   2.906   4.824   2.553
 2701WAT     H2 8346   2.988   4.796   2.691
 2702WAT      O 8347   0.412   2.388   1.095
 2702WAT     H1 8348   0.366   2.372   1.007
 2702WAT     H2 8349   0.400   2.308   1.153
 2703WAT      O 8350   1.663   9.830   7.245
 2703WAT     H1 8351   1.658   9.903   7.176
 2703WAT     H2 8352   1.648   9.742   7.201
 2704WAT      O 8353   1.323   2.567   8.830
 2704WAT     H1 8354   1.327   2.609   8.739
 2704WAT     H2 8355   1.304   2.637   8.899
 2705WAT      O 8356   9.262   4.104   4.884
 2705WAT     H1 8357   9.247   4.027   4.946
 2705WAT     H2 8358   9.232   4.080   4.792
 2706WAT      O 8359   1.882   3.831   7.885
 2706WAT     H1 8360   1.967   3.866   7.923
 2706WAT     H2 8361   1.843   3.898   7.822
 2707WAT      O 8362   9.116   2.158   2.217
 2707WAT     H1 8363   9.147   2.145   2.312
 2707WAT     H2 8364   9.181   2.113   2.155
 2708WAT      O 8365   0.503   9.180   2.724
 2708WAT     H1 8366   0.551   9.240   2.787
 2708WAT     H2 8367   0.570   9.134   2.664
 2709WAT      O 8368   0.106   2.903   6.172
 2709WAT     H1 8369   0.110   2.945   6.262
 2709WAT     H2 8370   0.138   2.968   6.103
 2710WAT      O 8371   5.745   2.791   0.529
 2710WAT     H1 8372   5.796   2.816   0.446
 2710WAT     H2 8373   5.654   2.759   0.504
 2711WAT      O 8374   8.090   9.088   4.158
 2711WAT     H1 8375   8.033   9.155   4.207
 2711WAT     H2 8376   8.156   9.048   4.221
 2712WAT      O 8377   8.114   4.092   9.854
 2712WAT     H1 8378   8.200   4.057   9.816
 2712WAT     H2 8379   8.126   4.187   9.881
 2713WAT      O 8380   5.397   2.067   2.698
 2713WAT     H1 8381   5.417   1.972   2.722
 2713WAT     H2 8382   5.429   2.127   2.771
 2714WAT      O 8383   9.756   9.166   3.273
 2714WAT     H1 8384   9.825   9.216   3.221
 2714WAT     H2 8385   9.693   9.120   3.210
 2715WAT      O 8386   4.607   3.455   7.326
 2715WAT     H1 8387   4.568   3.422   7.240
 2715WAT     H2 8388   4.702   3.426   7.333
 2716WAT      O 8389   9.314   8.095   9.002
 2716WAT     H1 8390   9.344   8.019   9.059
 2716WAT     H2 8391   9.393   8.138   8.959
 2717WAT      O 8392   8.479   6.478   5.426
 2717WAT     H1 8393   8.407   6.514   5.486
 2717WAT     H2 8394   8.464   6.380   5.413
 2718WAT      O 8395   2.605   1.362   6.348
 2718WAT     H1 8396   2.523   1.307   6.328
 2718WAT     H2 8397   2.624   1.423   6.272
 2719WAT      O 8398   6.325   2.780   4.167
 2719WAT     H1 8399   6.277   2.866   4.151
 2719WAT     H2 8400   6.419   2.788   4.133
 2720WAT      O 8401   8.940   9.517   3.285
 2720WAT     H1 8402   8.994   9.435   3.269
 2720WAT     H2 8403   8.962   9.586   3.215
 2721WAT      O 8404   3.112   6.885   3.951
 2721WAT     H1 8405   3.015   6.894   3.928
 2721WAT     H2 8406   3.129   6.925   4.041
 2722WAT      O 8407   2.732   6.682   9.629
 2722WAT     H1 8408   2.751   6.642   9.719
 2722WAT     H2 8409   2.640   6.656   9.600
 2723WAT      O 8410   7.411   2.005   8.688
 2723WAT     H1 8411   7.375   2.092   8.723
 2723WAT     H2 8412   7.337   1.953   8.646
 2724WAT      O 8413   6.203   2.835   8.137
 2724WAT     H1 8414   6.264   2.804   8.211
 2724WAT     H2 8415   6.110   2.804   8.156
 2725WAT      O 8416   0.511   4.229   9.206
 2725WAT     H1 8417   0.559   4.287   9.140
 2725WAT     H2 8418   0.516   4.134   9.176
 2726WAT      O 8419   3.850   2.498   2.192
 2726WAT     H1 8420   3.839   2.472   2.288
 2726WAT     H2 8421   3.773   2.554   2.163
 2727WAT      O 8422   4.553   7.757   2.288
 2727WAT     H1 8423   4.540   7.795   2.380
 2727WAT     H2 8424   4.593   7.827   2.229
 2728WAT      O 8425   0.505   9.098   0.281
 2728WAT     H1 8426   0.406   9.114   0.286
 2728WAT     H2 8427   0.529   9.020   0.339
 2729WAT      O 8428   4.932   0.960   1.889
 2729WAT     H1 8429   4.889   1.022   1.823
 2729WAT     H2 8430   4.910   0.865   1.866
 2730WAT      O 8431   6.098   8.128   5.655
 2730WAT     H1 8432   6.149   8.042   5.657
 2730WAT     H2 8433   6.009   8.115   5.701
 2731WAT      O 8434   2.586   6.723   6.491
 2731WAT     H1 8435   2.490   6.713   6.515
 2731WAT     H2 8436   2.607   6.820   6.475
 2732WAT      O 8437   6.484   9.242   2.745
 2732WAT     H1 8438   6.513   9.258   2.651
 2732WAT     H2 8439   6.389   9.213   2.746
 2733WAT      O 8440   0.047   6.299   0.711
 2733WAT     H1 8441   0.024   6.335   0.620
 2733WAT     H2 8442   0.084   6.373   0.767
 2734WAT      O 8443   6.448   7.482   2.571
 2734WAT     H1 8444   6.498   7.528   2.645
 2734WAT     H2 8445   6.355   7.518   2.566
 2735WAT      O 8446   5.834   9.797   8.837
 2735WAT     H1 8447   5.773   9.790   8.758
 2735WAT     H2 8448   5.866   9.705   8.863
 2736WAT      O 8449   6.698   3.644   7.591
 2736WAT     H1 8450   6.621   3.670   7.650
 2736WAT     H2 8451   6.760   3.721   7.581
 2737WAT      O 8452   3.132   5.747   1.809
 2737WAT     H1 8453   3.046   5.713   1.772
 2737WAT     H2 8454   3.191   5.669   1.833
 2738WAT      O 8455   3.721   0.648   3.913
 2738WAT     H1 8456   3.771   0.590   3.849
 2738WAT     H2 8457   3.780   0.672   3.990
 2739WAT      O 8458   9.102   3.010   8.315
 2739WAT     H1 8459   9.009   3.041   8.334
 2739WAT     H2 8460   9.140   3.063   8.239
 2740WAT      O 8461   1.919   0.703   5.430
 2740WAT     H1 8462   1.968   0.717   5.344
 2740WAT     H2 8463   1.821   0.715   5.415
 2741WAT      O 8464   1.488   3.826   0.332
 2741WAT     H1 8465   1.430   3.751   0.301
 2741WAT     H2 8466   1.454   3.913   0.295
 2742WAT      O 8467   9.139   8.238   6.773
 2742WAT     H1 8468   9.160   8.192   6.859
 2742WAT     H2 8469   9.060   8.194   6.730
 2743WAT      O 8470   3.562   0.465   4.757
 2743WAT     H1 8471   3.618   0.529   4.705
 2743WAT     H2 8472   3.529   0.508   4.841
 2744WAT      O 8473   2.596   6.712   8.275
 2744WAT     H1 8474   2.544   6.637   8.316
 2744WAT     H2 8475   2.536   6.767   8.217
 2745WAT      O 8476   0.686   0.407   0.494
 2745WAT     H1 8477   0.772   0.360   0.475
 2745WAT     H2 8478   0.699   0.471   0.570
 2746WAT      O 8479   5.592   4.695   9.394
 2746WAT     H1 8480   5.667   4.719   9.456
 2746WAT     H2 8481   5.523   4.643   9.444
 2747WAT      O 8482   9.221   1.347   9.054
 2747WAT     H1 8483   9.153   1.283   9.090
 2747WAT     H2 8484   9.269   1.304   8.978
 2748WAT      O 8485   4.511   8.165   7.772
 2748WAT     H1 8486   4.423   8.211   7.786
 2748WAT     H2 8487   4.569   8.221   7.713
 2749WAT      O 8488   1.105   2.902   6.130
 2749WAT     H1 8489   1.153   2.984   6.099
 2749WAT     H2 8490   1.062   2.857   6.051
 2750WAT      O 8491   8.660   8.340   5.409
 2750WAT     H1 8492   8.737   8.288   5.448
 2750WAT     H2 8493   8.578   8.323   5.462
 2751WAT      O 8494   5.689   1.820   8.761
 2751WAT     H1 8495   5.604   1.836   8.811
 2751WAT     H2 8496   5.763   1.805   8.826
 2752WAT      O 8497   1.139   6.155   9.043
 2752WAT     H1 8498   1.151   6.220   9.118
 2752WAT     H2 8499   1.041   6.140   9.027
 2753WAT      O 8500   3.169   6.246   2.848
 2753WAT     H1 8501   3.119   6.298   2.779
 2753WAT     H2 8502   3.184   6.153   2.815
 2754WAT      O 8503   0.880   3.098   4.431
 2754WAT     H1 8504   0.920   3.068   4.344
 2754WAT     H2 8505   0.930   3.177   4.465
 2755WAT      O 8506   6.103   8.407   5.873
 2755WAT     H1 8507   6.039   8.375   5.802
 2755WAT     H2 8508   6.193   8.367   5.856
 2756WAT      O 8509   6.428   8.675   4.776
 2756WAT     H1 8510   6.405   8.579   4.762
 2756WAT     H2 8511   6.479   8.685   4.861
 2757WAT      O 8512   0.140   0.866   6.104
 2757WAT     H1 8513   0.115   0.779   6.146
 2757WAT     H2 8514   0.098   0.874   6.014
 2758WAT      O 8515   7.522   1.256   5.962
 2758WAT     H1 8516   7.528   1.212   6.052
 2758WAT     H2 8517   7.485   1.348   5.973
 2759WAT      O 8518   5.633   9.300   4.320
 2759WAT     H1 8519   5.549   9.282   4.268
 2759WAT     H2 8520   5.642   9.398   4.334
 2760WAT      O 8521   9.615   8.058   3.742
 2760WAT     H1 8522   9.552   8.118   3.791
 2760WAT     H2 8523   9.695   8.110   3.712
 2761WAT      O 8524   7.991   3.652   1.260
 2761WAT     H1 8525   8.031   3.706   1.186
 2761WAT     H2 8526   8.026   3.558   1.254
 2762WAT      O 8527   7.972   0.407   4.186
 2762WAT     H1 8528   7.992   0.419   4.089
 2762WAT     H2 8529   8.049   0.361   4.230
 2763WAT      O 8530   3.522   0.740   7.864
 2763WAT     H1 8531   3.622   0.735   7.870
 2763WAT     H2 8532   3.495   0.761   7.771
 2764WAT      O 8533   3.586   7.779   5.062
 2764WAT     H1 8534   3.582   7.703   5.127
 2764WAT     H2 8535   3.494   7.811   5.043
 2765WAT      O 8536   6.830   2.130   0.137
 2765WAT     H1 8537   6.902   2.194   0.163
 2765WAT     H2 8538   6.864   2.066   0.068
 2766WAT      O 8539   4.348   0.884   5.541
 2766WAT     H1 8540   4.378   0.887   5.446
 2766WAT     H2 8541   4.282   0.810   5.553
 2767WAT      O 8542   2.762   3.173   7.583
 2767WAT     H1 8543   2.752   3.268   7.552
 2767WAT     H2 8544   2.813   3.121   7.515
 2768WAT      O 8545   0.092   6.908   3.807
 2768WAT     H1 8546   0.184   6.915   3.846
 2768WAT     H2 8547   0.092   6.948   3.716
 2769WAT      O 8548   8.444   1.187   0.286
 2769WAT     H1 8549   8.383   1.214   0.212
 2769WAT     H2 8550   8.533   1.231   0.273
 2770WAT      O 8551   4.066   2.523   0.127
 2770WAT     H1 8552   4.054   2.496   0.032
 2770WAT     H2 8553   3.978   2.519   0.175
 2771WAT      O 8554   5.759   9.779   3.545
 2771WAT     H1 8555   5.680   9.740   3.498
 2771WAT     H2 8556   5.763   9.743   3.638
 2772WAT      O 8557   7.599   3.254   3.107
 2772WAT     H1 8558   7.557   3.267   3.017
 2772WAT     H2 8559   7.668   3.325   3.121
 2773WAT      O 8560   3.713   6.435   7.744
 2773WAT     H1 8561   3.700   6.397   7.836
 2773WAT     H2 8562   3.755   6.366   7.686
 2774WAT      O 8563   7.007   9.197   8.135
 2774WAT     H1 8564   6.970   9.192   8.042
 2774WAT     H2 8565   6.933   9.212   8.200
 2775WAT      O 8566   7.571   3.263   7.107
 2775WAT     H1 8567   7.640   3.191   7.111
 2775WAT     H2 8568   7.522   3.267   7.194
 2776WAT      O 8569   9.081   7.697   6.245
 2776WAT     H1 8570   9.051   7.670   6.336
 2776WAT     H2 8571   9.078   7.797   6.237
 2777WAT      O 8572   1.216   6.486   2.152
 2777WAT     H1 8573   1.223   6.417   2.225
 2777WAT     H2 8574   1.270   6.567   2.177
 2778WAT      O 8575   6.542   0.079   7.183
 2778WAT     H1 8576   6.638   0.105   7.184
 2778WAT     H2 8577   6.513   0.057   7.090
 2779WAT      O 8578   1.677   2.601   3.593
 2779WAT     H1 8579   1.715   2.636   3.679
 2779WAT     H2 8580   1.622   2.520   3.612
 2780WAT      O 8581   5.268   6.746   3.279
 2780WAT     H1 8582   5.329   6.825   3.274
 2780WAT     H2 8583   5.291   6.681   3.206
 2781WAT      O 8584   2.279   1.731   7.345
 2781WAT     H1 8585   2.360   1.737   7.287
 2781WAT     H2 8586   2.304   1.689   7.432
 2782WAT      O 8587   4.477   7.804   8.916
 2782WAT     H1 8588   4.437   7.843   8.999
 2782WAT     H2 8589   4.434   7.845   8.836
 2783WAT      O 8590   4.023   5.083   7.915
 2783WAT     H1 8591   4.091   5.012   7.898
 2783WAT     H2 8592   4.015   5.141   7.834
 2784WAT      O 8593   0.694   1.558   0.736
 2784WAT     H1 8594   0.792   1.570   0.724
 2784WAT     H2 8595   0.658   1.633   0.791
 2785WAT      O 8596   8.269   6.044   1.406
 2785WAT     H1 8597   8.194   5.997   1.454
 2785WAT     H2 8598   8.261   6.143   1.419
 2786WAT      O 8599   7.059   3.269   8.903
 2786WAT     H1 8600   7.131   3.315   8.851
 2786WAT     H2 8601   7.090   3.256   8.997
 2787WAT      O 8602   4.276   4.102   3.103
 2787WAT     H1 8603   4.268   4.097   3.003
 2787WAT     H2 8604   4.239   4.019   3.143
 2788WAT      O 8605   6.996   7.341   7.618
 2788WAT     H1 8606   6.965   7.277   7.688
 2788WAT     H2 8607   6.917   7.372   7.564
 2789WAT      O 8608   0.882   0.264   1.193
 2789WAT     H1 8609   0.836   0.283   1.280
 2789WAT     H2 8610   0.980   0.282   1.202
 2790WAT      O 8611   1.035   6.420   9.523
 2790WAT     H1 8612   0.948   6.469   9.520
 2790WAT     H2 8613   1.055   6.382   9.432
 2791WAT      O 8614   8.540   6.868   6.529
 2791WAT     H1 8615   8.458   6.834   6.482
 2791WAT     H2 8616   8.600   6.791   6.550
 2792WAT      O 8617   8.387   7.036   1.137
 2792WAT     H1 8618   8.448   6.971   1.093
 2792WAT     H2 8619   8.425   7.128   1.128
 2793WAT      O 8620   4.847   1.160   4.051
 2793WAT     H1 8621   4.922   1.095   4.065
 2793WAT     H2 8622   4.830   1.211   4.136
 2794WAT      O 8623   9.001   0.573   1.848
 2794WAT     H1 8624   8.984   0.478   1.822
 2794WAT     H2 8625   8.917   0.612   1.887
 2795WAT      O 8626   1.017   6.309   0.458
 2795WAT     H1 8627   0.938   6.249   0.447
 2795WAT     H2 8628   1.019   6.345   0.552
 2796WAT      O 8629   8.010   5.859   0.363
 2796WAT     H1 8630   7.984   5.764   0.380
 2796WAT     H2 8631   7.940   5.920   0.401
 2797WAT      O 8632   0.664   4.494   1.039
 2797WAT     H1 8633   0.686   4.558   0.965
 2797WAT     H2 8634   0.700   4.530   1.126
 2798WAT      O 8635   2.916   9.635   3.298
 2798WAT     H1 8636   2.965   9.678   3.374
 2798WAT     H2 8637   2.958   9.662   3.212
 2799WAT      O 8638   8.632   3.429   0.938
 2799WAT     H1 8639   8.540   3.389   0.942
 2799WAT     H2 8640   8.675   3.406   0.851
 2800WAT      O 8641   3.431   6.072   4.832
 2800WAT     H1 8642   3.426   6.084   4.932
 2800WAT     H2 8643   3.461   5.978   4.812
 2801WAT      O 8644   1.850   3.024   4.122
 2801WAT     H1 8645   1.763   3.063   4.093
 2801WAT     H2 8646   1.839   2.981   4.212
 2802WAT      O 8647   8.982   8.255   1.786
 2802WAT     H1 8648   8.899   8.229   1.738
 2802WAT     H2 8649   8.981   8.353   1.804
 2803WAT      O 8650   4.324   4.542   9.147
 2803WAT     H1 8651   4.268   4.617   9.184
 2803WAT     H2 8652   4.356   4.485   9.223
 2804WAT      O 8653   7.450   0.044   3.353
 2804WAT     H1 8654   7.480   0.021   3.445
 2804WAT     H2 8655   7.363   0.093   3.358
 2805WAT      O 8656   6.481   5.480   9.875
 2805WAT     H1 8657   6.440   5.393   9.848
 2805WAT     H2 8658   6.573   5.487   9.838
 2806WAT      O 8659   6.397   5.360   4.949
 2806WAT     H1 8660   6.370   5.273   4.991
 2806WAT     H2 8661   6.494   5.377   4.968
 2807WAT      O 8662   0.847   3.053   6.498
 2807WAT     H1 8663   0.760   3.102   6.494
 2807WAT     H2 8664   0.884   3.061   6.591
 2808WAT      O 8665   3.429   5.369   4.610
 2808WAT     H1 8666   3.433   5.354   4.709
 2808WAT     H2 8667   3.343   5.414   4.587
 2809WAT      O 8668   8.201   9.611   3.685
 2809WAT     H1 8669   8.161   9.619   3.593
 2809WAT     H2 8670   8.137   9.647   3.752
 2810WAT      O 8671   3.414   4.610   0.771
 2810WAT     H1 8672   3.465   4.623   0.856
 2810WAT     H2 8673   3.462   4.544   0.713
 2811WAT      O 8674   6.657   8.818   0.762
 2811WAT     H1 8675   6.736   8.781   0.810
 2811WAT     H2 8676   6.619   8.748   0.701
 2812WAT      O 8677   4.707   9.455   7.090
 2812WAT     H1 8678   4.728   9.545   7.053
 2812WAT     H2 8679   4.761   9.386   7.044
 2813WAT      O 8680   7.970   3.464   5.899
 2813WAT     H1 8681   7.910   3.509   5.965
 2813WAT     H2 8682   8.060   3.451   5.939
 2814WAT      O 8683   2.188   3.297   4.865
 2814WAT     H1 8684   2.260   3.362   4.843
 2814WAT     H2 8685   2.101   3.330   4.827
 2815WAT      O 8686   8.800   0.661   6.102
 2815WAT     H1 8687   8.830   0.695   6.191
 2815WAT     H2 8688   8.773   0.738   6.044
 2816WAT      O 8689   6.766   1.027   8.910
 2816WAT     H1 8690   6.864   1.032   8.892
 2816WAT     H2 8691   6.746   1.069   8.998
 2817WAT      O 8692   6.213   2.654   3.276
 2817WAT     H1 8693   6.151   2.708   3.332
 2817WAT     H2 8694   6.298   2.706   3.262
 2818WAT      O 8695   1.795   6.666   2.289
 2818WAT     H1 8696   1.784   6.704   2.381
 2818WAT     H2 8697   1.887   6.686   2.255
 2819WAT      O 8698   5.027   2.592   1.346
 2819WAT     H1 8699   4.997   2.672   1.293
 2819WAT     H2 8700   4.982   2.510   1.310
 2820WAT      O 8701   5.948   3.312   3.301
 2820WAT     H1 8702   6.026   3.369   3.327
 2820WAT     H2 8703   5.910   3.269   3.382
 2821WAT      O 8704   5.705   3.832   0.616
 2821WAT     H1 8705   5.724   3.875   0.704
 2821WAT     H2 8706   5.730   3.736   0.620
 2822WAT      O 8707   9.712   1.129   3.792
 2822WAT     H1 8708   9.743   1.220   3.819
 2822WAT     H2 8709   9.727   1.117   3.694
 2823WAT      O 8710   1.388   3.177   3.555
 2823WAT     H1 8711   1.344   3.091   3.582
 2823WAT     H2 8712   1.477   3.158   3.514
 2824WAT      O 8713   4.267   5.119   4.294
 2824WAT     H1 8714   4.325   5.200   4.304
 2824WAT     H2 8715   4.288   5.055   4.367
 2825WAT      O 8716   5.558   8.230   9.183
 2825WAT     H1 8717   5.463   8.206   9.205
 2825WAT     H2 8718   5.608   8.147   9.158
 2826WAT      O 8719   2.285   3.967   8.159
 2826WAT     H1 8720   2.281   3.938   8.254
 2826WAT     H2 8721   2.354   4.038   8.148
 2827WAT      O 8722   2.874   9.104   6.077
 2827WAT     H1 8723   2.885   9.016   6.122
 2827WAT     H2 8724   2.781   9.113   6.043
 2828WAT      O 8725   7.452   5.456   5.879
 2828WAT     H1 8726   7.543   5.440   5.840
 2828WAT     H2 8727   7.391   5.382   5.851
 2829WAT      O 8728   6.909   8.472   0.351
 2829WAT     H1 8729   6.845   8.402   0.383
 2829WAT     H2 8730   6.889   8.559   0.397
 2830WAT      O 8731   8.172   7.229   0.453
 2830WAT     H1 8732   8.252   7.204   0.509
 2830WAT     H2 8733   8.150   7.153   0.391
 2831WAT      O 8734   4.378   3.705   0.299
 2831WAT     H1 8735   4.347   3.745   0.385
 2831WAT     H2 8736   4.309   3.643   0.263
 2832WAT      O 8737   2.181   0.967   8.778
 2832WAT     H1 8738   2.254   1.032   8.760
 2832WAT     H2 8739   2.146   0.930   8.691
 2833WAT      O 8740   1.551   8.868   2.992
 2833WAT     H1 8741   1.628   8.832   2.939
 2833WAT     H2 8742   1.472   8.879   2.932
 2834WAT      O 8743   0.801   4.936   0.760
 2834WAT     H1 8744   0.733   5.005   0.734
 2834WAT     H2 8745   0.872   4.979   0.815
 2835WAT      O 8746   7.562   3.446   4.836
 2835WAT     H1 8747   7.587   3.362   4.787
 2835WAT     H2 8748   7.496   3.498   4.780
 2836WAT      O 8749   9.877   5.526   0.540
 2836WAT     H1 8750   9.937   5.488   0.611
 2836WAT     H2 8751   9.782   5.523   0.573
 2837WAT      O 8752   3.149   1.984   9.616
 2837WAT     H1 8753   3.067   1.959   9.667
 2837WAT     H2 8754   3.214   2.027   9.678
 2838WAT      O 8755   2.647   5.154   8.976
 2838WAT     H1 8756   2.734   5.171   9.023
 2838WAT     H2 8757   2.579   5.219   9.010
 2839WAT      O 8758   5.479   2.734   8.597
 2839WAT     H1 8759   5.416   2.671   8.553
 2839WAT     H2 8760   5.564   2.740   8.544
 2840WAT      O 8761   1.290   6.403   1.651
 2840WAT     H1 8762   1.220   6.421   1.721
 2840WAT     H2 8763   1.271   6.458   1.570
 2841WAT      O 8764   0.467   7.592   2.421
 2841WAT     H1 8765   0.492   7.511   2.368
 2841WAT     H2 8766   0.475   7.571   2.518
 2842WAT      O 8767   1.159   2.811   0.228
 2842WAT     H1 8768   1.154   2.812   0.128
 2842WAT     H2 8769   1.074   2.848   0.266
 2843WAT      O 8770   9.368   4.939   0.320
 2843WAT     H1 8771   9.357   5.007   0.392
 2843WAT     H2 8772   9.462   4.904   0.321
 2844WAT      O 8773   7.764   8.819   2.359
 2844WAT     H1 8774   7.677   8.832   2.312
 2844WAT     H2 8775   7.754   8.750   2.431
 2845WAT      O 8776   9.422   3.666   2.201
 2845WAT     H1 8777   9.469   3.724   2.135
 2845WAT     H2 8778   9.410   3.715   2.287
 2846WAT      O 8779   6.615   9.328   3.453
 2846WAT     H1 8780   6.692   9.380   3.488
 2846WAT     H2 8781   6.649   9.248   3.403
 2847WAT      O 8782   0.363   0.979   4.715
 2847WAT     H1 8783   0.276   1.017   4.746
 2847WAT     H2 8784   0.385   0.897   4.767
 2848WAT      O 8785   6.870   1.350   1.398
 2848WAT     H1 8786   6.822   1.373   1.313
 2848WAT     H2 8787   6.860   1.253   1.417
 2849WAT      O 8788   3.481   9.472   2.288
 2849WAT     H1 8789   3.513   9.377   2.300
 2849WAT     H2 8790   3.394   9.484   2.337
 2850WAT      O 8791   6.221   2.850   2.872
 2850WAT     H1 8792   6.300   2.877   2.927
 2850WAT     H2 8793   6.171   2.778   2.919
 2851WAT      O 8794   6.988   0.506   1.121
 2851WAT     H1 8795   7.009   0.566   1.044
 2851WAT     H2 8796   6.954   0.418   1.087
 2852WAT      O 8797   2.927   0.063   8.545
 2852WAT     H1 8798   3.021   0.062   8.513
 2852WAT     H2 8799   2.891  -0.030   8.544
 2853WAT      O 8800   3.059   4.217   1.459
 2853WAT     H1 8801   3.044   4.300   1.405
 2853WAT     H2 8802   3.050   4.238   1.556
 2854WAT      O 8803   6.722   1.382   2.563
 2854WAT     H1 8804   6.795   1.361   2.629
 2854WAT     H2 8805   6.641   1.415   2.611
 2855WAT      O 8806   9.672   0.662   1.785
 2855WAT     H1 8807   9.590   0.675   1.841
 2855WAT     H2 8808   9.714   0.750   1.765
 2856WAT      O 8809   0.585   3.422   2.003
 2856WAT     H1 8810   0.611   3.517   2.013
 2856WAT     H2 8811   0.494   3.408   2.042
 2857WAT      O 8812   1.129   4.816   9.420
 2857WAT     H1 8813   1.139   4.902   9.470
 2857WAT     H2 8814   1.035   4.784   9.428
 2858WAT      O 8815   4.440   3.465   3.815
 2858WAT     H1 8816   4.412   3.544   3.869
 2858WAT     H2 8817   4.539   3.456   3.817
 2859WAT      O 8818   6.839   5.432   5.344
 2859WAT     H1 8819   6.757   5.489   5.350
 2859WAT     H2 8820   6.919   5.486   5.367
 2860WAT      O 8821   1.034   6.726   7.862
 2860WAT     H1 8822   0.959   6.700   7.801
 2860WAT     H2 8823   1.009   6.810   7.911
 2861WAT      O 8824   5.584   7.981   2.084
 2861WAT     H1 8825   5.565   8.079   2.091
 2861WAT     H2 8826   5.682   7.965   2.099
 2862WAT      O 8827   9.797   5.158   6.020
 2862WAT     H1 8828   9.737   5.238   6.014
 2862WAT     H2 8829   9.743   5.075   6.005
 2863WAT      O 8830   7.546   1.904   8.151
 2863WAT     H1 8831   7.514   1.853   8.231
 2863WAT     H2 8832   7.609   1.976   8.180
 2864WAT      O 8833   6.960   9.229   1.617
 2864WAT     H1 8834   6.939   9.140   1.657
 2864WAT     H2 8835   7.059   9.244   1.618
 2865WAT      O 8836   7.948   8.473   3.060
 2865WAT     H1 8837   7.924   8.569   3.050
 2865WAT     H2 8838   8.011   8.461   3.137
 2866WAT      O 8839   5.957   9.190   0.946
 2866WAT     H1 8840   5.974   9.116   1.012
 2866WAT     H2 8841   5.860   9.217   0.952
 2867WAT      O 8842   7.164   5.519   4.232
 2867WAT     H1 8843   7.178   5.598   4.173
 2867WAT     H2 8844   7.252   5.474   4.249
 2868WAT      O 8845   6.123   7.107   9.587
 2868WAT     H1 8846   6.173   7.026   9.618
 2868WAT     H2 8847   6.054   7.132   9.654
 2869WAT      O 8848   5.450   3.470   1.722
 2869WAT     H1 8849   5.526   3.489   1.784
 2869WAT     H2 8850   5.451   3.373   1.696
 2870WAT      O 8851   2.002   0.942   1.553
 2870WAT     H1 8852   1.977   0.971   1.460
 2870WAT     H2 8853   2.008   1.022   1.612
 2871WAT      O 8854   1.106   5.273   7.152
 2871WAT     H1 8855   1.154   5.324   7.224
 2871WAT     H2 8856   1.157   5.190   7.131
 2872WAT      O 8857   5.069   4.627   3.580
 2872WAT     H1 8858   4.990   4.645   3.639
 2872WAT     H2 8859   5.048   4.657   3.487
 2873WAT      O 8860   6.347   2.829   1.238
 2873WAT     H1 8861   6.318   2.736   1.259
 2873WAT     H2 8862   6.398   2.830   1.152
 2874WAT      O 8863   0.333   4.733   1.496
 2874WAT     H1 8864   0.381   4.667   1.553
 2874WAT     H2 8865   0.359   4.826   1.524
 2875WAT      O 8866   0.984   0.965   6.683
 2875WAT     H1 8867   0.898   0.955   6.632
 2875WAT     H2 8868   0.971   0.933   6.777
 2876WAT      O 8869   6.361   1.932   9.479
 2876WAT     H1 8870   6.300   1.939   9.558
 2876WAT     H2 8871   6.428   2.005   9.481
 2877WAT      O 8872   5.375   8.607   3.398
 2877WAT     H1 8873   5.317   8.553   3.459
 2877WAT     H2 8874   5.317   8.666   3.341
 2878WAT      O 8875   3.468   6.081   1.612
 2878WAT     H1 8876   3.502   6.102   1.520
 2878WAT     H2 8877   3.395   6.013   1.605
 2879WAT      O 8878   0.749   6.838   6.328
 2879WAT     H1 8879   0.663   6.863   6.372
 2879WAT     H2 8880   0.810   6.917   6.325
 2880WAT      O 8881   6.915   0.413   9.352
 2880WAT     H1 8882   6.879   0.339   9.408
 2880WAT     H2 8883   6.896   0.394   9.255
 2881WAT      O 8884   5.217   2.291   5.966
 2881WAT     H1 8885   5.209   2.210   5.908
 2881WAT     H2 8886   5.308   2.293   6.009
 2882WAT      O 8887   4.701   3.467   3.852
 2882WAT     H1 8888   4.699   3.367   3.847
 2882WAT     H2 8889   4.791   3.497   3.885
 2883WAT      O 8890   3.103   8.230   6.801
 2883WAT     H1 8891   3.067   8.259   6.889
 2883WAT     H2 8892   3.060   8.282   6.728
 2884WAT      O 8893   4.229   5.233   3.616
 2884WAT     H1 8894   4.162   5.179   3.666
 2884WAT     H2 8895   4.232   5.202   3.521
 2885WAT      O 8896   2.967   9.705   0.582
 2885WAT     H1 8897   2.886   9.745   0.625
 2885WAT     H2 8898   3.049   9.738   0.628
 2886WAT      O 8899   6.401   8.985   2.226
 2886WAT     H1 8900   6.452   8.980   2.140
 2886WAT     H2 8901   6.365   9.077   2.238
 2887WAT      O 8902   1.951   5.315   1.571
 2887WAT     H1 8903   1.981   5.360   1.487
 2887WAT     H2 8904   2.025   5.316   1.638
 2888WAT      O 8905   3.981   7.745   2.073
 2888WAT     H1 8906   3.991   7.680   2.147
 2888WAT     H2 8907   4.002   7.837   2.106
 2889WAT      O 8908   0.502   0.315   3.928
 2889WAT     H1 8909   0.473   0.305   3.833
 2889WAT     H2 8910   0.577   0.252   3.947
 2890WAT      O 8911   4.707   4.203   4.905
 2890WAT     H1 8912   4.667   4.134   4.844
 2890WAT     H2 8913   4.780   4.252   4.857
 2891WAT      O 8914   0.136   1.351   8.220
 2891WAT     H1 8915   0.046   1.332   8.259
 2891WAT     H2 8916   0.189   1.408   8.283
 2892WAT      O 8917   6.163   9.710   7.997
 2892WAT     H1 8918   6.250   9.752   7.969
 2892WAT     H2 8919   6.099   9.712   7.920
 2893WAT      O 8920   5.347   6.966   6.542
 2893WAT     H1 8921   5.364   6.963   6.444
 2893WAT     H2 8922   5.386   7.050   6.580
 2894WAT      O 8923   3.021   6.573   2.493
 2894WAT     H1 8924   3.047   6.666   2.520
 2894WAT     H2 8925   3.067   6.548   2.408
 2895WAT      O 8926   5.226   0.898   8.593
 2895WAT     H1 8927   5.141   0.863   8.552
 2895WAT     H2 8928   5.210   0.921   8.688
 2896WAT      O 8929   0.474   4.319   2.425
 2896WAT     H1 8930   0.542   4.383   2.391
 2896WAT     H2 8931   0.519   4.243   2.472
 2897WAT      O 8932   5.073   0.616   3.709
 2897WAT     H1 8933   5.029   0.530   3.734
 2897WAT     H2 8934   5.003   0.685   3.689
 2898WAT      O 8935   1.963   5.490   5.316
 2898WAT     H1 8936   2.026   5.566   5.300
 2898WAT     H2 8937   1.883   5.500   5.257
 2899WAT      O 8938   0.386   1.752   2.242
 2899WAT     H1 8939   0.436   1.676   2.200
 2899WAT     H2 8940   0.407   1.837   2.193
 2900WAT      O 8941   6.556   2.640   4.542
 2900WAT     H1 8942   6.528   2.547   4.519
 2900WAT     H2 8943   6.655   2.649   4.529
 2901WAT      O 8944   5.109   1.485   2.616
 2901WAT     H1 8945   5.132   1.508   2.521
 2901WAT     H2 8946   5.012   1.501   2.632
 2902WAT      O 8947   2.113   0.726   8.074
 2902WAT     H1 8948   2.047   0.799   8.095
 2902WAT     H2 8949   2.077   0.639   8.106
 2903WAT      O 8950   7.975   4.042   8.504
 2903WAT     H1 8951   8.067   4.080   8.496
 2903WAT     H2 8952   7.910   4.115   8.524
 2904WAT      O 8953   7.312   6.382   0.416
 2904WAT     H1 8954   7.403   6.343   0.429
 2904WAT     H2 8955   7.292   6.387   0.318
 2905WAT      O 8956   8.278   3.860   1.411
 2905WAT     H1 8957   8.235   3.895   1.328
 2905WAT     H2 8958   8.355   3.919   1.435
 2906WAT      O 8959   6.499   0.388   6.686
 2906WAT     H1 8960   6.576   0.389   6.623
 2906WAT     H2 8961   6.419   0.350   6.641
 2907WAT      O 8962   2.270   6.818   2.551
 2907WAT     H1 8963   2.220   6.884   2.607
 2907WAT     H2 8964   2.250   6.835   2.455
 2908WAT      O 8965   2.033   6.877   4.812
 2908WAT     H1 8966   1.979   6.843   4.735
 2908WAT     H2 8967   2.079   6.962   4.784
 2909WAT      O 8968   6.197   5.555   4.943
 2909WAT     H1 8969   6.209   5.649   4.976
 2909WAT     H2 8970   6.269   5.497   4.979
 2910WAT      O 8971   7.878   2.913   8.913
 2910WAT     H1 8972   7.965   2.945   8.876
 2910WAT     H2 8973   7.818   2.883   8.838
 2911WAT      O 8974   8.857   5.986   9.844
 2911WAT     H1 8975   8.859   6.068   9.786
 2911WAT     H2 8976   8.838   6.012   9.938
 2912WAT      O 8977   7.736   5.801   7.238
 2912WAT     H1 8978   7.723   5.880   7.179
 2912WAT     H2 8979   7.668   5.731   7.215
 2913WAT      O 8980   9.238   3.227   6.031
 2913WAT     H1 8981   9.279   3.145   5.991
 2913WAT     H2 8982   9.194   3.281   5.959
 2914WAT      O 8983   5.598   4.858   7.672
 2914WAT     H1 8984   5.613   4.765   7.639
 2914WAT     H2 8985   5.662   4.879   7.745
 2915WAT      O 8986   9.800   2.981   3.169
 2915WAT     H1 8987   9.859   3.004   3.246
 2915WAT     H2 8988   9.770   3.066   3.124
 2916WAT      O 8989   6.946   6.169   1.397
 2916WAT     H1 8990   6.967   6.130   1.486
 2916WAT     H2 8991   6.861   6.130   1.362
 2917WAT      O 8992   0.096   4.479   4.899
 2917WAT     H1 8993   0.171   4.465   4.835
 2917WAT     H2 8994   0.009   4.478   4.849
 2918WAT      O 8995   0.779   7.442   8.935
 2918WAT     H1 8996   0.757   7.402   8.847
 2918WAT     H2 8997   0.774   7.542   8.929
 2919WAT      O 8998   5.542   6.214   0.159
 2919WAT     H1 8999   5.585   6.208   0.069
 2919WAT     H2 9000   5.576   6.141   0.218
 2920WAT      O 9001   8.042   3.715   0.999
 2920WAT     H1 9002   7.951   3.756   0.994
 2920WAT     H2 9003   8.052   3.646   0.929
 2921WAT      O 9004   5.476   3.577   1.318
 2921WAT     H1 9005   5.443   3.612   1.231
 2921WAT     H2 9006   5.552   3.514   1.303
 2922WAT      O 9007   9.418   2.947   8.110
 2922WAT     H1 9008   9.349   3.018   8.098
 2922WAT     H2 9009   9.404   2.874   8.042
 2923WAT      O 9010   3.632   2.775   0.755
 2923WAT     H1 9011   3.539   2.757   0.721
 2923WAT     H2 9012   3.686   2.691   0.749
 2924WAT      O 9013   6.679   7.545   2.191
 2924WAT     H1 9014   6.775   7.561   2.214
 2924WAT     H2 9015   6.620   7.589   2.259
 2925WAT      O 9016   2.889   4.288   8.261
 2925WAT     H1 9017   2.935   4.206   8.228
 2925WAT     H2 9018   2.953   4.341   8.318
 2926WAT      O 9019   5.290   1.295   4.901
 2926WAT     H1 9020   5.284   1.294   4.802
 2926WAT     H2 9021   5.311   1.388   4.933
 2927WAT      O 9022   9.570   2.999   4.711
 2927WAT     H1 9023   9.590   2.946   4.793
 2927WAT     H2 9024   9.511   3.076   4.734
 2928WAT      O 9025   8.318   4.078   7.390
 2928WAT     H1 9026   8.321   4.001   7.453
 2928WAT     H2 9027   8.389   4.067   7.321
 2929WAT      O 9028   8.283   8.311   8.082
 2929WAT     H1 9029   8.269   8.216   8.109
 2929WAT     H2 9030   8.240   8.327   7.993
 2930WAT      O 9031   6.948   3.116   0.184
 2930WAT     H1 9032   7.010   3.193   0.201
 2930WAT     H2 9033   6.864   3.149   0.142
 2931WAT      O 9034   1.190   6.404   5.994
 2931WAT     H1 9035   1.204   6.313   6.033
 2931WAT     H2 9036   1.229   6.473   6.056
 2932WAT      O 9037   1.567   6.912   0.572
 2932WAT     H1 9038   1.509   6.835   0.600
 2932WAT     H2 9039   1.537   6.995   0.619
 2933WAT      O 9040   5.928   5.283   4.763
 2933WAT     H1 9041   5.942   5.378   4.734
 2933WAT     H2 9042   5.979   5.222   4.703
 2934WAT      O 9043   6.176   7.586   0.214
 2934WAT     H1 9044   6.225   7.513   0.166
 2934WAT     H2 9045   6.088   7.551   0.247
 2935WAT      O 9046   2.208   9.674   3.129
 2935WAT     H1 9047   2.306   9.657   3.124
 2935WAT     H2 9048   2.182   9.690   3.224
 2936WAT      O 9049   3.581   8.312   7.556
 2936WAT     H1 9050   3.603   8.216   7.570
 2936WAT     H2 9051   3.502   8.337   7.613
 2937WAT      O 9052   7.176   0.963   5.407
 2937WAT     H1 9053   7.217   0.879   5.371
 2937WAT     H2 9054   7.109   0.998   5.341
 2938WAT      O 9055   5.257   5.203   8.074
 2938WAT     H1 9056   5.350   5.194   8.112
 2938WAT     H2 9057   5.205   5.120   8.095
 2939WAT      O 9058   4.008   4.773   9.502
 2939WAT     H1 9059   4.010   4.724   9.414
 2939WAT     H2 9060   3.922   4.823   9.510
 2940WAT      O 9061   7.663   7.496   9.845
 2940WAT     H1 9062   7.609   7.570   9.804
 2940WAT     H2 9063   7.601   7.423   9.876
 2941WAT      O 9064   1.490   6.092   0.362
 2941WAT     H1 9065   1.423   6.105   0.289
 2941WAT     H2 9066   1.461   6.140   0.444
 2942WAT      O 9067   2.883   3.443   8.261
 2942WAT     H1 9068   2.916   3.349   8.270
 2942WAT     H2 9069   2.901   3.493   8.346
 2943WAT      O 9070   0.590   5.027   8.495
 2943WAT     H1 9071   0.669   5.021   8.435
 2943WAT     H2 9072   0.506   5.015   8.442
 2944WAT      O 9073   0.861   9.421   9.807
 2944WAT     H1 9074   0.942   9.480   9.801
 2944WAT     H2 9075   0.889   9.330   9.838
 2945WAT      O 9076   9.180   1.891   7.428
 2945WAT     H1 9077   9.095   1.846   7.402
 2945WAT     H2 9078   9.169   1.936   7.516
 2946WAT      O 9079   8.243   2.486   8.169
 2946WAT     H1 9080   8.304   2.555   8.208
 2946WAT     H2 9081   8.271   2.466   8.075
 2947WAT      O 9082   8.551   6.725   7.891
 2947WAT     H1 9083   8.523   6.807   7.841
 2947WAT     H2 9084   8.585   6.751   7.981
 2948WAT      O 9085   7.589   4.241   7.934
 2948WAT     H1 9086   7.563   4.162   7.989
 2948WAT     H2 9087   7.594   4.215   7.838
 2949WAT      O 9088   4.347   6.156   7.400
 2949WAT     H1 9089   4.289   6.190   7.325
 2949WAT     H2 9090   4.416   6.095   7.363
 2950WAT      O 9091   8.583   3.457   4.021
 2950WAT     H1 9092   8.603   3.473   3.924
 2950WAT     H2 9093   8.618   3.368   4.049
 2951WAT      O 9094   9.103   3.206   1.245
 2951WAT     H1 9095   9.042   3.260   1.303
 2951WAT     H2 9096   9.088   3.231   1.149
 2952WAT      O 9097   4.324   7.926   4.134
 2952WAT     H1 9098   4.388   7.849   4.127
 2952WAT     H2 9099   4.262   7.910   4.211
 2953WAT      O 9100   8.182   5.371   6.715
 2953WAT     H1 9101   8.118   5.367   6.792
 2953WAT     H2 9102   8.136   5.340   6.632
 2954WAT      O 9103   4.069   4.857   8.391
 2954WAT     H1 9104   4.065   4.775   8.449
 2954WAT     H2 9105   4.149   4.852   8.332
 2955WAT      O 9106   6.830   2.662   2.790
 2955WAT     H1 9107   6.906   2.707   2.837
 2955WAT     H2 9108   6.787   2.728   2.728
 2956WAT      O 9109   6.576   4.108   0.028
 2956WAT     H1 9110   6.524   4.125   0.112
 2956WAT     H2 9111   6.651   4.175   0.022
 2957WAT      O 9112   8.706   3.068   9.272
 2957WAT     H1 9113   8.748   3.001   9.211
 2957WAT     H2 9114   8.760   3.076   9.355
 2958WAT      O 9115   0.438   4.609   1.263
 2958WAT     H1 9116   0.384   4.643   1.339
 2958WAT     H2 9117   0.405   4.519   1.235
 2959WAT      O 9118   0.761   9.647   4.145
 2959WAT     H1 9119   0.843   9.703   4.131
 2959WAT     H2 9120   0.746   9.590   4.063
 2960WAT      O 9121   7.612   3.075   3.317
 2960WAT     H1 9122   7.515   3.073   3.345
 2960WAT     H2 9123   7.624   3.141   3.243
 2961WAT      O 9124   2.498   6.772   2.105
 2961WAT     H1 9125   2.438   6.818   2.040
 2961WAT     H2 9126   2.488   6.673   2.096
 2962WAT      O 9127   9.737   8.841   7.954
 2962WAT     H1 9128   9.816   8.816   8.011
 2962WAT     H2 9129   9.750   8.805   7.862
 2963WAT      O 9130   0.396   8.585   2.899
 2963WAT     H1 9131   0.414   8.490   2.921
 2963WAT     H2 9132   0.383   8.595   2.800
 2964WAT      O 9133   1.874   3.520   3.989
 2964WAT     H1 9134   1.914   3.471   4.066
 2964WAT     H2 9135   1.922   3.496   3.905
 2965WAT      O 9136   7.129   4.958   1.949
 2965WAT     H1 9137   7.170   5.002   2.030
 2965WAT     H2 9138   7.064   5.020   1.907
 2966WAT      O 9139   5.354   1.247   1.082
 2966WAT     H1 9140   5.272   1.208   1.039
 2966WAT     H2 9141   5.430   1.183   1.071
 2967WAT      O 9142   4.553   1.865   1.991
 2967WAT     H1 9143   4.597   1.855   2.081
 2967WAT     H2 9144   4.579   1.788   1.933
 2968WAT      O 9145   5.013   2.243   1.137
 2968WAT     H1 9146   4.947   2.303   1.091
 2968WAT     H2 9147   4.966   2.194   1.211
 2969WAT      O 9148   5.674   4.174   6.087
 2969WAT     H1 9149   5.650   4.213   6.176
 2969WAT     H2 9150   5.651   4.077   6.086
 2970WAT      O 9151   2.783   2.190   1.385
 2970WAT     H1 9152   2.754   2.251   1.311
 2970WAT     H2 9153   2.828   2.110   1.347
 2971WAT      O 9154   0.331   0.467   1.971
 2971WAT     H1 9155   0.372   0.444   1.882
 2971WAT     H2 9156   0.241   0.508   1.956
 2972WAT      O 9157   6.289   9.215   6.230
 2972WAT     H1 9158   6.260   9.213   6.326
 2972WAT     H2 9159   6.307   9.122   6.199
 2973WAT      O 9160   5.777   6.224   8.352
 2973WAT     H1 9161   5.730   6.144   8.316
 2973WAT     H2 9162   5.876   6.214   8.338
 2974WAT      O 9163   8.650   9.253   3.442
 2974WAT     H1 9164   8.699   9.266   3.356
 2974WAT     H2 9165   8.572   9.316   3.446
 2975WAT      O 9166   9.425   2.428   3.520
 2975WAT     H1 9167   9.484   2.433   3.439
 2975WAT     H2 9168   9.338   2.386   3.495
 2976WAT      O 9169   7.595   2.349   2.638
 2976WAT     H1 9170   7.591   2.265   2.692
 2976WAT     H2 9171   7.683   2.395   2.653
 2977WAT      O 9172   9.081   6.586   0.744
 2977WAT     H1 9173   9.050   6.605   0.650
 2977WAT     H2 9174   9.001   6.571   0.802
 2978WAT      O 9175   3.482   2.010   9.066
 2978WAT     H1 9176   3.558   1.958   9.028
 2978WAT     H2 9177   3.502   2.108   9.062
 2979WAT      O 9178   2.700   1.519   8.071
 2979WAT     H1 9179   2.724   1.429   8.037
 2979WAT     H2 9180   2.642   1.509   8.152
 2980WAT      O 9181   9.207   5.270   8.561
 2980WAT     H1 9182   9.280   5.327   8.525
 2980WAT     H2 9183   9.232   5.237   8.652
 2981WAT      O 9184   3.250   2.033   8.060
 2981WAT     H1 9185   3.257   2.074   7.969
 2981WAT     H2 9186   3.194   2.092   8.119
 2982WAT      O 9187   6.697   5.342   9.428
 2982WAT     H1 9188   6.783   5.354   9.478
 2982WAT     H2 9189   6.681   5.422   9.371
 2983WAT      O 9190   0.466   2.280   0.787
 2983WAT     H1 9191   0.467   2.241   0.695
 2983WAT     H2 9192   0.416   2.367   0.786
 2984WAT      O 9193   0.170   8.038   0.116
 2984WAT     H1 9194   0.101   7.972   0.144
 2984WAT     H2 9195   0.213   8.008   0.031
 2985WAT      O 9196   5.809   4.632   6.708
 2985WAT     H1 9197   5.818   4.628   6.608
 2985WAT     H2 9198   5.712   4.626   6.732
 2986WAT      O 9199   3.034   3.692   6.385
 2986WAT     H1 9200   3.098   3.616   6.383
 2986WAT     H2 9201   2.963   3.674   6.454
 2987WAT      O 9202   4.061   7.639   4.072
 2987WAT     H1 9203   3.967   7.626   4.038
 2987WAT     H2 9204   4.062   7.630   4.171
 2988WAT      O 9205   5.632   4.821   3.776
 2988WAT     H1 9206   5.730   4.802   3.783
 2988WAT     H2 9207   5.602   4.871   3.857
 2989WAT      O 9208   7.923   6.289   2.280
 2989WAT     H1 9209   7.834   6.243   2.272
 2989WAT     H2 9210   7.948   6.329   2.192
 2990WAT      O 9211   9.772   9.291   4.741
 2990WAT     H1 9212   9.721   9.372   4.714
 2990WAT     H2 9213   9.762   9.276   4.840
 2991WAT      O 9214   4.261   2.364   0.530
 2991WAT     H1 9215   4.193   2.325   0.591
 2991WAT     H2 9216   4.220   2.439   0.478
 2992WAT      O 9217   3.434   0.783   6.877
 2992WAT     H1 9218   3.358   0.718   6.886
 2992WAT     H2 9219   3.520   0.733   6.870
 2993WAT      O 9220   6.472   8.339   5.279
 2993WAT     H1 9221   6.510   8.279   5.208
 2993WAT     H2 9222   6.545   8.396   5.317
 2994WAT      O 9223   1.386   3.481   6.634
 2994WAT     H1 9224   1.397   3.487   6.535
 2994WAT     H2 9225   1.320   3.549   6.665
 2995WAT      O 9226   3.296   1.134   0.029
 2995WAT     H1 9227   3.199   1.125   0.048
 2995WAT     H2 9228   3.348   1.126   0.114
 2996WAT      O 9229   0.836   8.701   8.463
 2996WAT     H1 9230   0.912   8.689   8.528
 2996WAT     H2 9231   0.788   8.615   8.451
 2997WAT      O 9232   2.967   8.149   3.594
 2997WAT     H1 9233   2.982   8.067   3.650
 2997WAT     H2 9234   2.872   8.178   3.601
 2998WAT      O 9235   4.628   1.763   9.453
 2998WAT     H1 9236   4.634   1.678   9.400
 2998WAT     H2 9237   4.605   1.838   9.392
 2999WAT      O 9238   9.401   5.099   5.530
 2999WAT     H1 9239   9.358   5.154   5.458
 2999WAT     H2 9240   9.485   5.059   5.495
 3000WAT      O 9241   7.200   2.873   7.943
 3000WAT     H1 9242   7.254   2.790   7.928
 3000WAT     H2 9243   7.238   2.925   8.019
 3001WAT      O 9244   9.562   2.276   8.230
 3001WAT     H1 9245   9.630   2.345   8.254
 3001WAT     H2 9246   9.511   2.307   8.149
 3002WAT      O 9247   4.188   2.343   1.624
 3002WAT     H1 9248   4.227   2.299   1.544
 3002WAT     H2 9249   4.185   2.278   1.700
 3003WAT      O 9250   5.297   1.751   3.108
 3003WAT     H1 9251   5.373   1.740   3.045
 3003WAT     H2 9252   5.223   1.801   3.063
 3004WAT      O 9253   4.857   1.306   2.153
 3004WAT     H1 9254   4.928   1.261   2.206
 3004WAT     H2 9255   4.783   1.241   2.134
 3005WAT      O 9256   6.337   5.253   5.828
 3005WAT     H1 9257   6.271   5.185   5.860
 3005WAT     H2 9258   6.318   5.277   5.733
 3006WAT      O 9259   9.654   1.617   4.698
 3006WAT     H1 9260   9.599   1.604   4.615
 3006WAT     H2 9261   9.648   1.535   4.755
 3007WAT      O 9262   1.112   1.477   6.919
 3007WAT     H1 9263   1.048   1.522   6.857
 3007WAT     H2 9264   1.077   1.482   7.012
 3008WAT      O 9265   7.154   8.444   6.908
 3008WAT     H1 9266   7.120   8.527   6.953
 3008WAT     H2 9267   7.092   8.418   6.834
 3009WAT      O 9268   8.427   5.911   9.570
 3009WAT     H1 9269   8.472   5.958   9.494
 3009WAT     H2 9270   8.494   5.888   9.640
 3010WAT      O 9271   5.054   2.120   8.670
 3010WAT     H1 9272   4.988   2.142   8.598
 3010WAT     H2 9273   5.017   2.047   8.727
 3011WAT      O 9274   8.454   2.339   2.025
 3011WAT     H1 9275   8.534   2.283   2.001
 3011WAT     H2 9276   8.460   2.364   2.122
 3012WAT      O 9277   2.533   3.436   1.261
 3012WAT     H1 9278   2.624   3.396   1.268
 3012WAT     H2 9279   2.515   3.491   1.343
 3013WAT      O 9280   3.728   6.646   0.227
 3013WAT     H1 9281   3.629   6.639   0.217
 3013WAT     H2 9282   3.770   6.557   0.210
 3014WAT      O 9283   2.419   5.379   6.561
 3014WAT     H1 9284   2.334   5.395   6.510
 3014WAT     H2 9285   2.398   5.324   6.642
 3015WAT      O 9286   8.114   2.780   7.914
 3015WAT     H1 9287   8.042   2.736   7.967
 3015WAT     H2 9288   8.125   2.875   7.945
 3016WAT      O 9289   7.951   3.364   1.359
 3016WAT     H1 9290   7.904   3.305   1.294
 3016WAT     H2 9291   8.033   3.318   1.393
 3017WAT      O 9292   5.560   6.733   2.585
 3017WAT     H1 9293   5.608   6.645   2.581
 3017WAT     H2 9294   5.558   6.766   2.679
 3018WAT      O 9295   0.306   4.117   7.597
 3018WAT     H1 9296   0.307   4.082   7.503
 3018WAT     H2 9297   0.212   4.136   7.624
 3019WAT      O 9298   4.515   6.086   0.287
 3019WAT     H1 9299   4.583   6.026   0.246
 3019WAT     H2 9300   4.489   6.050   0.376
 3020WAT      O 9301   9.184   3.362   1.851
 3020WAT     H1 9302   9.100   3.309   1.863
 3020WAT     H2 9303   9.208   3.408   1.936
 3021WAT      O 9304   6.169   5.995   6.911
 3021WAT     H1 9305   6.072   5.982   6.932
 3021WAT     H2 9306   6.203   5.918   6.857
 3022WAT      O 9307   8.271   3.811   5.789
 3022WAT     H1 9308   8.342   3.764   5.737
 3022WAT     H2 9309   8.184   3.764   5.778
 3023WAT      O 9310   7.202   4.162   4.224
 3023WAT     H1 9311   7.169   4.254   4.206
 3023WAT     H2 9312   7.142   4.096   4.178
 3024WAT      O 9313   1.166   0.257   8.630
 3024WAT     H1 9314   1.192   0.191   8.560
 3024WAT     H2 9315   1.244   0.317   8.649
 3025WAT      O 9316   3.270   7.410   4.147
 3025WAT     H1 9317   3.185   7.361   4.130
 3025WAT     H2 9318   3.283   7.419   4.246
 3026WAT      O 9319   8.212   8.165   3.122
 3026WAT     H1 9320   8.179   8.152   3.028
 3026WAT     H2 9321   8.210   8.263   3.144
 3027WAT      O 9322   2.154   2.562   5.092
 3027WAT     H1 9323   2.118   2.655   5.082
 3027WAT     H2 9324   2.106   2.516   5.166
 3028WAT      O 9325   9.470   6.166   7.652
 3028WAT     H1 9326   9.433   6.239   7.594
 3028WAT     H2 9327   9.439   6.078   7.618
 3029WAT      O 9328   9.856   5.711   3.457
 3029WAT     H1 9329   9.927   5.714   3.527
 3029WAT     H2 9330   9.768   5.737   3.497
 3030WAT      O 9331   0.556   6.627   4.678
 3030WAT     H1 9332   0.461   6.649   4.654
 3030WAT     H2 9333   0.616   6.697   4.640
 3031WAT      O 9334   6.916   1.687   4.571
 3031WAT     H1 9335   6.934   1.785   4.565
 3031WAT     H2 9336   6.999   1.636   4.547
 3032WAT      O 9337   4.413   2.083   8.052
 3032WAT     H1 9338   4.504   2.107   8.085
 3032WAT     H2 9339   4.348   2.155   8.076
 3033WAT      O 9340   9.511   5.439   7.531
 3033WAT     H1 9341   9.591   5.475   7.580
 3033WAT     H2 9342   9.481   5.505   7.463
 3034WAT      O 9343   3.844   0.085   6.052
 3034WAT     H1 9344   3.881  -0.001   6.017
 3034WAT     H2 9345   3.767   0.114   5.996
 3035WAT      O 9346   0.384   9.625   1.652
 3035WAT     H1 9347   0.464   9.608   1.594
 3035WAT     H2 9348   0.407   9.607   1.747
 3036WAT      O 9349   0.452   8.017   8.079
 3036WAT     H1 9350   0.509   7.942   8.044
 3036WAT     H2 9351   0.465   8.025   8.177
 3037WAT      O 9352   6.331   4.310   7.458
 3037WAT     H1 9353   6.304   4.351   7.546
 3037WAT     H2 9354   6.428   4.327   7.442
 3038WAT      O 9355   3.777   7.663   2.407
 3038WAT     H1 9356   3.695   7.669   2.464
 3038WAT     H2 9357   3.841   7.598   2.447
 3039WAT      O 9358   8.458   5.872   3.816
 3039WAT     H1 9359   8.366   5.902   3.788
 3039WAT     H2 9360   8.454   5.777   3.846
 3040WAT      O 9361   9.232   6.791   4.381
 3040WAT     H1 9362   9.292   6.765   4.457
 3040WAT     H2 9363   9.217   6.711   4.323
 3041WAT      O 9364   6.816   5.198   0.716
 3041WAT     H1 9365   6.817   5.140   0.798
 3041WAT     H2 9366   6.798   5.142   0.635
 3042WAT      O 9367   6.208   1.201   9.252
 3042WAT     H1 9368   6.162   1.112   9.249
 3042WAT     H2 9369   6.301   1.189   9.286
 3043WAT      O 9370   8.421   2.752   9.441
 3043WAT     H1 9371   8.402   2.654   9.436
 3043WAT     H2 9372   8.423   2.791   9.349
 3044WAT      O 9373   4.459   0.585   5.323
 3044WAT     H1 9374   4.541   0.553   5.369
 3044WAT     H2 9375   4.455   0.546   5.231
 3045WAT      O 9376   9.794   5.440   5.992
 3045WAT     H1 9377   9.868   5.408   6.051
 3045WAT     H2 9378   9.744   5.514   6.039
 3046WAT      O 9379   0.411   0.883   2.032
 3046WAT     H1 9380   0.395   0.816   1.959
 3046WAT     H2 9381   0.400   0.976   1.995
 3047WAT      O 9382   9.580   0.055   5.484
 3047WAT     H1 9383   9.573  -0.015   5.555
 3047WAT     H2 9384   9.541   0.020   5.399
 3048WAT      O 9385   2.634   2.658   0.692
 3048WAT     H1 9386   2.557   2.671   0.629
 3048WAT     H2 9387   2.688   2.579   0.662
 3049WAT      O 9388   0.488   8.526   5.247
 3049WAT     H1 9389   0.417   8.589   5.279
 3049WAT     H2 9390   0.448   8.461   5.183
 3050WAT      O 9391   6.047   1.654   6.275
 3050WAT     H1 9392   6.051   1.639   6.374
 3050WAT     H2 9393   6.089   1.576   6.228
 3051WAT      O 9394   6.289   6.329   8.196
 3051WAT     H1 9395   6.370   6.341   8.139
 3051WAT     H2 9396   6.295   6.241   8.243
 3052WAT      O 9397   2.151   2.848   6.742
 3052WAT     H1 9398   2.097   2.771   6.708
 3052WAT     H2 9399   2.188   2.825   6.832
 3053WAT      O 9400   8.048   9.322   5.202
 3053WAT     H1 9401   7.968   9.332   5.143
 3053WAT     H2 9402   8.046   9.392   5.273
 3054WAT      O 9403   9.621   4.406   4.448
 3054WAT     H1 9404   9.653   4.501   4.455
 3054WAT     H2 9405   9.678   4.356   4.383
 3055WAT      O 9406   8.682   8.435   6.067
 3055WAT     H1 9407   8.631   8.473   5.990
 3055WAT     H2 9408   8.683   8.501   6.142
 3056WAT      O 9409   8.870   6.379   7.063
 3056WAT     H1 9410   8.840   6.381   6.968
 3056WAT     H2 9411   8.839   6.462   7.109
 3057WAT      O 9412   8.369   5.022   5.530
 3057WAT     H1 9413   8.460   5.013   5.490
 3057WAT     H2 9414   8.359   4.957   5.605
 3058WAT      O 9415   2.058   3.448   8.544
 3058WAT     H1 9416   2.103   3.489   8.465
 3058WAT     H2 9417   1.972   3.406   8.516
 3059WAT      O 9418   7.910   6.793   9.182
 3059WAT     H1 9419   7.980   6.830   9.243
 3059WAT     H2 9420   7.835   6.755   9.237
 3060WAT      O 9421   5.896   0.790   3.190
 3060WAT     H1 9422   5.904   0.827   3.283
 3060WAT     H2 9423   5.814   0.732   3.185
 3061WAT      O 9424   8.714   5.887   4.506
 3061WAT     H1 9425   8.774   5.879   4.426
 3061WAT     H2 9426   8.764   5.861   4.588
 3062WAT      O 9427   3.349   6.303   5.900
 3062WAT     H1 9428   3.252   6.280   5.902
 3062WAT     H2 9429   3.377   6.324   5.806
 3063WAT      O 9430   0.341   6.687   1.917
 3063WAT     H1 9431   0.285   6.628   1.975
 3063WAT     H2 9432   0.383   6.632   1.845
 3064WAT      O 9433   7.027   8.268   3.637
 3064WAT     H1 9434   7.089   8.256   3.559
 3064WAT     H2 9435   6.997   8.178   3.669
 3065WAT      O 9436   1.734   4.450   2.557
 3065WAT     H1 9437   1.752   4.371   2.499
 3065WAT     H2 9438   1.658   4.503   2.519
 3066WAT      O 9439   7.247   7.740   0.572
 3066WAT     H1 9440   7.249   7.701   0.664
 3066WAT     H2 9441   7.239   7.667   0.505
 3067WAT      O 9442   5.381   1.175   3.897
 3067WAT     H1 9443   5.306   1.209   3.954
 3067WAT     H2 9444   5.363   1.197   3.801
 3068WAT      O 9445   7.942   4.198   7.221
 3068WAT     H1 9446   7.859   4.145   7.234
 3068WAT     H2 9447   7.918   4.289   7.187
 3069WAT      O 9448   8.762   5.920   4.954
 3069WAT     H1 9449   8.738   5.998   4.896
 3069WAT     H2 9450   8.713   5.839   4.921
 3070WAT      O 9451   9.854   1.190   9.218
 3070WAT     H1 9452   9.910   1.155   9.294
 3070WAT     H2 9453   9.912   1.241   9.155
 3071WAT      O 9454   8.089   5.272   7.861
 3071WAT     H1 9455   8.039   5.248   7.778
 3071WAT     H2 9456   8.062   5.210   7.935
 3072WAT      O 9457   5.606   2.164   8.141
 3072WAT     H1 9458   5.524   2.169   8.084
 3072WAT     H2 9459   5.652   2.253   8.141
 3073WAT      O 9460   1.363   6.007   1.304
 3073WAT     H1 9461   1.366   5.917   1.348
 3073WAT     H2 9462   1.319   6.073   1.365
 3074WAT      O 9463   4.714   5.615   8.927
 3074WAT     H1 9464   4.790   5.576   8.874
 3074WAT     H2 9465   4.637   5.552   8.926
 3075WAT      O 9466   8.929   2.365   5.316
 3075WAT     H1 9467   8.887   2.278   5.339
 3075WAT     H2 9468   9.023   2.350   5.286
 3076WAT      O 9469   8.076   6.818   2.408
 3076WAT     H1 9470   8.117   6.797   2.497
 3076WAT     H2 9471   8.144   6.804   2.336
 3077WAT      O 9472   7.349   7.126   4.678
 3077WAT     H1 9473   7.405   7.046   4.656
 3077WAT     H2 9474   7.408   7.202   4.702
 3078WAT      O 9475   8.382   3.526   2.548
 3078WAT     H1 9476   8.431   3.442   2.570
 3078WAT     H2 9477   8.284   3.513   2.563
 3079WAT      O 9478   0.460   6.962   5.404
 3079WAT     H1 9479   0.407   7.045   5.424
 3079WAT     H2 9480   0.554   6.973   5.435
 3080WAT      O 9481   8.016   3.275   3.820
 3080WAT     H1 9482   8.011   3.201   3.753
 3080WAT     H2 9483   7.995   3.240   3.911
 3081WAT      O 9484   1.785   9.816   7.492
 3081WAT     H1 9485   1.717   9.802   7.420
 3081WAT     H2 9486   1.875   9.791   7.459
 3082WAT      O 9487   3.653   7.170   9.043
 3082WAT     H1 9488   3.730   7.120   9.083
 3082WAT     H2 9489   3.593   7.106   8.994
 3083WAT      O 9490   5.141   1.431   9.218
 3083WAT     H1 9491   5.195   1.346   9.211
 3083WAT     H2 9492   5.131   1.456   9.314
 3084WAT      O 9493   5.933   6.464   7.392
 3084WAT     H1 9494   5.977   6.448   7.481
 3084WAT     H2 9495   5.834   6.454   7.403
 3085WAT      O 9496   0.968   0.250   2.217
 3085WAT     H1 9497   1.043   0.295   2.264
 3085WAT     H2 9498   0.896   0.317   2.198
 3086WAT      O 9499   6.049   7.043   3.265
 3086WAT     H1 9500   6.143   7.008   3.268
 3086WAT     H2 9501   5.999   7.008   3.344
 3087WAT      O 9502   6.410   1.177   1.782
 3087WAT     H1 9503   6.480   1.124   1.830
 3087WAT     H2 9504   6.333   1.117   1.758
 3088WAT      O 9505   8.302   2.410   0.562
 3088WAT     H1 9506   8.227   2.346   0.579
 3088WAT     H2 9507   8.313   2.423   0.464
 3089WAT      O 9508   4.201   1.380   2.545
 3089WAT     H1 9509   4.240   1.457   2.593
 3089WAT     H2 9510   4.236   1.378   2.451
 3090WAT      O 9511   8.032   7.549   2.969
 3090WAT     H1 9512   8.086   7.465   2.979
 3090WAT     H2 9513   8.072   7.621   3.026
 3091WAT      O 9514   5.304   1.026   4.924
 3091WAT     H1 9515   5.294   1.124   4.911
 3091WAT     H2 9516   5.394   1.006   4.962
 3092WAT      O 9517   8.813   7.393   5.632
 3092WAT     H1 9518   8.840   7.478   5.678
 3092WAT     H2 9519   8.853   7.315   5.680
 3093WAT      O 9520   2.847   4.854   0.229
 3093WAT     H1 9521   2.917   4.921   0.205
 3093WAT     H2 9522   2.760   4.881   0.189
 3094WAT      O 9523   3.566   3.072   9.644
 3094WAT     H1 9524   3.594   3.074   9.548
 3094WAT     H2 9525   3.643   3.043   9.701
 3095WAT      O 9526   8.120   4.382   1.118
 3095WAT     H1 9527   8.040   4.360   1.062
 3095WAT     H2 9528   8.181   4.303   1.123
 3096WAT      O 9529   8.306   2.631   8.876
 3096WAT     H1 9530   8.405   2.619   8.875
 3096WAT     H2 9531   8.273   2.644   8.783
 3097WAT      O 9532   0.538   3.894   2.513
 3097WAT     H1 9533   0.619   3.854   2.470
 3097WAT     H2 9534   0.456   3.869   2.461
 3098WAT      O 9535   6.023   4.508   1.640
 3098WAT     H1 9536   6.006   4.417   1.677
 3098WAT     H2 9537   5.956   4.572   1.677
 3099WAT      O 9538   9.564   3.073   6.564
 3099WAT     H1 9539   9.600   3.033   6.479
 3099WAT     H2 9540   9.541   3.169   6.547
 3100WAT      O 9541   4.910   1.510   9.064
 3100WAT     H1 9542   4.982   1.490   9.131
 3100WAT     H2 9543   4.828   1.457   9.087
 3101WAT      O 9544   3.905   8.076   6.522
 3101WAT     H1 9545   3.808   8.086   6.544
 3101WAT     H2 9546   3.950   8.020   6.592
 3102WAT      O 9547   9.618   0.064   1.905
 3102WAT     H1 9548   9.621   0.153   1.861
 3102WAT     H2 9549   9.562   0.002   1.850
 3103WAT      O 9550   7.381   7.333   9.061
 3103WAT     H1 9551   7.398   7.426   9.029
 3103WAT     H2 9552   7.292   7.330   9.108
 3104WAT      O 9553   6.562   3.088   5.363
 3104WAT     H1 9554   6.634   3.019   5.346
 3104WAT     H2 9555   6.583   3.136   5.448
 3105WAT      O 9556   2.345   2.692   4.312
 3105WAT     H1 9557   2.372   2.596   4.317
 3105WAT     H2 9558   2.425   2.748   4.287
 3106WAT      O 9559   9.326   6.337   5.941
 3106WAT     H1 9560   9.339   6.358   5.844
 3106WAT     H2 9561   9.298   6.242   5.951
 3107WAT      O 9562   4.779   2.143   9.337
 3107WAT     H1 9563   4.705   2.076   9.328
 3107WAT     H2 9564   4.854   2.119   9.276
 3108WAT      O 9565   9.282   1.283   7.193
 3108WAT     H1 9566   9.212   1.352   7.209
 3108WAT     H2 9567   9.345   1.316   7.122
 3109WAT      O 9568   4.830   4.406   5.610
 3109WAT     H1 9569   4.788   4.488   5.647
 3109WAT     H2 9570   4.904   4.375   5.670
 3110WAT      O 9571   5.559   8.271   5.427
 3110WAT     H1 9572   5.649   8.307   5.450
 3110WAT     H2 9573   5.488   8.329   5.468
 3111WAT      O 9574   5.590   6.737   7.906
 3111WAT     H1 9575   5.561   6.673   7.835
 3111WAT     H2 9576   5.587   6.692   7.995
 3112WAT      O 9577   8.053   9.631   1.063
 3112WAT     H1 9578   8.012   9.721   1.053
 3112WAT     H2 9579   8.078   9.616   1.159
 3113WAT      O 9580   7.706   5.814   0.215
 3113WAT     H1 9581   7.653   5.778   0.138
 3113WAT     H2 9582   7.704   5.914   0.213
 3114WAT      O 9583   4.857   0.037   9.665
 3114WAT     H1 9584   4.814   0.055   9.577
 3114WAT     H2 9585   4.884   0.124   9.707
 3115WAT      O 9586   0.156   3.501   5.627
 3115WAT     H1 9587   0.069   3.537   5.593
 3115WAT     H2 9588   0.161   3.403   5.609
 3116WAT      O 9589   3.786   8.671   8.430
 3116WAT     H1 9590   3.730   8.735   8.482
 3116WAT     H2 9591   3.871   8.715   8.403
 3117WAT      O 9592   1.339   1.936   2.591
 3117WAT     H1 9593   1.275   2.011   2.575
 3117WAT     H2 9594   1.422   1.952   2.538
 3118WAT      O 9595   2.922   6.951   7.245
 3118WAT     H1 9596   2.887   6.919   7.157
 3118WAT     H2 9597   2.892   7.046   7.260
 3119WAT      O 9598   2.200   2.217   3.023
 3119WAT     H1 9599   2.258   2.296   3.044
 3119WAT     H2 9600   2.114   2.225   3.074
 3120WAT      O 9601   1.166   8.445   8.140
 3120WAT     H1 9602   1.184   8.521   8.078
 3120WAT     H2 9603   1.238   8.441   8.210
 3121WAT      O 9604   0.899   5.376   0.012
 3121WAT     H1 9605   0.938   5.292  -0.028
 3121WAT     H2 9606   0.971   5.444   0.024
 3122WAT      O 9607   6.156   0.400   4.953
 3122WAT     H1 9608   6.077   0.343   4.976
 3122WAT     H2 9609   6.213   0.412   5.034
 3123WAT      O 9610   1.547   9.212   4.627
 3123WAT     H1 9611   1.455   9.224   4.591
 3123WAT     H2 9612   1.549   9.138   4.693
 3124WAT      O 9613   9.132   4.156   5.455
 3124WAT     H1 9614   9.168   4.228   5.396
 3124WAT     H2 9615   9.063   4.194   5.516
 3125WAT      O 9616   5.476   3.767   5.585
 3125WAT     H1 9617   5.449   3.843   5.526
 3125WAT     H2 9618   5.484   3.684   5.530
 3126WAT      O 9619   4.196   8.703   9.104
 3126WAT     H1 9620   4.137   8.652   9.168
 3126WAT     H2 9621   4.161   8.690   9.010
 3127WAT      O 9622   9.750   1.787   8.643
 3127WAT     H1 9623   9.827   1.778   8.706
 3127WAT     H2 9624   9.666   1.761   8.691
 3128WAT      O 9625   1.201   9.277   0.878
 3128WAT     H1 9626   1.279   9.335   0.857
 3128WAT     H2 9627   1.203   9.196   0.819
 3129WAT      O 9628   3.308   0.439   1.712
 3129WAT     H1 9629   3.299   0.527   1.666
 3129WAT     H2 9630   3.218   0.394   1.716
 3130WAT      O 9631   2.304   0.388   2.717
 3130WAT     H1 9632   2.213   0.401   2.757
 3130WAT     H2 9633   2.299   0.318   2.645
 3131WAT      O 9634   8.425   7.823   0.964
 3131WAT     H1 9635   8.427   7.904   0.905
 3131WAT     H2 9636   8.427   7.741   0.907
 3132WAT      O 9637   5.947   8.124   1.610
 3132WAT     H1 9638   6.022   8.098   1.550
 3132WAT     H2 9639   5.983   8.170   1.691
 3133WAT      O 9640   8.710   5.727   6.291
 3133WAT     H1 9641   8.750   5.643   6.326
 3133WAT     H2 9642   8.776   5.774   6.232
 3134WAT      O 9643   9.351   2.619   9.125
 3134WAT     H1 9644   9.418   2.675   9.076
 3134WAT     H2 9645   9.340   2.654   9.218
 3135WAT      O 9646   1.880   3.846   3.155
 3135WAT     H1 9647   1.926   3.913   3.213
 3135WAT     H2 9648   1.803   3.890   3.108
 3136WAT      O 9649   1.982   4.554   2.330
 3136WAT     H1 9650   2.044   4.579   2.255
 3136WAT     H2 9651   1.888   4.576   2.304
 3137WAT      O 9652   7.447   1.619   0.850
 3137WAT     H1 9653   7.510   1.549   0.885
 3137WAT     H2 9654   7.483   1.710   0.872
 3138WAT      O 9655   2.487   1.129   4.360
 3138WAT     H1 9656   2.475   1.063   4.286
 3138WAT     H2 9657   2.499   1.079   4.446
 3139WAT      O 9658   5.030   7.006   9.605
 3139WAT     H1 9659   4.941   7.039   9.575
 3139WAT     H2 9660   5.064   6.938   9.540
 3140WAT      O 9661   3.785   0.594   8.983
 3140WAT     H1 9662   3.768   0.656   8.907
 3140WAT     H2 9663   3.824   0.646   9.060
 3141WAT      O 9664   8.511   2.686   6.032
 3141WAT     H1 9665   8.443   2.753   6.003
 3141WAT     H2 9666   8.498   2.664   6.128
 3142WAT      O 9667   3.196   2.132   4.091
 3142WAT     H1 9668   3.122   2.103   4.151
 3142WAT     H2 9669   3.274   2.161   4.146
 3143WAT      O 9670   5.987   0.669   9.736
 3143WAT     H1 9671   6.072   0.630   9.699
 3143WAT     H2 9672   6.008   0.725   9.816
 3144WAT      O 9673   6.367   2.296   5.457
 3144WAT     H1 9674   6.419   2.254   5.382
 3144WAT     H2 9675   6.431   2.337   5.523
 3145WAT      O 9676   6.282   5.267   0.373
 3145WAT     H1 9677   6.205   5.327   0.348
 3145WAT     H2 9678   6.276   5.182   0.322
 3146WAT      O 9679   0.564   6.127   5.877
 3146WAT     H1 9680   0.508   6.164   5.952
 3146WAT     H2 9681   0.506   6.075   5.815
 3147WAT      O 9682   1.547   3.615   5.927
 3147WAT     H1 9683   1.616   3.570   5.871
 3147WAT     H2 9684   1.580   3.620   6.022
 3148WAT      O 9685   7.655   7.446   6.246
 3148WAT     H1 9686   7.624   7.535   6.279
 3148WAT     H2 9687   7.586   7.376   6.266
 3149WAT      O 9688   7.287   5.137   3.997
 3149WAT     H1 9689   7.249   5.055   4.041
 3149WAT     H2 9690   7.374   5.115   3.954
 3150WAT      O 9691   2.660   9.847   5.294
 3150WAT     H1 9692   2.697   9.870   5.204
 3150WAT     H2 9693   2.638   9.749   5.297
 3151WAT      O 9694   4.617   1.617   7.035
 3151WAT     H1 9695   4.569   1.586   7.117
 3151WAT     H2 9696   4.552   1.664   6.975
 3152WAT      O 9697   8.583   3.047   4.601
 3152WAT     H1 9698   8.602   3.145   4.612
 3152WAT     H2 9699   8.631   2.995   4.671
 3153WAT      O 9700   1.952   9.546   3.489
 3153WAT     H1 9701   2.044   9.523   3.520
 3153WAT     H2 9702   1.903   9.463   3.463
 3154WAT      O 9703   7.600   8.156   3.744
 3154WAT     H1 9704   7.691   8.174   3.779
 3154WAT     H2 9705   7.584   8.057   3.741
 3155WAT      O 9706   5.064   0.286   6.537
 3155WAT     H1 9707   4.968   0.273   6.560
 3155WAT     H2 9708   5.075   0.368   6.480
 3156WAT      O 9709   8.729   9.843   8.982
 3156WAT     H1 9710   8.761   9.806   9.069
 3156WAT     H2 9711   8.731   9.772   8.912
 3157WAT      O 9712   5.127   1.344   8.382
 3157WAT     H1 9713   5.123   1.339   8.282
 3157WAT     H2 9714   5.223   1.355   8.410
 3158WAT      O 9715   5.773   2.025   9.822
 3158WAT     H1 9716   5.806   2.005   9.730
 3158WAT     H2 9717   5.847   2.063   9.876
 3159WAT      O 9718   1.855   8.893   3.836
 3159WAT     H1 9719   1.918   8.884   3.759
 3159WAT     H2 9720   1.823   8.803   3.864
 3160WAT      O 9721   7.010   2.172   8.851
 3160WAT     H1 9722   7.005   2.089   8.907
 3160WAT     H2 9723   6.920   2.194   8.815
 3161WAT      O 9724   5.116   7.280   0.624
 3161WAT     H1 9725   5.082   7.214   0.558
 3161WAT     H2 9726   5.216   7.283   0.620
 3162WAT      O 9727   7.741   7.999   2.012
 3162WAT     H1 9728   7.764   7.912   1.968
 3162WAT     H2 9729   7.666   8.042   1.963
 3163WAT      O 9730   0.838   9.056   4.354
 3163WAT     H1 9731   0.793   9.122   4.294
 3163WAT     H2 9732   0.889   9.105   4.425
 3164WAT      O 9733   4.664   6.379   4.415
 3164WAT     H1 9734   4.637   6.412   4.505
 3164WAT     H2 9735   4.631   6.286   4.402
 3165WAT      O 9736   8.601   3.426   4.881
 3165WAT     H1 9737   8.504   3.418   4.903
 3165WAT     H2 9738   8.653   3.439   4.965
 3166WAT      O 9739   1.825   3.812   4.455
 3166WAT     H1 9740   1.821   3.911   4.466
 3166WAT     H2 9741   1.871   3.790   4.369
 3167WAT      O 9742   7.504   2.918   1.982
 3167WAT     H1 9743   7.481   2.891   1.889
 3167WAT     H2 9744   7.585   2.867   2.012
 3168WAT      O 9745   3.859   2.245   3.545
 3168WAT     H1 9746   3.914   2.180   3.493
 3168WAT     H2 9747   3.909   2.273   3.627
 3169WAT      O 9748   6.410   4.578   6.285
 3169WAT     H1 9749   6.337   4.597   6.351
 3169WAT     H2 9750   6.444   4.485   6.299
 3170WAT      O 9751   2.061   2.985   7.047
 3170WAT     H1 9752   2.076   3.076   7.007
 3170WAT     H2 9753   2.132   2.922   7.013
 3171WAT      O 9754   1.916   0.763   8.352
 3171WAT     H1 9755   1.902   0.801   8.261
 3171WAT     H2 9756   1.829   0.735   8.391
 3172WAT      O 9757   2.858   7.784   3.985
 3172WAT     H1 9758   2.841   7.760   3.889
 3172WAT     H2 9759   2.956   7.785   4.003
 3173WAT      O 9760   8.749   6.748   9.367
 3173WAT     H1 9761   8.673   6.805   9.339
 3173WAT     H2 9762   8.757   6.749   9.467
 3174WAT      O 9763   6.374   2.583   5.023
 3174WAT     H1 9764   6.301   2.571   5.091
 3174WAT     H2 9765   6.340   2.636   4.946
 3175WAT      O 9766   1.290   7.986   5.139
 3175WAT     H1 9767   1.297   7.982   5.039
 3175WAT     H2 9768   1.194   7.987   5.166
 3176WAT      O 9769   9.464   1.325   3.151
 3176WAT     H1 9770   9.506   1.253   3.206
 3176WAT     H2 9771   9.422   1.285   3.070
 3177WAT      O 9772   3.453   0.363   2.793
 3177WAT     H1 9773   3.500   0.296   2.735
 3177WAT     H2 9774   3.413   0.435   2.736
 3178WAT      O 9775   2.627   6.686   5.854
 3178WAT     H1 9776   2.689   6.622   5.809
 3178WAT     H2 9777   2.678   6.739   5.922
 3179WAT      O 9778   5.309   8.619   1.929
 3179WAT     H1 9779   5.246   8.696   1.919
 3179WAT     H2 9780   5.370   8.636   2.007
 3180WAT      O 9781   3.104   8.181   8.238
 3180WAT     H1 9782   3.108   8.234   8.153
 3180WAT     H2 9783   3.177   8.210   8.299
 3181WAT      O 9784   4.816   7.704   0.088
 3181WAT     H1 9785   4.761   7.712   0.171
 3181WAT     H2 9786   4.906   7.668   0.112
 3182WAT      O 9787   1.300   2.596   4.893
 3182WAT     H1 9788   1.264   2.648   4.970
 3182WAT     H2 9789   1.251   2.509   4.885
 3183WAT      O 9790   6.059   8.125   1.116
 3183WAT     H1 9791   6.072   8.148   1.213
 3183WAT     H2 9792   6.013   8.201   1.070
 3184WAT      O 9793   5.420   1.449   3.651
 3184WAT     H1 9794   5.340   1.499   3.682
 3184WAT     H2 9795   5.395   1.355   3.629
 3185WAT      O 9796   8.839   5.421   5.383
 3185WAT     H1 9797   8.774   5.497   5.389
 3185WAT     H2 9798   8.815   5.362   5.306
 3186WAT      O 9799   5.802   6.608   2.815
 3186WAT     H1 9800   5.877   6.648   2.869
 3186WAT     H2 9801   5.718   6.609   2.869
 3187WAT      O 9802   9.212   2.414   2.920
 3187WAT     H1 9803   9.236   2.470   2.999
 3187WAT     H2 9804   9.137   2.352   2.944
 3188WAT      O 9805   9.718   0.977   7.801
 3188WAT     H1 9806   9.805   1.002   7.760
 3188WAT     H2 9807   9.658   0.938   7.732
 3189WAT      O 9808   7.656   5.199   3.456
 3189WAT     H1 9809   7.592   5.201   3.379
 3189WAT     H2 9810   7.637   5.118   3.512
 3190WAT      O 9811   1.437   3.383   6.155
 3190WAT     H1 9812   1.478   3.329   6.081
 3190WAT     H2 9813   1.345   3.410   6.129
 3191WAT      O 9814   8.898   3.345   1.372
 3191WAT     H1 9815   8.866   3.386   1.287
 3191WAT     H2 9816   8.853   3.256   1.385
 3192WAT      O 9817   2.840   8.176   8.639
 3192WAT     H1 9818   2.825   8.264   8.683
 3192WAT     H2 9819   2.938   8.158   8.632
 3193WAT      O 9820   9.170   0.773   5.047
 3193WAT     H1 9821   9.161   0.857   4.992
 3193WAT     H2 9822   9.179   0.797   5.143
 3194WAT      O 9823   5.052   7.689   2.546
 3194WAT     H1 9824   4.973   7.679   2.485
 3194WAT     H2 9825   5.073   7.601   2.588
 3195WAT      O 9826   5.888   0.869   7.704
 3195WAT     H1 9827   5.909   0.934   7.777
 3195WAT     H2 9828   5.835   0.793   7.741
 3196WAT      O 9829   8.304   4.489   3.499
 3196WAT     H1 9830   8.336   4.583   3.512
 3196WAT     H2 9831   8.353   4.428   3.562
 3197WAT      O 9832   9.679   6.000   8.211
 3197WAT     H1 9833   9.744   6.039   8.276
 3197WAT     H2 9834   9.605   6.065   8.194
 3198WAT      O 9835   8.951   7.995   1.155
 3198WAT     H1 9836   8.898   8.006   1.070
 3198WAT     H2 9837   8.905   8.044   1.229
 3199WAT      O 9838   9.205   0.633   8.176
 3199WAT     H1 9839   9.252   0.685   8.105
 3199WAT     H2 9840   9.107   0.651   8.173
 3200WAT      O 9841   4.633   3.947   3.126
 3200WAT     H1 9842   4.542   3.945   3.168
 3200WAT     H2 9843   4.625   3.979   3.031
 3201WAT      O 9844   7.358   9.712   8.778
 3201WAT     H1 9845   7.364   9.657   8.861
 3201WAT     H2 9846   7.352   9.651   8.698
 3202WAT      O 9847   1.359   6.494   8.863
 3202WAT     H1 9848   1.291   6.527   8.929
 3202WAT     H2 9849   1.324   6.412   8.817
 3203WAT      O 9850   2.369   6.034   3.833
 3203WAT     H1 9851   2.299   5.962   3.828
 3203WAT     H2 9852   2.458   5.993   3.852
 3204WAT      O 9853   2.478   4.207   5.595
 3204WAT     H1 9854   2.560   4.215   5.651
 3204WAT     H2 9855   2.481   4.275   5.521
 3205WAT      O 9856   5.808   1.277   7.070
 3205WAT     H1 9857   5.805   1.376   7.083
 3205WAT     H2 9858   5.851   1.257   6.982
 3206WAT      O 9859   3.314   2.482   9.657
 3206WAT     H1 9860   3.338   2.543   9.582
 3206WAT     H2 9861   3.233   2.428   9.632
 3207WAT      O 9862   9.336   2.549   2.703
 3207WAT     H1 9863   9.301   2.502   2.785
 3207WAT     H2 9864   9.259   2.584   2.650
 3208WAT      O 9865   6.337   4.128   6.182
 3208WAT     H1 9866   6.433   4.147   6.203
 3208WAT     H2 9867   6.311   4.177   6.099
 3209WAT      O 9868   1.417   6.386   1.339
 3209WAT     H1 9869   1.476   6.457   1.300
 3209WAT     H2 9870   1.456   6.355   1.427
 3210WAT      O 9871   5.211   9.117   0.216
 3210WAT     H1 9872   5.303   9.157   0.209
 3210WAT     H2 9873   5.185   9.079   0.127
 3211WAT      O 9874   6.858   7.541   8.677
 3211WAT     H1 9875   6.786   7.523   8.745
 3211WAT     H2 9876   6.828   7.612   8.614
 3212WAT      O 9877   9.074   1.771   1.659
 3212WAT     H1 9878   8.980   1.740   1.644
 3212WAT     H2 9879   9.137   1.714   1.607
 3213WAT      O 9880   6.498   7.020   3.804
 3213WAT     H1 9881   6.559   7.042   3.880
 3213WAT     H2 9882   6.544   7.040   3.718
 3214WAT      O 9883   3.616   6.910   9.304
 3214WAT     H1 9884   3.544   6.860   9.353
 3214WAT     H2 9885   3.617   6.881   9.208
 3215WAT      O 9886   5.040   6.309   0.924
 3215WAT     H1 9887   5.007   6.288   1.016
 3215WAT     H2 9888   5.037   6.226   0.867
 3216WAT      O 9889   9.085   2.937   7.334
 3216WAT     H1 9890   9.161   2.875   7.354
 3216WAT     H2 9891   9.115   3.006   7.267
 3217WAT      O 9892   7.785   8.401   7.413
 3217WAT     H1 9893   7.854   8.330   7.396
 3217WAT     H2 9894   7.820   8.489   7.381
 3218WAT      O 9895   5.636   3.879   6.083
 3218WAT     H1 9896   5.657   3.863   6.180
 3218WAT     H2 9897   5.540   3.861   6.065
 3219WAT      O 9898   1.467   0.387   2.117
 3219WAT     H1 9899   1.411   0.345   2.189
 3219WAT     H2 9900   1.409   0.414   2.041
 3220WAT      O 9901   5.362   6.611   6.827
 3220WAT     H1 9902   5.396   6.532   6.776
 3220WAT     H2 9903   5.395   6.695   6.784
 3221WAT      O 9904   0.066   0.544   2.661
 3221WAT     H1 9905   0.080   0.476   2.732
 3221WAT     H2 9906   0.113   0.515   2.577
 3222WAT      O 9907   8.587   2.317   1.013
 3222WAT     H1 9908   8.531   2.376   1.071
 3222WAT     H2 9909   8.545   2.312   0.922
 3223WAT      O 9910   1.982   8.323   4.410
 3223WAT     H1 9911   2.062   8.383   4.402
 3223WAT     H2 9912   1.926   8.351   4.488
 3224WAT      O 9913   7.962   0.666   7.808
 3224WAT     H1 9914   7.917   0.660   7.719
 3224WAT     H2 9915   7.997   0.576   7.834
 3225WAT      O 9916   4.012   7.409   9.428
 3225WAT     H1 9917   4.050   7.488   9.477
 3225WAT     H2 9918   4.080   7.337   9.423
 3226WAT      O 9919   6.832   1.111   0.331
 3226WAT     H1 9920   6.763   1.040   0.321
 3226WAT     H2 9921   6.920   1.069   0.354
 3227WAT      O 9922   6.775   4.754   9.183
 3227WAT     H1 9923   6.809   4.848   9.192
 3227WAT     H2 9924   6.729   4.727   9.268
 3228WAT      O 9925   2.172   1.480   4.245
 3228WAT     H1 9926   2.205   1.404   4.300
 3228WAT     H2 9927   2.077   1.464   4.220
 3229WAT      O 9928   5.917   4.152   0.586
 3229WAT     H1 9929   5.864   4.237   0.583
 3229WAT     H2 9930   5.906   4.103   0.500
 3230WAT      O 9931   1.060   8.110   4.357
 3230WAT     H1 9932   0.997   8.078   4.287
 3230WAT     H2 9933   1.143   8.145   4.314
 3231WAT      O 9934   3.660   0.624   5.476
 3231WAT     H1 9935   3.650   0.724   5.468
 3231WAT     H2 9936   3.577   0.579   5.443
 3232WAT      O 9937   7.196   5.477   8.664
 3232WAT     H1 9938   7.276   5.439   8.617
 3232WAT     H2 9939   7.114   5.457   8.611
 3233WAT      O 9940   0.928   6.080   6.299
 3233WAT     H1 9941   0.883   6.133   6.227
 3233WAT     H2 9942   0.939   5.985   6.269
 3234WAT      O 9943   4.714   0.550   2.368
 3234WAT     H1 9944   4.774   0.470   2.372
 3234WAT     H2 9945   4.638   0.531   2.305
 3235WAT      O 9946   8.142   0.221   7.109
 3235WAT     H1 9947   8.188   0.157   7.047
 3235WAT     H2 9948   8.076   0.172   7.165
 3236WAT      O 9949   7.676   7.678   9.502
 3236WAT     H1 9950   7.637   7.639   9.418
 3236WAT     H2 9951   7.610   7.670   9.576
 3237WAT      O 9952   1.910   5.571   1.934
 3237WAT     H1 9953   1.888   5.583   2.031
 3237WAT     H2 9954   1.990   5.625   1.909
 3238WAT      O 9955   0.043   1.493   7.242
 3238WAT     H1 9956  -0.053   1.479   7.263
 3238WAT     H2 9957   0.058   1.485   7.144
 3239WAT      O 9958   5.905   7.784   9.468
 3239WAT     H1 9959   5.890   7.729   9.550
 3239WAT     H2 9960   5.819   7.794   9.418
 3240WAT      O 9961   6.628   4.205   4.528
 3240WAT     H1 9962   6.659   4.159   4.446
 3240WAT     H2 9963   6.534   4.178   4.549
 3241WAT      O 9964   8.756   8.426   4.393
 3241WAT     H1 9965   8.776   8.493   4.464
 3241WAT     H2 9966   8.692   8.466   4.327
 3242WAT      O 9967   9.442   3.696   3.661
 3242WAT     H1 9968   9.348   3.679   3.691
 3242WAT     H2 9969   9.479   3.774   3.710
 3243WAT      O 9970   5.779   6.931   9.314
 3243WAT     H1 9971   5.728   6.857   9.360
 3243WAT     H2 9972   5.734   6.953   9.227
 3244WAT      O 9973   7.921   5.296   1.987
 3244WAT     H1 9974   7.853   5.249   1.930
 3244WAT     H2 9975   7.937   5.387   1.949
 3245WAT      O 9976   1.925   5.301   1.971
 3245WAT     H1 9977   1.913   5.394   1.937
 3245WAT     H2 9978   2.023   5.280   1.976
 3246WAT      O 9979   8.184   6.232   9.797
 3246WAT     H1 9980   8.157   6.145   9.757
 3246WAT     H2 9981   8.261   6.219   9.859
 3247WAT      O 9982   8.779   9.319   4.940
 3247WAT     H1 9983   8.832   9.400   4.967
 3247WAT     H2 9984   8.684   9.330   4.971
 3248WAT      O 9985   5.996   9.572   9.454
 3248WAT     H1 9986   5.988   9.672   9.452
 3248WAT     H2 9987   5.989   9.540   9.549
 3249WAT      O 9988   6.688   2.898   5.126
 3249WAT     H1 9989   6.610   2.922   5.068
 3249WAT     H2 9990   6.772   2.933   5.085
 3250WAT      O 9991   0.383   1.377   2.302
 3250WAT     H1 9992   0.320   1.380   2.225
 3250WAT     H2 9993   0.385   1.284   2.340
 3251WAT      O 9994   9.438   4.543   8.499
 3251WAT     H1 9995   9.371   4.614   8.477
 3251WAT     H2 9996   9.475   4.560   8.590
 3252WAT      O 9997   1.311   4.028   2.923
 3252WAT     H1 9998   1.253   4.079   2.986
 3252WAT     H2 9999   1.372   4.091   2.876
 3253WAT      O10000   2.393   1.688   6.300
 3253WAT     H110001   2.359   1.705   6.207
 3253WAT     H210002   2.323   1.639   6.352
 3254WAT      O10003   8.216   1.976   4.400
 3254WAT     H110004   8.165   2.059   4.423
 3254WAT     H210005   8.200   1.952   4.304
 3255WAT      O10006   0.555   6.232   8.374
 3255WAT     H110007   0.574   6.166   8.448
 3255WAT     H210008   0.491   6.301   8.407
 3256WAT      O10009   3.909   7.699   1.817
 3256WAT     H110010   3.848   7.773   1.789
 3256WAT     H210011   3.936   7.712   1.913
 3257WAT      O10012   0.753   6.774   1.807
 3257WAT     H110013   0.676   6.715   1.830
 3257WAT     H210014   0.826   6.761   1.874
 3258WAT      O10015   3.652   9.518   1.971
 3258WAT     H110016   3.705   9.603   1.961
 3258WAT     H210017   3.714   9.440   1.966
 3259WAT      O10018   2.740   9.490   2.456
 3259WAT     H110019   2.726   9.470   2.359
 3259WAT     H210020   2.666   9.548   2.490
 3260WAT      O10021   0.602   3.213   6.486
 3260WAT     H110022   0.508   3.239   6.510
 3260WAT     H210023   0.655   3.295   6.465
 3261WAT      O10024   9.222   8.937   8.236
 3261WAT     H110025   9.254   8.867   8.300
 3261WAT     H210026   9.272   8.928   8.150
 3262WAT      O10027   1.851   1.367   6.318
 3262WAT     H110028   1.865   1.359   6.219
 3262WAT     H210029   1.817   1.459   6.339
 3263WAT      O10030   8.839   7.619   4.219
 3263WAT     H110031   8.819   7.714   4.196
 3263WAT     H210032   8.914   7.585   4.162
 3264WAT      O10033   4.299   3.529   3.363
 3264WAT     H110034   4.366   3.457   3.381
 3264WAT     H210035   4.271   3.525   3.267
 3265WAT      O10036   6.129   8.737   4.260
 3265WAT     H110037   6.146   8.642   4.233
 3265WAT     H210038   6.107   8.741   4.357
 3266WAT      O10039   7.977   7.213   6.855
 3266WAT     H110040   8.038   7.193   6.932
 3266WAT     H210041   7.963   7.312   6.849
 3267WAT      O10042   0.039   4.710   7.780
 3267WAT     H110043   0.041   4.615   7.749
 3267WAT     H210044   0.115   4.761   7.740
 3268WAT      O10045   2.961   0.013   2.037
 3268WAT     H110046   3.056  -0.015   2.053
 3268WAT     H210047   2.943   0.015   1.939
 3269WAT      O10048   7.309   3.400   5.618
 3269WAT     H110049   7.301   3.446   5.706
 3269WAT     H210050   7.314   3.468   5.544
 3270WAT      O10051   3.477   0.687   1.824
 3270WAT     H110052   3.414   0.760   1.852
 3270WAT     H210053   3.425   0.602   1.811
 3271WAT      O10054   6.498   3.509   7.152
 3271WAT     H110055   6.516   3.572   7.076
 3271WAT     H210056   6.431   3.440   7.124
 3272WAT      O10057   3.101   3.240   0.068
 3272WAT     H110058   3.099   3.338   0.090
 3272WAT     H210059   3.120   3.228  -0.029
 3273WAT      O10060   7.037   5.319   7.573
 3273WAT     H110061   6.968   5.293   7.505
 3273WAT     H210062   7.061   5.240   7.628
 3274WAT      O10063   1.846   0.143   9.036
 3274WAT     H110064   1.941   0.168   9.018
 3274WAT     H210065   1.826   0.056   8.991
 3275WAT      O10066   3.295   9.222   9.051
 3275WAT     H110067   3.391   9.248   9.049
 3275WAT     H210068   3.238   9.302   9.034
 3276WAT      O10069   6.846   4.204   7.277
 3276WAT     H110070   6.791   4.246   7.205
 3276WAT     H210071   6.786   4.164   7.346
 3277WAT      O10072   7.558   8.724   8.704
 3277WAT     H110073   7.610   8.654   8.752
 3277WAT     H210074   7.581   8.722   8.607
 3278WAT      O10075   8.237   4.462   4.413
 3278WAT     H110076   8.137   4.470   4.413
 3278WAT     H210077   8.263   4.375   4.454
 3279WAT      O10078   4.221   3.306   8.472
 3279WAT     H110079   4.150   3.301   8.401
 3279WAT     H210080   4.289   3.234   8.456
 3280WAT      O10081   7.406   3.153   9.269
 3280WAT     H110082   7.321   3.202   9.289
 3280WAT     H210083   7.478   3.184   9.332
 3281WAT      O10084   1.453   8.116   5.952
 3281WAT     H110085   1.397   8.034   5.936
 3281WAT     H210086   1.447   8.142   6.048
 3282WAT      O10087   1.858   8.667   4.912
 3282WAT     H110088   1.941   8.723   4.901
 3282WAT     H210089   1.879   8.572   4.888
 3283WAT      O10090   6.553   2.129   9.424
 3283WAT     H110091   6.509   2.218   9.433
 3283WAT     H210092   6.536   2.092   9.333
 3284WAT      O10093   6.759   1.068   9.709
 3284WAT     H110094   6.798   0.977   9.698
 3284WAT     H210095   6.793   1.109   9.794
 3285WAT      O10096   8.413   0.390   7.926
 3285WAT     H110097   8.354   0.468   7.946
 3285WAT     H210098   8.508   0.417   7.936
 3286WAT      O10099   5.901   7.865   7.142
 3286WAT     H110100   5.831   7.935   7.124
 3286WAT     H210101   5.985   7.910   7.172
 3287WAT      O10102   9.363   5.316   7.252
 3287WAT     H110103   9.442   5.261   7.277
 3287WAT     H210104   9.303   5.326   7.331
 3288WAT      O10105   6.163   8.305   6.982
 3288WAT     H110106   6.134   8.346   6.896
 3288WAT     H210107   6.240   8.243   6.965
 3289WAT      O10108   7.897   2.347   8.141
 3289WAT     H110109   7.864   2.321   8.232
 3289WAT     H210110   7.918   2.265   8.088
 3290WAT      O10111   4.384   2.910   8.582
 3290WAT     H110112   4.369   2.941   8.676
 3290WAT     H210113   4.392   2.811   8.581
 3291WAT      O10114   0.521   5.823   9.611
 3291WAT     H110115   0.559   5.851   9.522
 3291WAT     H210116   0.596   5.794   9.671
 3292WAT      O10117   3.063   0.337   8.785
 3292WAT     H110118   3.041   0.414   8.845
 3292WAT     H210119   3.092   0.259   8.840
 3293WAT      O10120   0.727   2.700   4.356
 3293WAT     H110121   0.718   2.775   4.421
 3293WAT     H210122   0.663   2.714   4.280
 3294WAT      O10123   9.659   1.683   7.809
 3294WAT     H110124   9.695   1.620   7.740
 3294WAT     H210125   9.679   1.777   7.782
 3295WAT      O10126   1.019   7.330   8.037
 3295WAT     H110127   0.929   7.332   7.993
 3295WAT     H210128   1.033   7.414   8.088
 3296WAT      O10129   6.379   4.132   4.004
 3296WAT     H110130   6.430   4.046   3.993
 3296WAT     H210131   6.375   4.155   4.101
 3297WAT      O10132   1.682   3.456   4.291
 3297WAT     H110133   1.645   3.463   4.198
 3297WAT     H210134   1.782   3.448   4.286
 3298WAT      O10135   1.284   9.315   8.598
 3298WAT     H110136   1.199   9.322   8.649
 3298WAT     H210137   1.319   9.221   8.603
 3299WAT      O10138   0.699   9.776   1.819
 3299WAT     H110139   0.677   9.842   1.747
 3299WAT     H210140   0.776   9.810   1.873
 3300WAT      O10141   7.320   1.622   3.740
 3300WAT     H110142   7.407   1.630   3.692
 3300WAT     H210143   7.326   1.552   3.811
 3301WAT      O10144   4.631   1.362   7.893
 3301WAT     H110145   4.565   1.392   7.962
 3301WAT     H210146   4.723   1.391   7.920
 3302WAT      O10147   1.425   5.271   9.175
 3302WAT     H110148   1.356   5.276   9.102
 3302WAT     H210149   1.467   5.361   9.187
 3303WAT      O10150   3.887   3.538   9.491
 3303WAT     H110151   3.842   3.511   9.576
 3303WAT     H210152   3.973   3.489   9.482
 3304WAT      O10153   8.207   0.552   1.293
 3304WAT     H110154   8.173   0.632   1.342
 3304WAT     H210155   8.135   0.482   1.289
 3305WAT      O10156   5.537   5.740   5.983
 3305WAT     H110157   5.597   5.696   5.916
 3305WAT     H210158   5.454   5.772   5.937
 3306WAT      O10159   6.174   5.603   6.305
 3306WAT     H110160   6.120   5.681   6.337
 3306WAT     H210161   6.132   5.566   6.223
 3307WAT      O10162   1.689   0.736   8.821
 3307WAT     H110163   1.664   0.639   8.825
 3307WAT     H210164   1.623   0.786   8.765
 3308WAT      O10165   9.470   3.040   9.486
 3308WAT     H110166   9.570   3.027   9.487
 3308WAT     H210167   9.445   3.109   9.554
 3309WAT      O10168   7.797   8.906   6.821
 3309WAT     H110169   7.740   8.829   6.849
 3309WAT     H210170   7.891   8.891   6.853
 3310WAT      O10171   9.433   2.703   3.054
 3310WAT     H110172   9.347   2.713   3.004
 3310WAT     H210173   9.497   2.649   2.999
 3311WAT      O10174   3.147   2.116   5.752
 3311WAT     H110175   3.147   2.205   5.707
 3311WAT     H210176   3.241   2.082   5.757
 3312WAT      O10177   4.627   0.998   8.078
 3312WAT     H110178   4.678   1.025   7.997
 3312WAT     H210179   4.590   0.906   8.066
 3313WAT      O10180   6.755   9.416   9.206
 3313WAT     H110181   6.793   9.491   9.151
 3313WAT     H210182   6.670   9.447   9.249
 3314WAT      O10183   4.084   6.959   2.580
 3314WAT     H110184   4.099   6.912   2.666
 3314WAT     H210185   4.117   7.054   2.587
 3315WAT      O10186   9.676   0.086   2.776
 3315WAT     H110187   9.672   0.181   2.745
 3315WAT     H210188   9.678   0.083   2.876
 3316WAT      O10189   1.137   3.163   6.401
 3316WAT     H110190   1.130   3.188   6.498
 3316WAT     H210191   1.077   3.085   6.382
 3317WAT      O10192   6.241   2.636   6.887
 3317WAT     H110193   6.172   2.576   6.926
 3317WAT     H210194   6.290   2.588   6.814
 3318WAT      O10195   7.125   6.883   6.211
 3318WAT     H110196   7.188   6.806   6.223
 3318WAT     H210197   7.041   6.865   6.263
 3319WAT      O10198   1.598   1.197   4.134
 3319WAT     H110199   1.643   1.184   4.223
 3319WAT     H210200   1.649   1.146   4.064
 3320WAT      O10201   9.323   4.366   0.140
 3320WAT     H110202   9.245   4.345   0.200
 3320WAT     H210203   9.408   4.336   0.183
 3321WAT      O10204   4.129   8.843   6.161
 3321WAT     H110205   4.099   8.918   6.101
 3321WAT     H210206   4.186   8.880   6.234
 3322WAT      O10207   5.501   6.743   6.572
 3322WAT     H110208   5.478   6.679   6.498
 3322WAT     H210209   5.455   6.830   6.555
 3323WAT      O10210   0.934   8.244   6.429
 3323WAT     H110211   0.978   8.204   6.349
 3323WAT     H210212   0.848   8.286   6.403
 3324WAT      O10213   8.283   6.891   1.373
 3324WAT     H110214   8.278   6.980   1.419
 3324WAT     H210215   8.310   6.904   1.278
 3325WAT      O10216   3.832   8.201   2.719
 3325WAT     H110217   3.732   8.202   2.715
 3325WAT     H210218   3.862   8.123   2.774
 3326WAT      O10219   1.276   7.224   7.650
 3326WAT     H110220   1.274   7.182   7.741
 3326WAT     H210221   1.183   7.246   7.621
 3327WAT      O10222   5.230   8.040   8.803
 3327WAT     H110223   5.323   8.028   8.837
 3327WAT     H210224   5.187   8.117   8.850
 3328WAT      O10225   4.656   1.461   5.023
 3328WAT     H110226   4.637   1.363   5.035
 3328WAT     H210227   4.590   1.500   4.959
 3329WAT      O10228   3.101   0.617   2.214
 3329WAT     H110229   3.083   0.529   2.170
 3329WAT     H210230   3.196   0.644   2.197
 3330WAT      O10231   0.187   7.645   7.288
 3330WAT     H110232   0.228   7.736   7.286
 3330WAT     H210233   0.110   7.642   7.224
 3331WAT      O10234   2.392   2.841   1.104
 3331WAT     H110235   2.355   2.771   1.164
 3331WAT     H210236   2.411   2.924   1.156
 3332WAT      O10237   9.649   0.514   0.983
 3332WAT     H110238   9.669   0.448   0.910
 3332WAT     H210239   9.728   0.573   0.997
 3333WAT      O10240   8.186   1.412   5.099
 3333WAT     H110241   8.284   1.419   5.082
 3333WAT     H210242   8.167   1.322   5.140
 3334WAT      O10243   1.733   9.778   5.491
 3334WAT     H110244   1.698   9.698   5.441
 3334WAT     H210245   1.736   9.857   5.429
 3335WAT      O10246   7.562   8.767   2.177
 3335WAT     H110247   7.462   8.763   2.177
 3335WAT     H210248   7.592   8.834   2.110
 3336WAT      O10249   6.871   6.501   9.740
 3336WAT     H110250   6.928   6.567   9.789
 3336WAT     H210251   6.899   6.497   9.644
 3337WAT      O10252   9.225   1.686   6.878
 3337WAT     H110253   9.299   1.716   6.818
 3337WAT     H210254   9.143   1.741   6.860
 3338WAT      O10255   1.661   2.515   8.050
 3338WAT     H110256   1.737   2.568   8.088
 3338WAT     H210257   1.659   2.424   8.091
 3339WAT      O10258   8.909   1.618   8.236
 3339WAT     H110259   8.844   1.543   8.236
 3339WAT     H210260   8.915   1.657   8.144
 3340WAT      O10261   9.043   0.654   1.584
 3340WAT     H110262   9.030   0.624   1.679
 3340WAT     H210263   8.960   0.698   1.551
 3341WAT      O10264   3.188   4.535   5.707
 3341WAT     H110265   3.266   4.585   5.743
 3341WAT     H210266   3.214   4.489   5.622
 3342WAT      O10267   6.671   2.491   7.892
 3342WAT     H110268   6.748   2.456   7.839
 3342WAT     H210269   6.622   2.414   7.933
 3343WAT      O10270   2.660   5.312   2.727
 3343WAT     H110271   2.732   5.244   2.711
 3343WAT     H210272   2.582   5.292   2.668
 3344WAT      O10273   7.539   0.303   0.004
 3344WAT     H110274   7.628   0.271   0.036
 3344WAT     H210275   7.527   0.399   0.029
 3345WAT      O10276   2.618   2.443   8.150
 3345WAT     H110277   2.680   2.521   8.147
 3345WAT     H210278   2.555   2.453   8.228
 3346WAT      O10279   4.693   1.334   6.843
 3346WAT     H110280   4.747   1.400   6.895
 3346WAT     H210281   4.749   1.253   6.823
 3347WAT      O10282   7.040   0.723   7.072
 3347WAT     H110283   7.093   0.689   6.994
 3347WAT     H210284   7.096   0.788   7.124
 3348WAT      O10285   5.724   5.496   4.478
 3348WAT     H110286   5.795   5.520   4.544
 3348WAT     H210287   5.742   5.405   4.441
 3349WAT      O10288   0.945   0.344   4.009
 3349WAT     H110289   1.030   0.351   3.956
 3349WAT     H210290   0.920   0.434   4.044
 3350WAT      O10291   6.209   9.732   1.389
 3350WAT     H110292   6.266   9.677   1.328
 3350WAT     H210293   6.156   9.672   1.449
 3351WAT      O10294   1.718   1.078   4.329
 3351WAT     H110295   1.802   1.104   4.282
 3351WAT     H210296   1.729   1.089   4.427
 3352WAT      O10297   0.396   4.480   0.927
 3352WAT     H110298   0.332   4.510   0.998
 3352WAT     H210299   0.489   4.488   0.961
 3353WAT      O10300   8.162   1.003   9.352
 3353WAT     H110301   8.253   0.969   9.329
 3353WAT     H210302   8.168   1.098   9.382
 3354WAT      O10303   1.645   5.647   2.313
 3354WAT     H110304   1.664   5.720   2.378
 3354WAT     H210305   1.574   5.587   2.349
 3355WAT      O10306   8.516   0.326   0.903
 3355WAT     H110307   8.553   0.317   0.995
 3355WAT     H210308   8.484   0.420   0.889
 3356WAT      O10309   9.359   4.252   1.621
 3356WAT     H110310   9.402   4.298   1.543
 3356WAT     H210311   9.306   4.317   1.674
 3357WAT      O10312   2.757   3.176   9.624
 3357WAT     H110313   2.806   3.217   9.547
 3357WAT     H210314   2.803   3.199   9.709
 3358WAT      O10315   0.038   5.110   3.491
 3358WAT     H110316  -0.050   5.099   3.444
 3358WAT     H210317   0.102   5.040   3.460
 3359WAT      O10318   7.908   4.669   1.414
 3359WAT     H110319   7.921   4.723   1.497
 3359WAT     H210320   7.984   4.605   1.403
 3360WAT      O10321   7.653   4.460   4.877
 3360WAT     H110322   7.719   4.450   4.951
 3360WAT     H210323   7.561   4.436   4.910
 3361WAT      O10324   6.199   1.743   3.150
 3361WAT     H110325   6.100   1.726   3.147
 3361WAT     H210326   6.240   1.684   3.220
 3362WAT      O10327   0.962   0.496   3.562
 3362WAT     H110328   0.989   0.403   3.589
 3362WAT     H210329   0.872   0.517   3.601
 3363WAT      O10330   8.923   5.604   9.365
 3363WAT     H110331   8.874   5.517   9.368
 3363WAT     H210332   9.014   5.593   9.404
 3364WAT      O10333   6.491   2.988   4.965
 3364WAT     H110334   6.487   3.059   5.036
 3364WAT     H210335   6.398   2.967   4.934
 3365WAT      O10336   1.322   4.972   4.322
 3365WAT     H110337   1.253   4.929   4.263
 3365WAT     H210338   1.386   5.024   4.266
 3366WAT      O10339   7.428   3.554   4.615
 3366WAT     H110340   7.435   3.464   4.572
 3366WAT     H210341   7.431   3.625   4.545
 3367WAT      O10342   1.223   3.083   7.856
 3367WAT     H110343   1.279   3.163   7.879
 3367WAT     H210344   1.257   3.004   7.907
 3368WAT      O10345   2.419   0.218   3.652
 3368WAT     H110346   2.443   0.252   3.561
 3368WAT     H210347   2.322   0.233   3.669
 3369WAT      O10348   6.107   3.172   0.973
 3369WAT     H110349   6.195   3.220   0.982
 3369WAT     H210350   6.116   3.080   1.011
 3370WAT      O10351   9.030   4.826   3.328
 3370WAT     H110352   9.006   4.756   3.395
 3370WAT     H210353   8.972   4.906   3.342
 3371WAT      O10354   7.332   3.756   5.655
 3371WAT     H110355   7.299   3.694   5.726
 3371WAT     H210356   7.411   3.807   5.690
 3372WAT      O10357   8.350   2.477   0.277
 3372WAT     H110358   8.415   2.405   0.251
 3372WAT     H210359   8.268   2.470   0.221
 3373WAT      O10360   0.836   7.390   3.880
 3373WAT     H110361   0.919   7.335   3.876
 3373WAT     H210362   0.800   7.391   3.973
 3374WAT      O10363   5.111   7.369   1.422
 3374WAT     H110364   5.044   7.438   1.395
 3374WAT     H210365   5.164   7.404   1.499
 3375WAT      O10366   8.364   8.342   7.484
 3375WAT     H110367   8.423   8.348   7.564
 3375WAT     H210368   8.359   8.247   7.453
 3376WAT      O10369   4.214   7.346   4.610
 3376WAT     H110370   4.281   7.275   4.633
 3376WAT     H210371   4.222   7.368   4.512
 3377WAT      O10372   5.965   8.159   2.575
 3377WAT     H110373   5.968   8.109   2.662
 3377WAT     H210374   6.056   8.194   2.554
 3378WAT      O10375   9.310   0.858   9.252
 3378WAT     H110376   9.406   0.876   9.275
 3378WAT     H210377   9.291   0.894   9.161
 3379WAT      O10378   9.369   4.353   4.239
 3379WAT     H110379   9.314   4.410   4.300
 3379WAT     H210380   9.311   4.317   4.166
 3380WAT      O10381   1.243   7.744   8.202
 3380WAT     H110382   1.241   7.769   8.105
 3380WAT     H210383   1.310   7.671   8.216
 3381WAT      O10384   2.049   2.661   4.439
 3381WAT     H110385   2.044   2.675   4.538
 3381WAT     H210386   1.967   2.699   4.396
 3382WAT      O10387   1.626   0.416   9.088
 3382WAT     H110388   1.645   0.436   8.992
 3382WAT     H210389   1.530   0.388   9.098
 3383WAT      O10390   5.912   0.564   6.286
 3383WAT     H110391   5.900   0.481   6.232
 3383WAT     H210392   6.010   0.578   6.304
 3384WAT      O10393   1.436   7.309   9.210
 3384WAT     H110394   1.396   7.400   9.218
 3384WAT     H210395   1.364   7.240   9.210
 3385WAT      O10396   5.906   1.188   0.914
 3385WAT     H110397   5.851   1.199   0.996
 3385WAT     H210398   5.954   1.273   0.894
 3386WAT      O10399   8.687   1.550   3.572
 3386WAT     H110400   8.751   1.552   3.648
 3386WAT     H210401   8.736   1.536   3.487
 3387WAT      O10402   9.202   2.251   1.239
 3387WAT     H110403   9.185   2.321   1.308
 3387WAT     H210404   9.261   2.289   1.167
 3388WAT      O10405   4.933   4.336   1.121
 3388WAT     H110406   5.015   4.278   1.112
 3388WAT     H210407   4.961   4.431   1.132
 3389WAT      O10408   4.585   1.966   4.471
 3389WAT     H110409   4.544   1.913   4.545
 3389WAT     H210410   4.604   1.906   4.394
 3390WAT      O10411   3.702   1.329   8.301
 3390WAT     H110412   3.619   1.354   8.351
 3390WAT     H210413   3.764   1.408   8.297
 3391WAT      O10414   9.532   6.602   9.843
 3391WAT     H110415   9.627   6.631   9.833
 3391WAT     H210416   9.484   6.664   9.906
 3392WAT      O10417   2.169   5.942   6.077
 3392WAT     H110418   2.227   6.022   6.094
 3392WAT     H210419   2.100   5.934   6.148
 3393WAT      O10420   6.663   0.372   2.873
 3393WAT     H110421   6.718   0.394   2.792
 3393WAT     H210422   6.577   0.422   2.869
 3394WAT      O10423   4.315   2.511   2.511
 3394WAT     H110424   4.262   2.569   2.574
 3394WAT     H210425   4.393   2.563   2.476
 3395WAT      O10426   7.482   9.207   8.335
 3395WAT     H110427   7.403   9.204   8.274
 3395WAT     H210428   7.453   9.235   8.427
 3396WAT      O10429   2.125   5.963   9.215
 3396WAT     H110430   2.048   5.905   9.240
 3396WAT     H210431   2.136   6.034   9.284
 3397WAT      O10432   5.927   1.895   0.840
 3397WAT     H110433   5.834   1.918   0.869
 3397WAT     H210434   5.950   1.803   0.871
 3398WAT      O10435   2.840   8.067   2.098
 3398WAT     H110436   2.929   8.024   2.113
 3398WAT     H210437   2.804   8.102   2.185
 3399WAT      O10438   0.869   6.566   2.919
 3399WAT     H110439   0.882   6.477   2.876
 3399WAT     H210440   0.956   6.594   2.961
 3400WAT      O10441   6.126   7.758   1.303
 3400WAT     H110442   6.157   7.773   1.397
 3400WAT     H210443   6.199   7.782   1.240
 3401WAT      O10444   8.583   3.360   3.542
 3401WAT     H110445   8.576   3.386   3.445
 3401WAT     H210446   8.543   3.269   3.555
 3402WAT      O10447   0.740   0.424   8.628
 3402WAT     H110448   0.827   0.389   8.594
 3402WAT     H210449   0.677   0.439   8.552
 3403WAT      O10450   7.424   5.719   5.802
 3403WAT     H110451   7.392   5.630   5.833
 3403WAT     H210452   7.517   5.736   5.836
 3404WAT      O10453   5.976   7.841   9.095
 3404WAT     H110454   6.006   7.768   9.157
 3404WAT     H210455   6.041   7.917   9.100
 3405WAT      O10456   6.457   4.337   6.394
 3405WAT     H110457   6.542   4.313   6.347
 3405WAT     H210458   6.412   4.254   6.425
 3406WAT      O10459   9.761   0.930   9.169
 3406WAT     H110460   9.821   1.009   9.156
 3406WAT     H210461   9.803   0.867   9.235
 3407WAT      O10462   7.271   3.059   8.826
 3407WAT     H110463   7.227   2.989   8.881
 3407WAT     H210464   7.297   3.136   8.884
 3408WAT      O10465   0.252   8.938   3.737
 3408WAT     H110466   0.218   9.031   3.749
 3408WAT     H210467   0.177   8.879   3.707
 3409WAT      O10468   4.937   9.805   6.989
 3409WAT     H110469   4.964   9.822   7.084
 3409WAT     H210470   5.007   9.750   6.944
 3410WAT      O10471   5.337   9.545   5.944
 3410WAT     H110472   5.384   9.505   5.866
 3410WAT     H210473   5.252   9.497   5.961
 3411WAT      O10474   3.170   0.468   7.439
 3411WAT     H110475   3.261   0.432   7.458
 3411WAT     H210476   3.124   0.488   7.526
 3412WAT      O10477   6.057   7.389   2.152
 3412WAT     H110478   6.097   7.407   2.062
 3412WAT     H210479   6.086   7.459   2.216
 3413WAT      O10480   6.274   0.811   8.493
 3413WAT     H110481   6.325   0.845   8.572
 3413WAT     H210482   6.281   0.878   8.418
 3414WAT      O10483   6.457   2.744   0.992
 3414WAT     H110484   6.413   2.759   0.904
 3414WAT     H210485   6.453   2.647   1.016
 3415WAT      O10486   7.282   3.338   4.507
 3415WAT     H110487   7.228   3.313   4.587
 3415WAT     H210488   7.223   3.346   4.427
 3416WAT      O10489   6.935   0.163   7.884
 3416WAT     H110490   6.933   0.065   7.903
 3416WAT     H210491   6.852   0.190   7.835
 3417WAT      O10492   8.126   1.441   7.526
 3417WAT     H110493   8.194   1.475   7.591
 3417WAT     H210494   8.083   1.359   7.562
 3418WAT      O10495   3.801   2.552   0.205
 3418WAT     H110496   3.742   2.485   0.160
 3418WAT     H210497   3.792   2.543   0.304
 3419WAT      O10498   2.458   4.285   8.699
 3419WAT     H110499   2.490   4.370   8.659
 3419WAT     H210500   2.389   4.305   8.770
 3420WAT      O10501   7.195   1.547   5.761
 3420WAT     H110502   7.252   1.482   5.711
 3420WAT     H210503   7.254   1.608   5.814
 3421WAT      O10504   7.023   7.651   5.655
 3421WAT     H110505   7.017   7.747   5.680
 3421WAT     H210506   7.014   7.641   5.555
 3422WAT      O10507   3.897   0.897   6.122
 3422WAT     H110508   3.981   0.909   6.070
 3422WAT     H210509   3.841   0.825   6.081
 3423WAT      O10510   1.231   5.732   7.993
 3423WAT     H110511   1.201   5.785   7.914
 3423WAT     H210512   1.190   5.641   7.990
 3424WAT      O10513   6.778   9.741   1.687
 3424WAT     H110514   6.690   9.768   1.726
 3424WAT     H210515   6.806   9.653   1.727
 3425WAT      O10516   0.134   5.374   5.737
 3425WAT     H110517   0.045   5.418   5.723
 3425WAT     H210518   0.119   5.277   5.757
 3426WAT      O10519   1.570   0.150   4.934
 3426WAT     H110520   1.597   0.100   4.852
 3426WAT     H210521   1.649   0.202   4.968
 3427WAT      O10522   2.008   1.358   0.942
 3427WAT     H110523   1.923   1.406   0.920
 3427WAT     H210524   2.084   1.422   0.942
 3428WAT      O10525   8.568   4.678   9.561
 3428WAT     H110526   8.662   4.681   9.528
 3428WAT     H210527   8.554   4.750   9.629
 3429WAT      O10528   6.073   2.461   8.786
 3429WAT     H110529   6.022   2.386   8.744
 3429WAT     H210530   6.092   2.531   8.717
 3430WAT      O10531   0.065   1.240   2.506
 3430WAT     H110532   0.078   1.188   2.590
 3430WAT     H210533   0.111   1.192   2.431
 3431WAT      O10534   2.905   3.202   2.311
 3431WAT     H110535   2.942   3.113   2.284
 3431WAT     H210536   2.826   3.224   2.253
 3432WAT      O10537   5.283   3.519   6.350
 3432WAT     H110538   5.308   3.436   6.300
 3432WAT     H210539   5.275   3.498   6.447
 3433WAT      O10540   8.349   3.733   8.294
 3433WAT     H110541   8.413   3.779   8.232
 3433WAT     H210542   8.306   3.656   8.247
 3434WAT      O10543   4.001   7.573   5.037
 3434WAT     H110544   4.007   7.501   4.967
 3434WAT     H210545   4.075   7.560   5.103
 3435WAT      O10546   0.602   6.281   2.685
 3435WAT     H110547   0.701   6.292   2.677
 3435WAT     H210548   0.576   6.281   2.782
 3436WAT      O10549   9.447   1.108   7.325
 3436WAT     H110550   9.387   1.089   7.403
 3436WAT     H210551   9.402   1.172   7.263
 3437WAT      O10552   5.231   5.966   2.001
 3437WAT     H110553   5.280   5.989   1.917
 3437WAT     H210554   5.162   6.037   2.019
 3438WAT      O10555   1.794   5.864   9.002
 3438WAT     H110556   1.834   5.871   9.094
 3438WAT     H210557   1.864   5.834   8.938
 3439WAT      O10558   9.354   0.291   0.257
 3439WAT     H110559   9.321   0.376   0.217
 3439WAT     H210560   9.298   0.267   0.336
 3440WAT      O10561   3.947   1.902   8.336
 3440WAT     H110562   3.851   1.906   8.309
 3440WAT     H210563   3.955   1.922   8.433
 3441WAT      O10564   3.585   4.149   1.023
 3441WAT     H110565   3.490   4.178   1.032
 3441WAT     H210566   3.612   4.098   1.105
 3442WAT      O10567   0.420   2.697   4.363
 3442WAT     H110568   0.380   2.787   4.349
 3442WAT     H210569   0.479   2.674   4.286
 3443WAT      O10570   5.605   1.464   8.900
 3443WAT     H110571   5.694   1.468   8.855
 3443WAT     H210572   5.543   1.408   8.845
 3444WAT      O10573   5.240   5.977   6.250
 3444WAT     H110574   5.246   6.068   6.292
 3444WAT     H210575   5.326   5.928   6.264
 3445WAT      O10576   5.241   3.465   4.090
 3445WAT     H110577   5.225   3.402   4.167
 3445WAT     H210578   5.313   3.529   4.115
 3446WAT      O10579   9.645   9.733   2.111
 3446WAT     H110580   9.674   9.647   2.070
 3446WAT     H210581   9.636   9.803   2.041
 3447WAT      O10582   3.800   6.689   7.185
 3447WAT     H110583   3.778   6.602   7.143
 3447WAT     H210584   3.726   6.716   7.248
 3448WAT      O10585   7.352   9.834   2.149
 3448WAT     H110586   7.298   9.852   2.067
 3448WAT     H210587   7.319   9.892   2.224
 3449WAT      O10588   4.541   8.563   7.925
 3449WAT     H110589   4.549   8.662   7.913
 3449WAT     H210590   4.445   8.535   7.916
 3450WAT      O10591   0.984   7.620   8.133
 3450WAT     H110592   1.031   7.700   8.171
 3450WAT     H210593   0.954   7.640   8.039
 3451WAT      O10594   4.887   2.733   9.652
 3451WAT     H110595   4.840   2.646   9.641
 3451WAT     H210596   4.821   2.808   9.646
 3452WAT      O10597   0.085   3.039   1.244
 3452WAT     H110598   0.124   3.013   1.333
 3452WAT     H210599   0.096   2.964   1.179
 3453WAT      O10600   6.219   3.469   8.845
 3453WAT     H110601   6.129   3.427   8.850
 3453WAT     H210602   6.209   3.568   8.835
 3454WAT      O10603   1.716   3.161   9.123
 3454WAT     H110604   1.667   3.160   9.210
 3454WAT     H210605   1.658   3.203   9.053
 3455WAT      O10606   1.046   4.285   5.578
 3455WAT     H110607   1.006   4.368   5.540
 3455WAT     H210608   1.145   4.293   5.581
 3456WAT      O10609   2.372   8.803   1.169
 3456WAT     H110610   2.405   8.727   1.114
 3456WAT     H210611   2.430   8.813   1.250
 3457WAT      O10612   5.112   9.458   1.209
 3457WAT     H110613   5.012   9.456   1.215
 3457WAT     H210614   5.148   9.365   1.222
 3458WAT      O10615   7.097   1.078   1.052
 3458WAT     H110616   7.116   1.125   1.139
 3458WAT     H210617   7.182   1.049   1.010
 3459WAT      O10618   0.699   5.481   8.535
 3459WAT     H110619   0.654   5.407   8.585
 3459WAT     H210620   0.736   5.447   8.449
 3460WAT      O10621   9.703   2.993   5.858
 3460WAT     H110622   9.762   3.070   5.883
 3460WAT     H210623   9.623   3.027   5.809
 3461WAT      O10624   0.851   5.754   6.686
 3461WAT     H110625   0.767   5.737   6.634
 3461WAT     H210626   0.837   5.833   6.746
 3462WAT      O10627   3.656   8.020   2.019
 3462WAT     H110628   3.623   7.973   1.937
 3462WAT     H210629   3.661   8.118   2.001
 3463WAT      O10630   8.478   7.991   1.312
 3463WAT     H110631   8.520   8.012   1.224
 3463WAT     H210632   8.386   8.030   1.316
 3464WAT      O10633   0.942   6.400   8.758
 3464WAT     H110634   0.890   6.400   8.673
 3464WAT     H210635   0.913   6.477   8.815
 3465WAT      O10636   1.552   1.188   6.955
 3465WAT     H110637   1.465   1.228   6.927
 3465WAT     H210638   1.615   1.185   6.877
 3466WAT      O10639   8.861   5.823   6.654
 3466WAT     H110640   8.953   5.855   6.678
 3466WAT     H210641   8.797   5.899   6.655
 3467WAT      O10642   0.563   8.964   1.559
 3467WAT     H110643   0.622   8.931   1.485
 3467WAT     H210644   0.471   8.926   1.548
 3468WAT      O10645   0.115   6.820   6.626
 3468WAT     H110646   0.148   6.725   6.630
 3468WAT     H210647   0.098   6.845   6.531
 3469WAT      O10648   4.660   8.213   0.254
 3469WAT     H110649   4.619   8.288   0.306
 3469WAT     H210650   4.742   8.181   0.301
 3470WAT      O10651   9.153   2.468   6.902
 3470WAT     H110652   9.097   2.397   6.945
 3470WAT     H210653   9.249   2.438   6.901
 3471WAT      O10654   7.683   0.772   1.903
 3471WAT     H110655   7.751   0.840   1.875
 3471WAT     H210656   7.640   0.733   1.822
 3472WAT      O10657   5.455   6.742   1.484
 3472WAT     H110658   5.409   6.676   1.543
 3472WAT     H210659   5.490   6.818   1.539
 3473WAT      O10660   2.820   2.331   9.432
 3473WAT     H110661   2.743   2.392   9.414
 3473WAT     H210662   2.849   2.288   9.346
 3474WAT      O10663   3.544   9.700   2.418
 3474WAT     H110664   3.604   9.764   2.371
 3474WAT     H210665   3.537   9.615   2.365
 3475WAT      O10666   2.333   9.332   2.388
 3475WAT     H110667   2.425   9.333   2.348
 3475WAT     H210668   2.340   9.327   2.488
 3476WAT      O10669   7.986   2.918   2.958
 3476WAT     H110670   8.035   2.932   3.044
 3476WAT     H210671   8.005   2.826   2.924
 3477WAT      O10672   2.553   2.741   6.176
 3477WAT     H110673   2.549   2.762   6.078
 3477WAT     H210674   2.648   2.736   6.205
 3478WAT      O10675   3.180   2.867   4.414
 3478WAT     H110676   3.107   2.906   4.470
 3478WAT     H210677   3.141   2.824   4.332
 3479WAT      O10678   1.384   2.796   5.849
 3479WAT     H110679   1.347   2.740   5.923
 3479WAT     H210680   1.483   2.808   5.862
 3480WAT      O10681   4.136   0.228   4.972
 3480WAT     H110682   4.113   0.131   4.973
 3480WAT     H210683   4.198   0.247   4.897
 3481WAT      O10684   4.509   7.547   5.663
 3481WAT     H110685   4.422   7.595   5.650
 3481WAT     H210686   4.536   7.505   5.576
 3482WAT      O10687   2.606   8.973   4.544
 3482WAT     H110688   2.635   9.050   4.488
 3482WAT     H210689   2.508   8.979   4.562
 3483WAT      O10690   8.565   2.367   7.782
 3483WAT     H110691   8.570   2.443   7.717
 3483WAT     H210692   8.517   2.290   7.741
 3484WAT      O10693   7.635   0.618   8.036
 3484WAT     H110694   7.718   0.642   8.087
 3484WAT     H210695   7.627   0.518   8.031
 3485WAT      O10696   0.449   9.356   3.009
 3485WAT     H110697   0.425   9.260   3.023
 3485WAT     H210698   0.431   9.407   3.093
 3486WAT      O10699   0.399   9.493   3.237
 3486WAT     H110700   0.370   9.589   3.240
 3486WAT     H210701   0.333   9.436   3.285
 3487WAT      O10702   6.504   9.702   6.028
 3487WAT     H110703   6.463   9.679   6.116
 3487WAT     H210704   6.566   9.779   6.040
 3488WAT      O10705   9.733   2.226   6.852
 3488WAT     H110706   9.646   2.204   6.808
 3488WAT     H210707   9.757   2.322   6.833
 3489WAT      O10708   3.711   3.367   3.143
 3489WAT     H110709   3.776   3.382   3.217
 3489WAT     H210710   3.642   3.300   3.172
 3490WAT      O10711   1.136   9.637   9.616
 3490WAT     H110712   1.126   9.585   9.701
 3490WAT     H210713   1.079   9.718   9.619
 3491WAT      O10714   4.589   1.219   4.349
 3491WAT     H110715   4.575   1.243   4.445
 3491WAT     H210716   4.662   1.275   4.311
 3492WAT      O10717   1.986   2.886   7.292
 3492WAT     H110718   1.889   2.893   7.272
 3492WAT     H210719   2.038   2.898   7.207
 3493WAT      O10720   4.179   9.535   2.894
 3493WAT     H110721   4.126   9.519   2.811
 3493WAT     H210722   4.125   9.590   2.958
 3494WAT      O10723   0.766   1.692   1.672
 3494WAT     H110724   0.733   1.605   1.636
 3494WAT     H210725   0.827   1.734   1.604
 3495WAT      O10726   4.138   3.603   4.687
 3495WAT     H110727   4.210   3.578   4.622
 3495WAT     H210728   4.099   3.691   4.661
 3496WAT      O10729   4.647   1.280   6.460
 3496WAT     H110730   4.627   1.374   6.433
 3496WAT     H210731   4.563   1.236   6.493
 3497WAT      O10732   4.456   2.277   5.414
 3497WAT     H110733   4.414   2.328   5.489
 3497WAT     H210734   4.435   2.180   5.424
 3498WAT      O10735   0.138   8.935   5.143
 3498WAT     H110736   0.049   8.917   5.100
 3498WAT     H210737   0.206   8.951   5.071
 3499WAT      O10738   3.288   8.316   1.458
 3499WAT     H110739   3.229   8.276   1.388
 3499WAT     H210740   3.284   8.415   1.452
 3500WAT      O10741   1.000   2.311   2.251
 3500WAT     H110742   0.991   2.349   2.159
 3500WAT     H210743   1.048   2.376   2.310
 3501WAT      O10744   3.271   1.651   7.644
 3501WAT     H110745   3.273   1.704   7.729
 3501WAT     H210746   3.183   1.605   7.636
 3502WAT      O10747   4.283   3.270   5.568
 3502WAT     H110748   4.280   3.184   5.517
 3502WAT     H210749   4.294   3.346   5.505
 3503WAT      O10750   2.762   6.828   4.703
 3503WAT     H110751   2.801   6.866   4.619
 3503WAT     H210752   2.791   6.883   4.782
 3504WAT      O10753   3.651   4.623   3.517
 3504WAT     H110754   3.704   4.561   3.575
 3504WAT     H210755   3.683   4.716   3.531
 3505WAT      O10756   2.158   8.712   7.643
 3505WAT     H110757   2.156   8.731   7.545
 3505WAT     H210758   2.207   8.785   7.691
 3506WAT      O10759   6.907   5.081   1.824
 3506WAT     H110760   6.907   5.166   1.772
 3506WAT     H210761   6.910   5.003   1.762
 3507WAT      O10762   7.066   8.999   1.495
 3507WAT     H110763   7.136   9.008   1.423
 3507WAT     H210764   6.977   8.985   1.452
 3508WAT      O10765   7.446   9.321   0.467
 3508WAT     H110766   7.533   9.302   0.512
 3508WAT     H210767   7.372   9.281   0.521
 3509WAT      O10768   8.860   4.714   6.208
 3509WAT     H110769   8.764   4.685   6.207
 3509WAT     H210770   8.893   4.718   6.302
 3510WAT      O10771   4.334   1.154   4.258
 3510WAT     H110772   4.433   1.165   4.267
 3510WAT     H210773   4.295   1.133   4.348
 3511WAT      O10774   3.894   6.791   4.163
 3511WAT     H110775   3.993   6.807   4.172
 3511WAT     H210776   3.875   6.693   4.173
 3512WAT      O10777   8.709   9.261   2.973
 3512WAT     H110778   8.683   9.269   3.069
 3512WAT     H210779   8.662   9.332   2.920
 3513WAT      O10780   1.427   3.841   7.456
 3513WAT     H110781   1.336   3.852   7.496
 3513WAT     H210782   1.479   3.773   7.507
 3514WAT      O10783   4.739   8.611   5.983
 3514WAT     H110784   4.716   8.514   5.977
 3514WAT     H210785   4.838   8.622   5.973
 3515WAT      O10786   1.593   8.988   3.864
 3515WAT     H110787   1.691   8.965   3.868
 3515WAT     H210788   1.543   8.932   3.930
 3516WAT      O10789   1.658   4.061   3.041
 3516WAT     H110790   1.673   4.112   2.956
 3516WAT     H210791   1.639   4.126   3.115
 3517WAT      O10792   3.628   3.579   0.153
 3517WAT     H110793   3.580   3.657   0.114
 3517WAT     H210794   3.581   3.494   0.130
 3518WAT      O10795   7.101   2.502   7.992
 3518WAT     H110796   7.062   2.436   8.056
 3518WAT     H210797   7.033   2.573   7.972
 3519WAT      O10798   2.164   9.136   9.201
 3519WAT     H110799   2.102   9.200   9.247
 3519WAT     H210800   2.252   9.135   9.249
 3520WAT      O10801   8.408   1.562   7.029
 3520WAT     H110802   8.372   1.570   7.122
 3520WAT     H210803   8.506   1.543   7.032
 3521WAT      O10804   0.606   9.401   9.894
 3521WAT     H110805   0.575   9.333   9.828
 3521WAT     H210806   0.706   9.411   9.888
 3522WAT      O10807   8.823   6.135   7.868
 3522WAT     H110808   8.828   6.123   7.967
 3522WAT     H210809   8.866   6.058   7.822
 3523WAT      O10810   7.648   9.765   1.649
 3523WAT     H110811   7.588   9.786   1.726
 3523WAT     H210812   7.610   9.690   1.595
 3524WAT      O10813   2.202   3.745   4.260
 3524WAT     H110814   2.260   3.739   4.180
 3524WAT     H210815   2.255   3.777   4.338
 3525WAT      O10816   0.680   7.091   7.180
 3525WAT     H110817   0.621   7.168   7.154
 3525WAT     H210818   0.630   7.006   7.167
 3526WAT      O10819   7.641   3.472   5.139
 3526WAT     H110820   7.738   3.465   5.163
 3526WAT     H210821   7.630   3.451   5.042
 3527WAT      O10822   3.308   7.244   7.824
 3527WAT     H110823   3.340   7.179   7.893
 3527WAT     H210824   3.243   7.307   7.867
 3528WAT      O10825   5.119   0.486   8.313
 3528WAT     H110826   5.179   0.505   8.391
 3528WAT     H210827   5.025   0.477   8.344
 3529WAT      O10828   7.027   2.260   2.623
 3529WAT     H110829   7.041   2.161   2.617
 3529WAT     H210830   7.048   2.302   2.534
 3530WAT      O10831   4.896   2.474   7.778
 3530WAT     H110832   4.867   2.551   7.721
 3530WAT     H210833   4.820   2.445   7.837
 3531WAT      O10834   3.378   8.378   7.700
 3531WAT     H110835   3.379   8.434   7.783
 3531WAT     H210836   3.300   8.404   7.643
 3532WAT      O10837   4.547   4.514   3.732
 3532WAT     H110838   4.590   4.552   3.814
 3532WAT     H210839   4.493   4.585   3.687
 3533WAT      O10840   2.671   5.295   6.188
 3533WAT     H110841   2.591   5.272   6.133
 3533WAT     H210842   2.652   5.274   6.284
 3534WAT      O10843   6.198   7.786   9.405
 3534WAT     H110844   6.189   7.873   9.453
 3534WAT     H210845   6.108   7.746   9.390
 3535WAT      O10846   0.884   6.317   5.182
 3535WAT     H110847   0.844   6.349   5.096
 3535WAT     H210848   0.812   6.284   5.243
 3536WAT      O10849   0.311   9.773   4.759
 3536WAT     H110850   0.292   9.737   4.667
 3536WAT     H210851   0.362   9.704   4.811
 3537WAT      O10852   4.391   9.269   0.610
 3537WAT     H110853   4.415   9.190   0.667
 3537WAT     H210854   4.388   9.241   0.514
 3538WAT      O10855   2.558   1.461   5.897
 3538WAT     H110856   2.468   1.418   5.906
 3538WAT     H210857   2.622   1.395   5.858
 3539WAT      O10858   4.066   6.248   2.102
 3539WAT     H110859   4.002   6.303   2.155
 3539WAT     H210860   4.095   6.299   2.020
 3540WAT      O10861   9.466   2.539   8.472
 3540WAT     H110862   9.467   2.583   8.562
 3540WAT     H210863   9.556   2.499   8.454
 3541WAT      O10864   6.172   5.356   9.061
 3541WAT     H110865   6.224   5.290   9.116
 3541WAT     H210866   6.086   5.315   9.033
 3542WAT      O10867   0.100   9.018   9.372
 3542WAT     H110868   0.157   8.978   9.300
 3542WAT     H210869   0.146   9.098   9.411
 3543WAT      O10870   9.086   8.272   3.946
 3543WAT     H110871   9.137   8.334   4.006
 3543WAT     H210872   9.145   8.241   3.873
 3544WAT      O10873   7.178   2.226   7.981
 3544WAT     H110874   7.243   2.156   7.954
 3544WAT     H210875   7.207   2.314   7.943
 3545WAT      O10876   1.724   1.256   9.709
 3545WAT     H110877   1.742   1.347   9.672
 3545WAT     H210878   1.782   1.189   9.661
 3546WAT      O10879   9.730   1.488   8.948
 3546WAT     H110880   9.695   1.542   9.024
 3546WAT     H210881   9.665   1.490   8.873
 3547WAT      O10882   0.159   2.712   8.001
 3547WAT     H110883   0.253   2.743   8.015
 3547WAT     H210884   0.113   2.772   7.936
 3548WAT      O10885   9.581   4.730   7.092
 3548WAT     H110886   9.558   4.797   7.021
 3548WAT     H210887   9.678   4.708   7.087
 3549WAT      O10888   7.016   5.132   6.241
 3549WAT     H110889   6.934   5.083   6.214
 3549WAT     H210890   7.034   5.205   6.176
 3550WAT      O10891   8.320   2.300   7.362
 3550WAT     H110892   8.265   2.337   7.287
 3550WAT     H210893   8.283   2.330   7.450
 3551WAT      O10894   7.255   6.648   5.634
 3551WAT     H110895   7.282   6.649   5.537
 3551WAT     H210896   7.233   6.740   5.663
 3552WAT      O10897   1.993   1.973   1.029
 3552WAT     H110898   2.034   2.050   0.980
 3552WAT     H210899   1.917   1.937   0.975
 3553WAT      O10900   5.756   6.991   1.823
 3553WAT     H110901   5.785   6.972   1.730
 3553WAT     H210902   5.698   6.916   1.857
 3554WAT      O10903   3.520   5.278   6.891
 3554WAT     H110904   3.455   5.252   6.820
 3554WAT     H210905   3.509   5.217   6.970
 3555WAT      O10906   9.547   8.537   1.454
 3555WAT     H110907   9.463   8.526   1.506
 3555WAT     H210908   9.548   8.628   1.411
 3556WAT      O10909   3.284   6.617   8.422
 3556WAT     H110910   3.330   6.680   8.485
 3556WAT     H210911   3.285   6.525   8.460
 3557WAT      O10912   0.313   5.885   1.535
 3557WAT     H110913   0.338   5.889   1.631
 3557WAT     H210914   0.213   5.887   1.526
 3558WAT      O10915   4.565   7.284   4.822
 3558WAT     H110916   4.481   7.243   4.787
 3558WAT     H210917   4.568   7.273   4.921
 3559WAT      O10918   2.101   0.078   3.686
 3559WAT     H110919   2.087   0.157   3.626
 3559WAT     H210920   2.024   0.071   3.750
 3560WAT      O10921   0.083   3.127   6.756
 3560WAT     H110922   0.160   3.108   6.695
 3560WAT     H210923   0.075   3.225   6.771
 3561WAT      O10924   6.096   9.422   6.907
 3561WAT     H110925   6.038   9.450   6.983
 3561WAT     H210926   6.039   9.394   6.830
 3562WAT      O10927   5.117   0.232   5.129
 3562WAT     H110928   5.170   0.232   5.044
 3562WAT     H210929   5.068   0.145   5.138
 3563WAT      O10930   8.405   1.043   4.092
 3563WAT     H110931   8.470   1.097   4.145
 3563WAT     H210932   8.430   0.946   4.096
 3564WAT      O10933   0.054   8.459   1.709
 3564WAT     H110934   0.009   8.444   1.621
 3564WAT     H210935   0.123   8.388   1.723
 3565WAT      O10936   2.735   2.641   9.202
 3565WAT     H110937   2.670   2.600   9.138
 3565WAT     H210938   2.731   2.593   9.289
 3566WAT      O10939   0.457   1.744   6.970
 3566WAT     H110940   0.450   1.814   6.899
 3566WAT     H210941   0.366   1.708   6.991
 3567WAT      O10942   0.158   2.036   6.555
 3567WAT     H110943   0.187   1.981   6.476
 3567WAT     H210944   0.178   1.986   6.639
 3568WAT      O10945   7.068   3.966   8.428
 3568WAT     H110946   7.139   4.002   8.489
 3568WAT     H210947   6.983   3.953   8.480
 3569WAT      O10948   7.175   3.476   7.604
 3569WAT     H110949   7.266   3.465   7.566
 3569WAT     H210950   7.155   3.574   7.615
 3570WAT      O10951   5.890   1.097   0.012
 3570WAT     H110952   5.892   1.029  -0.061
 3570WAT     H210953   5.982   1.112   0.047
 3571WAT      O10954   5.021   0.441   7.309
 3571WAT     H110955   5.065   0.428   7.220
 3571WAT     H210956   4.951   0.371   7.322
 3572WAT      O10957   4.950   8.389   3.774
 3572WAT     H110958   5.041   8.409   3.810
 3572WAT     H210959   4.881   8.433   3.831
 3573WAT      O10960   8.047   4.710   8.909
 3573WAT     H110961   7.966   4.767   8.926
 3573WAT     H210962   8.123   4.744   8.965
 3574WAT      O10963   0.455   7.619   1.207
 3574WAT     H110964   0.503   7.603   1.293
 3574WAT     H210965   0.414   7.711   1.208
 3575WAT      O10966   8.341   5.814   8.025
 3575WAT     H110967   8.441   5.818   8.030
 3575WAT     H210968   8.303   5.900   8.060
 3576WAT      O10969   1.044   2.813   4.661
 3576WAT     H110970   1.011   2.805   4.755
 3576WAT     H210971   0.988   2.756   4.601
 3577WAT      O10972   3.835   7.049   3.065
 3577WAT     H110973   3.931   7.043   3.040
 3577WAT     H210974   3.824   7.028   3.162
 3578WAT      O10975   0.899   4.470   0.700
 3578WAT     H110976   0.952   4.507   0.776
 3578WAT     H210977   0.936   4.503   0.614
 3579WAT      O10978   7.991   6.516   4.725
 3579WAT     H110979   8.021   6.607   4.754
 3579WAT     H210980   7.891   6.510   4.730
 3580WAT      O10981   2.151   0.076   8.468
 3580WAT     H110982   2.227   0.142   8.467
 3580WAT     H210983   2.115   0.066   8.375
 3581WAT      O10984   3.460   2.305   6.793
 3581WAT     H110985   3.464   2.392   6.842
 3581WAT     H210986   3.546   2.290   6.744
 3582WAT      O10987   4.746   1.814   3.117
 3582WAT     H110988   4.822   1.757   3.150
 3582WAT     H210989   4.687   1.760   3.057
 3583WAT      O10990   6.427   7.391   8.800
 3583WAT     H110991   6.357   7.343   8.747
 3583WAT     H210992   6.433   7.350   8.891
 3584WAT      O10993   0.874   2.794   1.497
 3584WAT     H110994   0.948   2.827   1.438
 3584WAT     H210995   0.912   2.728   1.562
 3585WAT      O10996   2.649   7.007   7.527
 3585WAT     H110997   2.550   7.011   7.542
 3585WAT     H210998   2.673   6.920   7.484
 3586WAT      O10999   3.658   6.813   2.269
 3586WAT     H111000   3.665   6.754   2.349
 3586WAT     H211001   3.561   6.824   2.244
 3587WAT      O11002   2.729   2.402   0.620
 3587WAT     H111003   2.790   2.322   0.616
 3587WAT     H211004   2.697   2.423   0.528
 3588WAT      O11005   2.477   9.228   0.141
 3588WAT     H111006   2.480   9.328   0.141
 3588WAT     H211007   2.385   9.197   0.119
 3589WAT      O11008   4.615   1.178   9.584
 3589WAT     H111009   4.515   1.172   9.588
 3589WAT     H211010   4.643   1.270   9.612
 3590WAT      O11011   1.840   5.137   4.200
 3590WAT     H111012   1.916   5.202   4.201
 3590WAT     H211013   1.761   5.178   4.247
 3591WAT      O11014   8.582   1.285   1.808
 3591WAT     H111015   8.668   1.333   1.793
 3591WAT     H211016   8.595   1.187   1.790
 3592WAT      O11017   7.953   7.315   4.206
 3592WAT     H111018   7.993   7.246   4.266
 3592WAT     H211019   7.941   7.277   4.115
 3593WAT      O11020   4.340   9.130   7.364
 3593WAT     H111021   4.299   9.141   7.455
 3593WAT     H211022   4.269   9.136   7.294
 3594WAT      O11023   9.702   1.767   2.106
 3594WAT     H111024   9.790   1.805   2.077
 3594WAT     H211025   9.655   1.728   2.027
 3595WAT      O11026   3.507   8.654   8.985
 3595WAT     H111027   3.527   8.682   8.891
 3595WAT     H211028   3.524   8.730   9.047
 3596WAT      O11029   8.661   2.109   4.107
 3596WAT     H111030   8.599   2.041   4.069
 3596WAT     H211031   8.739   2.063   4.151
 3597WAT      O11032   4.016   7.973   7.225
 3597WAT     H111033   4.110   7.955   7.197
 3597WAT     H211034   4.006   7.960   7.323
 3598WAT      O11035   9.004   0.136   8.935
 3598WAT     H111036   9.014   0.041   8.963
 3598WAT     H211037   8.952   0.140   8.850
 3599WAT      O11038   4.558   8.379   9.449
 3599WAT     H111039   4.559   8.339   9.540
 3599WAT     H211040   4.499   8.460   9.449
 3600WAT      O11041   9.125   5.829   8.937
 3600WAT     H111042   9.097   5.776   8.857
 3600WAT     H211043   9.063   5.811   9.012
 3601WAT      O11044   3.868   3.080   4.018
 3601WAT     H111045   3.849   3.089   4.115
 3601WAT     H211046   3.790   3.037   3.972
 3602WAT      O11047   6.551   0.294   4.324
 3602WAT     H111048   6.457   0.281   4.291
 3602WAT     H211049   6.613   0.237   4.271
 3603WAT      O11050   5.235   4.842   6.366
 3603WAT     H111051   5.141   4.834   6.333
 3603WAT     H211052   5.277   4.751   6.368
 3604WAT      O11053   6.965   4.088   6.992
 3604WAT     H111054   7.059   4.123   6.991
 3604WAT     H211055   6.915   4.129   7.068
 3605WAT      O11056   5.929   8.402   7.341
 3605WAT     H111057   5.994   8.395   7.417
 3605WAT     H211058   5.955   8.338   7.269
 3606WAT      O11059   5.928   0.425   1.789
 3606WAT     H111060   5.949   0.459   1.697
 3606WAT     H211061   5.988   0.471   1.855
 3607WAT      O11062   7.372   6.988   6.219
 3607WAT     H111063   7.414   7.033   6.141
 3607WAT     H211064   7.279   6.960   6.195
 3608WAT      O11065   4.765   8.663   8.910
 3608WAT     H111066   4.695   8.595   8.890
 3608WAT     H211067   4.795   8.706   8.825
 3609WAT      O11068   6.774   1.533   5.896
 3609WAT     H111069   6.822   1.455   5.854
 3609WAT     H211070   6.678   1.509   5.909
 3610WAT      O11071   7.052   9.405   7.735
 3610WAT     H111072   7.134   9.462   7.741
 3610WAT     H211073   7.039   9.373   7.641
 3611WAT      O11074   5.749   3.178   1.893
 3611WAT     H111075   5.742   3.241   1.815
 3611WAT     H211076   5.668   3.120   1.896
 3612WAT      O11077   0.235   6.936   1.296
 3612WAT     H111078   0.335   6.940   1.291
 3612WAT     H211079   0.206   6.842   1.315
 3613WAT      O11080   1.010   8.461   6.595
 3613WAT     H111081   0.997   8.396   6.520
 3613WAT     H211082   0.926   8.513   6.609
 3614WAT      O11083   4.909   8.448   9.816
 3614WAT     H111084   4.865   8.368   9.774
 3614WAT     H211085   4.979   8.418   9.880
 3615WAT      O11086   0.998   3.406   3.580
 3615WAT     H111087   1.061   3.351   3.635
 3615WAT     H211088   1.038   3.420   3.489
 3616WAT      O11089   1.890   7.467   5.246
 3616WAT     H111090   1.927   7.457   5.154
 3616WAT     H211091   1.889   7.378   5.291
 3617WAT      O11092   6.349   8.673   0.544
 3617WAT     H111093   6.302   8.740   0.602
 3617WAT     H211094   6.292   8.592   0.533
 3618WAT      O11095   2.572   2.897   7.325
 3618WAT     H111096   2.540   2.951   7.247
 3618WAT     H211097   2.534   2.805   7.320
 3619WAT      O11098   2.569   9.307   2.260
 3619WAT     H111099   2.573   9.384   2.196
 3619WAT     H211100   2.619   9.229   2.222
 3620WAT      O11101   0.407   4.542   5.307
 3620WAT     H111102   0.367   4.554   5.216
 3620WAT     H211103   0.381   4.452   5.343
 3621WAT      O11104   7.364   3.644   1.432
 3621WAT     H111105   7.324   3.705   1.500
 3621WAT     H211106   7.464   3.649   1.438
 3622WAT      O11107   3.991   1.512   0.429
 3622WAT     H111108   4.013   1.601   0.387
 3622WAT     H211109   3.970   1.446   0.357
 3623WAT      O11110   4.903   1.486   0.603
 3623WAT     H111111   4.833   1.498   0.674
 3623WAT     H211112   4.971   1.558   0.611
 3624WAT      O11113   9.520   1.779   9.499
 3624WAT     H111114   9.614   1.792   9.469
 3624WAT     H211115   9.475   1.867   9.508
 3625WAT      O11116   5.287   9.309   2.401
 3625WAT     H111117   5.268   9.347   2.491
 3625WAT     H211118   5.321   9.215   2.411
 3626WAT      O11119   1.500   4.080   1.105
 3626WAT     H111120   1.565   4.062   1.179
 3626WAT     H211121   1.459   3.994   1.075
 3627WAT      O11122   4.129   7.530   6.200
 3627WAT     H111123   4.228   7.530   6.185
 3627WAT     H211124   4.082   7.517   6.113
 3628WAT      O11125   8.888   8.186   2.769
 3628WAT     H111126   8.863   8.138   2.685
 3628WAT     H211127   8.949   8.128   2.823
 3629WAT      O11128   6.439   0.382   9.525
 3629WAT     H111129   6.478   0.471   9.546
 3629WAT     H211130   6.368   0.392   9.455
 3630WAT      O11131   4.125   5.907   2.778
 3630WAT     H111132   4.183   5.840   2.731
 3630WAT     H211133   4.160   5.922   2.870
 3631WAT      O11134   2.169   1.092   2.189
 3631WAT     H111135   2.240   1.162   2.189
 3631WAT     H211136   2.198   1.015   2.132
 3632WAT      O11137   8.350   9.137   9.519
 3632WAT     H111138   8.442   9.100   9.513
 3632WAT     H211139   8.342   9.194   9.601
 3633WAT      O11140   7.736   5.106   8.750
 3633WAT     H111141   7.769   5.066   8.665
 3633WAT     H211142   7.730   5.205   8.740
 3634WAT      O11143   9.695   0.397   0.316
 3634WAT     H111144   9.653   0.330   0.254
 3634WAT     H211145   9.649   0.485   0.305
 3635WAT      O11146   1.964   1.142   8.304
 3635WAT     H111147   1.981   1.233   8.343
 3635WAT     H211148   2.042   1.116   8.247
 3636WAT      O11149   5.097   2.171   0.520
 3636WAT     H111150   5.115   2.096   0.584
 3636WAT     H211151   5.184   2.213   0.493
 3637WAT      O11152   5.470   6.818   4.107
 3637WAT     H111153   5.529   6.823   4.026
 3637WAT     H211154   5.469   6.907   4.152
 3638WAT      O11155   0.365   2.838   3.980
 3638WAT     H111156   0.350   2.748   3.939
 3638WAT     H211157   0.283   2.865   4.031
 3639WAT      O11158   9.265   0.644   8.680
 3639WAT     H111159   9.293   0.661   8.585
 3639WAT     H211160   9.199   0.569   8.683
 3640WAT      O11161   3.428   5.870   2.102
 3640WAT     H111162   3.368   5.918   2.038
 3640WAT     H211163   3.521   5.906   2.094
 3641WAT      O11164   8.250   2.195   0.999
 3641WAT     H111165   8.266   2.186   0.900
 3641WAT     H211166   8.274   2.109   1.045
 3642WAT      O11167   8.953   0.241   6.388
 3642WAT     H111168   9.032   0.261   6.332
 3642WAT     H211169   8.959   0.147   6.422
 3643WAT      O11170   2.044   0.887   4.704
 3643WAT     H111171   2.049   0.797   4.747
 3643WAT     H211172   1.962   0.935   4.736
 3644WAT      O11173   2.379   5.918   5.329
 3644WAT     H111174   2.383   5.821   5.308
 3644WAT     H211175   2.374   5.971   5.244
 3645WAT      O11176   9.351   8.288   1.798
 3645WAT     H111177   9.380   8.198   1.766
 3645WAT     H211178   9.410   8.316   1.874
 3646WAT      O11179   6.673   1.882   8.892
 3646WAT     H111180   6.709   1.922   8.976
 3646WAT     H211181   6.655   1.954   8.825
 3647WAT      O11182   6.660   5.458   2.923
 3647WAT     H111183   6.593   5.472   2.850
 3647WAT     H211184   6.636   5.515   3.001
 3648WAT      O11185   6.278   3.876   0.298
 3648WAT     H111186   6.300   3.845   0.205
 3648WAT     H211187   6.243   3.799   0.351
 3649WAT      O11188   8.130   2.939   9.302
 3649WAT     H111189   8.144   2.911   9.207
 3649WAT     H211190   8.218   2.966   9.342
 3650WAT      O11191   2.202   3.516   5.436
 3650WAT     H111192   2.161   3.515   5.528
 3650WAT     H211193   2.260   3.597   5.427
 3651WAT      O11194   3.077   0.486   7.709
 3651WAT     H111195   2.979   0.501   7.721
 3651WAT     H211196   3.105   0.406   7.762
 3652WAT      O11197   0.472   3.831   9.636
 3652WAT     H111198   0.401   3.798   9.699
 3652WAT     H211199   0.479   3.768   9.559
 3653WAT      O11200   5.235   4.377   6.948
 3653WAT     H111201   5.332   4.364   6.968
 3653WAT     H211202   5.209   4.321   6.870
 3654WAT      O11203   4.634   4.343   7.369
 3654WAT     H111204   4.723   4.304   7.394
 3654WAT     H211205   4.606   4.307   7.280
 3655WAT      O11206   5.542   3.041   2.647
 3655WAT     H111207   5.585   2.962   2.602
 3655WAT     H211208   5.480   3.086   2.582
 3656WAT      O11209   3.042   8.506   1.581
 3656WAT     H111210   2.951   8.469   1.595
 3656WAT     H211211   3.109   8.447   1.626
 3657WAT      O11212   0.381   5.611   9.626
 3657WAT     H111213   0.420   5.543   9.564
 3657WAT     H211214   0.433   5.696   9.620
 3658WAT      O11215   5.963   0.813   1.548
 3658WAT     H111216   5.880   0.850   1.590
 3658WAT     H211217   5.993   0.873   1.474
 3659WAT      O11218   3.955   2.703   7.457
 3659WAT     H111219   3.865   2.723   7.417
 3659WAT     H211220   3.943   2.666   7.549
 3660WAT      O11221   6.693   6.884   6.245
 3660WAT     H111222   6.620   6.839   6.296
 3660WAT     H211223   6.764   6.914   6.309
 3661WAT      O11224   9.573   4.007   1.394
 3661WAT     H111225   9.631   4.057   1.459
 3661WAT     H211226   9.519   3.939   1.443
 3662WAT      O11227   1.659   7.198   4.788
 3662WAT     H111228   1.648   7.291   4.754
 3662WAT     H211229   1.756   7.180   4.804
 3663WAT      O11230   5.611   0.863   9.687
 3663WAT     H111231   5.709   0.880   9.699
 3663WAT     H211232   5.567   0.852   9.776
 3664WAT      O11233   6.599   0.883   7.730
 3664WAT     H111234   6.666   0.856   7.661
 3664WAT     H211235   6.592   0.983   7.732
 3665WAT      O11236   6.915   0.544   6.694
 3665WAT     H111237   6.825   0.573   6.661
 3665WAT     H211238   6.922   0.444   6.691
 3666WAT      O11239   0.518   0.206   1.809
 3666WAT     H111240   0.612   0.234   1.830
 3666WAT     H211241   0.520   0.139   1.734
 3667WAT      O11242   0.351   7.790   5.227
 3667WAT     H111243   0.292   7.722   5.270
 3667WAT     H211244   0.406   7.836   5.296
 3668WAT      O11245   7.778   0.459   7.237
 3668WAT     H111246   7.847   0.492   7.302
 3668WAT     H211247   7.687   0.471   7.277
 3669WAT      O11248   4.688   7.888   2.944
 3669WAT     H111249   4.601   7.889   2.992
 3669WAT     H211250   4.701   7.975   2.896
 3670WAT      O11251   6.435   4.853   8.505
 3670WAT     H111252   6.497   4.822   8.578
 3670WAT     H211253   6.365   4.784   8.490
 3671WAT      O11254   2.096   7.671   8.776
 3671WAT     H111255   2.005   7.636   8.754
 3671WAT     H211256   2.089   7.731   8.856
 3672WAT      O11257   4.464   7.902   5.434
 3672WAT     H111258   4.403   7.918   5.357
 3672WAT     H211259   4.555   7.940   5.414
 3673WAT      O11260   9.791   0.425   4.645
 3673WAT     H111261   9.874   0.368   4.644
 3673WAT     H211262   9.730   0.392   4.717
 3674WAT      O11263   4.397   8.052   2.762
 3674WAT     H111264   4.416   8.041   2.860
 3674WAT     H211265   4.329   7.985   2.734
 3675WAT      O11266   2.325   8.936   6.499
 3675WAT     H111267   2.378   8.916   6.417
 3675WAT     H211268   2.266   8.858   6.520
 3676WAT      O11269   8.243   1.354   0.668
 3676WAT     H111270   8.188   1.309   0.739
 3676WAT     H211271   8.339   1.354   0.695
 3677WAT      O11272   5.248   0.734   0.567
 3677WAT     H111273   5.278   0.773   0.653
 3677WAT     H211274   5.242   0.806   0.498
 3678WAT      O11275   7.347   6.834   0.537
 3678WAT     H111276   7.367   6.900   0.609
 3678WAT     H211277   7.369   6.742   0.569
 3679WAT      O11278   7.146   5.878   8.394
 3679WAT     H111279   7.146   5.874   8.294
 3679WAT     H211280   7.220   5.939   8.425
 3680WAT      O11281   8.558   7.989   8.483
 3680WAT     H111282   8.490   8.032   8.543
 3680WAT     H211283   8.643   7.974   8.534
 3681WAT      O11284   8.925   1.736   7.960
 3681WAT     H111285   9.006   1.698   7.915
 3681WAT     H211286   8.889   1.811   7.906
 3682WAT      O11287   7.579   4.844   8.826
 3682WAT     H111288   7.538   4.776   8.764
 3682WAT     H211289   7.619   4.917   8.772
 3683WAT      O11290   9.345   6.109   6.906
 3683WAT     H111291   9.246   6.127   6.901
 3683WAT     H211292   9.388   6.136   6.820
 3684WAT      O11293   0.354   8.332   0.511
 3684WAT     H111294   0.352   8.312   0.609
 3684WAT     H211295   0.317   8.253   0.461
 3685WAT      O11296   1.986   1.451   0.187
 3685WAT     H111297   1.922   1.447   0.263
 3685WAT     H211298   2.005   1.358   0.155
 3686WAT      O11299   0.842   1.650   1.967
 3686WAT     H111300   0.837   1.665   1.868
 3686WAT     H211301   0.883   1.730   2.011
 3687WAT      O11302   0.080   8.642   8.995
 3687WAT     H111303  -0.003   8.695   9.013
 3687WAT     H211304   0.075   8.554   9.041
 3688WAT      O11305   2.633   0.660   6.099
 3688WAT     H111306   2.677   0.707   6.023
 3688WAT     H211307   2.564   0.719   6.140
 3689WAT      O11308   2.884   7.339   0.500
 3689WAT     H111309   2.913   7.259   0.552
 3689WAT     H211310   2.798   7.318   0.453
 3690WAT      O11311   5.288   2.418   0.676
 3690WAT     H111312   5.193   2.448   0.678
 3690WAT     H211313   5.308   2.376   0.588
 3691WAT      O11314   5.061   6.402   8.324
 3691WAT     H111315   5.082   6.424   8.229
 3691WAT     H211316   5.136   6.433   8.383
 3692WAT      O11317   7.937   1.166   2.622
 3692WAT     H111318   8.013   1.161   2.557
 3692WAT     H211319   7.913   1.074   2.653
 3693WAT      O11320   7.313   8.025   0.181
 3693WAT     H111321   7.253   8.001   0.104
 3693WAT     H211322   7.277   7.985   0.265
 3694WAT      O11323   5.784   4.057   9.589
 3694WAT     H111324   5.703   4.014   9.549
 3694WAT     H211325   5.757   4.141   9.635
 3695WAT      O11326   2.079   5.645   8.268
 3695WAT     H111327   2.029   5.586   8.205
 3695WAT     H211328   2.068   5.611   8.362
 3696WAT      O11329   0.283   8.915   9.664
 3696WAT     H111330   0.260   8.866   9.580
 3696WAT     H211331   0.216   8.987   9.679
 3697WAT      O11332   0.860   1.256   3.305
 3697WAT     H111333   0.772   1.209   3.294
 3697WAT     H211334   0.911   1.251   3.219
 3698WAT      O11335   6.605   8.486   8.999
 3698WAT     H111336   6.602   8.387   9.002
 3698WAT     H211337   6.555   8.524   9.077
 3699WAT      O11338   0.585   4.107   1.629
 3699WAT     H111339   0.524   4.184   1.647
 3699WAT     H211340   0.550   4.053   1.552
 3700WAT      O11341   3.234   7.214   6.288
 3700WAT     H111342   3.291   7.289   6.256
 3700WAT     H211343   3.266   7.128   6.249
 3701WAT      O11344   1.956   0.461   1.168
 3701WAT     H111345   1.962   0.549   1.215
 3701WAT     H211346   2.034   0.449   1.108
 3702WAT      O11347   2.301   1.056   8.469
 3702WAT     H111348   2.295   1.140   8.523
 3702WAT     H211349   2.363   0.992   8.514
 3703WAT      O11350   4.163   0.709   4.135
 3703WAT     H111351   4.157   0.806   4.113
 3703WAT     H211352   4.251   0.673   4.105
 3704WAT      O11353   0.709   1.934   3.365
 3704WAT     H111354   0.743   1.877   3.290
 3704WAT     H211355   0.621   1.898   3.396
 3705WAT      O11356   7.681   4.781   1.869
 3705WAT     H111357   7.629   4.833   1.937
 3705WAT     H211358   7.628   4.775   1.784
 3706WAT      O11359   6.623   9.047   2.050
 3706WAT     H111360   6.652   9.060   2.146
 3706WAT     H211361   6.672   8.969   2.011
 3707WAT      O11362   1.948   3.957   5.262
 3707WAT     H111363   2.040   3.991   5.243
 3707WAT     H211364   1.930   3.875   5.207
 3708WAT      O11365   2.943   8.400   3.293
 3708WAT     H111366   2.975   8.306   3.296
 3708WAT     H211367   2.996   8.452   3.226
 3709WAT      O11368   3.720   1.047   5.230
 3709WAT     H111369   3.792   0.978   5.242
 3709WAT     H211370   3.757   1.137   5.253
 3710WAT      O11371   7.858   2.128   0.395
 3710WAT     H111372   7.777   2.116   0.452
 3710WAT     H211373   7.854   2.065   0.318
 3711WAT      O11374   3.069   3.441   1.347
 3711WAT     H111375   3.084   3.522   1.292
 3711WAT     H211376   3.134   3.370   1.320
 3712WAT      O11377   5.591   4.962   2.985
 3712WAT     H111378   5.538   5.005   3.058
 3712WAT     H211379   5.542   4.882   2.950
 3713WAT      O11380   8.131   9.085   0.566
 3713WAT     H111381   8.170   8.994   0.581
 3713WAT     H211382   8.032   9.078   0.557
 3714WAT      O11383   3.330   4.718   1.500
 3714WAT     H111384   3.380   4.801   1.473
 3714WAT     H211385   3.256   4.743   1.562
 3715WAT      O11386   0.421   1.878   0.586
 3715WAT     H111387   0.372   1.805   0.539
 3715WAT     H211388   0.453   1.945   0.518
 3716WAT      O11389   0.121   0.782   8.812
 3716WAT     H111390   0.109   0.866   8.864
 3716WAT     H211391   0.053   0.715   8.842
 3717WAT      O11392   8.663   4.597   0.981
 3717WAT     H111393   8.566   4.622   0.978
 3717WAT     H211394   8.719   4.679   0.972
 3718WAT      O11395   7.674   1.457   7.485
 3718WAT     H111396   7.746   1.505   7.435
 3718WAT     H211397   7.626   1.523   7.545
 3719WAT      O11398   0.040   9.528   7.743
 3719WAT     H111399   0.103   9.593   7.701
 3719WAT     H211400   0.008   9.463   7.673
 3720WAT      O11401   8.452   2.272   0.755
 3720WAT     H111402   8.443   2.178   0.723
 3720WAT     H211403   8.410   2.334   0.688
 3721WAT      O11404   0.041   7.722   8.152
 3721WAT     H111405   0.077   7.811   8.178
 3721WAT     H211406   0.114   7.669   8.108
 3722WAT      O11407   0.378   4.280   1.647
 3722WAT     H111408   0.307   4.211   1.660
 3722WAT     H211409   0.394   4.294   1.549
 3723WAT      O11410   9.861   3.031   8.035
 3723WAT     H111411   9.788   3.097   8.016
 3723WAT     H211412   9.948   3.079   8.040
 3724WAT      O11413   1.026   2.055   7.841
 3724WAT     H111414   0.952   2.120   7.825
 3724WAT     H211415   1.003   1.996   7.918
 3725WAT      O11416   3.722   8.243   7.301
 3725WAT     H111417   3.707   8.314   7.371
 3725WAT     H211418   3.800   8.269   7.244
 3726WAT      O11419   6.515   5.732   4.863
 3726WAT     H111420   6.475   5.777   4.784
 3726WAT     H211421   6.568   5.653   4.833
 3727WAT      O11422   1.757   6.745   6.347
 3727WAT     H111423   1.669   6.752   6.394
 3727WAT     H211424   1.831   6.769   6.410
 3728WAT      O11425   9.047   9.530   2.531
 3728WAT     H111426   9.019   9.478   2.612
 3728WAT     H211427   9.015   9.625   2.540
 3729WAT      O11428   9.699   2.435   9.367
 3729WAT     H111429   9.669   2.526   9.340
 3729WAT     H211430   9.716   2.433   9.466
 3730WAT      O11431   9.498   7.307   2.449
 3730WAT     H111432   9.474   7.220   2.492
 3730WAT     H211433   9.428   7.332   2.382
 3731WAT      O11434   2.134   6.593   9.801
 3731WAT     H111435   2.182   6.514   9.839
 3731WAT     H211436   2.164   6.676   9.849
 3732WAT      O11437   0.659   3.416   0.151
 3732WAT     H111438   0.674   3.487   0.220
 3732WAT     H211439   0.662   3.456   0.060
 3733WAT      O11440   0.414   2.795   2.320
 3733WAT     H111441   0.356   2.768   2.243
 3733WAT     H211442   0.369   2.769   2.406
 3734WAT      O11443   1.919   6.273   1.102
 3734WAT     H111444   1.849   6.319   1.157
 3734WAT     H211445   1.902   6.290   1.005
 3735WAT      O11446   1.925   3.866   6.159
 3735WAT     H111447   1.838   3.843   6.201
 3735WAT     H211448   1.995   3.877   6.230
 3736WAT      O11449   8.008   9.743   5.668
 3736WAT     H111450   8.101   9.716   5.646
 3736WAT     H211451   7.962   9.666   5.714
 3737WAT      O11452   5.461   3.920   3.419
 3737WAT     H111453   5.382   3.861   3.402
 3737WAT     H211454   5.524   3.916   3.341
 3738WAT      O11455   1.976   0.166   4.660
 3738WAT     H111456   1.949   0.129   4.571
 3738WAT     H211457   2.058   0.118   4.692
 3739WAT      O11458   6.207   2.692   1.514
 3739WAT     H111459   6.149   2.749   1.455
 3739WAT     H211460   6.259   2.751   1.576
 3740WAT      O11461   1.708   2.104   5.766
 3740WAT     H111462   1.788   2.164   5.774
 3740WAT     H211463   1.710   2.036   5.839
 3741WAT      O11464   2.564   9.250   0.782
 3741WAT     H111465   2.580   9.348   0.795
 3741WAT     H211466   2.647   9.209   0.743
 3742WAT      O11467   4.391   0.611   7.785
 3742WAT     H111468   4.417   0.520   7.817
 3742WAT     H211469   4.292   0.622   7.793
 3743WAT      O11470   4.042   4.184   4.102
 3743WAT     H111471   4.114   4.124   4.067
 3743WAT     H211472   4.084   4.261   4.151
 3744WAT      O11473   8.806   7.154   1.419
 3744WAT     H111474   8.783   7.240   1.375
 3744WAT     H211475   8.746   7.082   1.384
 3745WAT      O11476   7.461   1.679   0.574
 3745WAT     H111477   7.503   1.593   0.546
 3745WAT     H211478   7.419   1.668   0.664
 3746WAT      O11479   6.467   0.759   2.962
 3746WAT     H111480   6.505   0.668   2.952
 3746WAT     H211481   6.497   0.816   2.885
 3747WAT      O11482   7.455   2.726   3.545
 3747WAT     H111483   7.439   2.824   3.551
 3747WAT     H211484   7.464   2.688   3.638
 3748WAT      O11485   3.789   9.143   2.249
 3748WAT     H111486   3.762   9.074   2.182
 3748WAT     H211487   3.713   9.159   2.313
 3749WAT      O11488   4.693   7.743   0.363
 3749WAT     H111489   4.785   7.780   0.378
 3749WAT     H211490   4.682   7.658   0.415
 3750WAT      O11491   8.592   9.786   6.393
 3750WAT     H111492   8.593   9.882   6.421
 3750WAT     H211493   8.623   9.728   6.469
 3751WAT      O11494   0.694   1.530   5.920
 3751WAT     H111495   0.765   1.599   5.913
 3751WAT     H211496   0.673   1.494   5.829
 3752WAT      O11497   9.597   5.161   7.287
 3752WAT     H111498   9.553   5.072   7.275
 3752WAT     H211499   9.647   5.162   7.374
 3753WAT      O11500   2.708   1.461   1.154
 3753WAT     H111501   2.719   1.451   1.055
 3753WAT     H211502   2.612   1.447   1.178
 3754WAT      O11503   4.401   8.379   4.035
 3754WAT     H111504   4.470   8.447   4.061
 3754WAT     H211505   4.338   8.419   3.969
 3755WAT      O11506   3.005   4.924   9.820
 3755WAT     H111507   3.035   4.845   9.874
 3755WAT     H211508   3.065   4.936   9.741
 3756WAT      O11509   7.700   9.712   0.532
 3756WAT     H111510   7.628   9.682   0.595
 3756WAT     H211511   7.667   9.702   0.438
 3757WAT      O11512   4.312   9.630   8.989
 3757WAT     H111513   4.312   9.730   8.991
 3757WAT     H211514   4.256   9.595   9.064
 3758WAT      O11515   8.280   5.337   9.498
 3758WAT     H111516   8.332   5.253   9.514
 3758WAT     H211517   8.284   5.394   9.580
 3759WAT      O11518   5.809   8.726   5.027
 3759WAT     H111519   5.723   8.773   5.005
 3759WAT     H211520   5.839   8.752   5.118
 3760WAT      O11521   8.459   1.356   2.545
 3760WAT     H111522   8.553   1.391   2.548
 3760WAT     H211523   8.456   1.265   2.588
 3761WAT      O11524   0.933   7.186   4.924
 3761WAT     H111525   0.980   7.136   4.851
 3761WAT     H211526   0.876   7.123   4.976
 3762WAT      O11527   4.340   0.125   2.157
 3762WAT     H111528   4.422   0.084   2.115
 3762WAT     H211529   4.363   0.157   2.249
 3763WAT      O11530   6.984   8.467   7.192
 3763WAT     H111531   6.910   8.424   7.139
 3763WAT     H211532   6.986   8.565   7.172
 3764WAT      O11533   7.693   2.878   0.232
 3764WAT     H111534   7.742   2.962   0.209
 3764WAT     H211535   7.672   2.876   0.330
 3765WAT      O11536   7.469   0.022   7.231
 3765WAT     H111537   7.450   0.113   7.193
 3765WAT     H211538   7.429  -0.048   7.171
 3766WAT      O11539   4.633   5.573   8.346
 3766WAT     H111540   4.661   5.608   8.435
 3766WAT     H211541   4.566   5.634   8.305
 3767WAT      O11542   5.553   3.542   2.775
 3767WAT     H111543   5.616   3.497   2.712
 3767WAT     H211544   5.485   3.475   2.808
 3768WAT      O11545   4.845   3.891   2.734
 3768WAT     H111546   4.932   3.877   2.686
 3768WAT     H211547   4.843   3.982   2.775
 3769WAT      O11548   5.403   2.411   4.690
 3769WAT     H111549   5.359   2.492   4.728
 3769WAT     H211550   5.362   2.329   4.729
 3770WAT      O11551   3.682   0.929   6.778
 3770WAT     H111552   3.659   0.884   6.864
 3770WAT     H211553   3.614   1.000   6.759
 3771WAT      O11554   6.642   8.121   5.508
 3771WAT     H111555   6.697   8.205   5.502
 3771WAT     H211556   6.549   8.140   5.478
 3772WAT      O11557   6.460   4.229   3.415
 3772WAT     H111558   6.504   4.139   3.414
 3772WAT     H211559   6.398   4.237   3.337
 3773WAT      O11560   8.005   5.819   5.130
 3773WAT     H111561   7.994   5.916   5.111
 3773WAT     H211562   8.063   5.807   5.210
 3774WAT      O11563   2.186   1.224   0.763
 3774WAT     H111564   2.273   1.199   0.806
 3774WAT     H211565   2.137   1.287   0.822
 3775WAT      O11566   1.103   4.423   8.976
 3775WAT     H111567   1.084   4.469   9.063
 3775WAT     H211568   1.115   4.491   8.904
 3776WAT      O11569   2.329   5.180   8.178
 3776WAT     H111570   2.322   5.126   8.094
 3776WAT     H211571   2.373   5.125   8.249
 3777WAT      O11572   4.607   7.721   9.794
 3777WAT     H111573   4.681   7.713   9.861
 3777WAT     H211574   4.562   7.809   9.805
 3778WAT      O11575   9.792   7.327   5.758
 3778WAT     H111576   9.858   7.364   5.692
 3778WAT     H211577   9.710   7.297   5.710
 3779WAT      O11578   7.867   4.434   7.139
 3779WAT     H111579   7.811   4.420   7.058
 3779WAT     H211580   7.808   4.457   7.217
 3780WAT      O11581   4.404   0.419   3.435
 3780WAT     H111582   4.367   0.460   3.352
 3780WAT     H211583   4.329   0.396   3.497
 3781WAT      O11584   1.948   2.920   1.700
 3781WAT     H111585   1.957   3.016   1.676
 3781WAT     H211586   1.970   2.863   1.621
 3782WAT      O11587   8.833   0.760   6.365
 3782WAT     H111588   8.932   0.773   6.370
 3782WAT     H211589   8.788   0.849   6.372
 3783WAT      O11590   2.494   8.160   0.169
 3783WAT     H111591   2.429   8.100   0.215
 3783WAT     H211592   2.515   8.238   0.228
 3784WAT      O11593   7.033   5.451   1.674
 3784WAT     H111594   6.953   5.418   1.623
 3784WAT     H211595   7.086   5.373   1.707
 3785WAT      O11596   2.788   8.950   6.811
 3785WAT     H111597   2.874   8.984   6.774
 3785WAT     H211598   2.739   8.900   6.740
 3786WAT      O11599   5.853   1.519   5.470
 3786WAT     H111600   5.915   1.528   5.392
 3786WAT     H211601   5.816   1.609   5.494
 3787WAT      O11602   8.913   2.559   2.903
 3787WAT     H111603   8.825   2.539   2.860
 3787WAT     H211604   8.987   2.519   2.848
 3788WAT      O11605   4.237   6.793   2.447
 3788WAT     H111606   4.201   6.784   2.354
 3788WAT     H211607   4.189   6.866   2.495
 3789WAT      O11608   9.577   7.982   0.617
 3789WAT     H111609   9.579   8.082   0.621
 3789WAT     H211610   9.644   7.945   0.681
 3790WAT      O11611   0.698   1.972   8.515
 3790WAT     H111612   0.727   1.885   8.475
 3790WAT     H211613   0.606   1.994   8.481
 3791WAT      O11614   8.511   3.281   2.654
 3791WAT     H111615   8.530   3.190   2.691
 3791WAT     H211616   8.584   3.307   2.591
 3792WAT      O11617   1.536   1.681   7.785
 3792WAT     H111618   1.515   1.773   7.754
 3792WAT     H211619   1.522   1.616   7.710
 3793WAT      O11620   6.778   6.616   4.609
 3793WAT     H111621   6.729   6.544   4.659
 3793WAT     H211622   6.860   6.643   4.660
 3794WAT      O11623   8.342   6.776   6.362
 3794WAT     H111624   8.270   6.843   6.342
 3794WAT     H211625   8.302   6.686   6.376
 3795WAT      O11626   3.946   4.804   4.863
 3795WAT     H111627   3.878   4.876   4.846
 3795WAT     H211628   3.983   4.772   4.776
 3796WAT      O11629   5.288   0.328   4.353
 3796WAT     H111630   5.336   0.387   4.418
 3796WAT     H211631   5.197   0.365   4.335
 3797WAT      O11632   4.589   9.246   7.588
 3797WAT     H111633   4.641   9.312   7.533
 3797WAT     H211634   4.544   9.293   7.664
 3798WAT      O11635   3.483   6.347   7.953
 3798WAT     H111636   3.399   6.396   7.975
 3798WAT     H211637   3.562   6.400   7.987
 3799WAT      O11638   8.043   3.140   9.548
 3799WAT     H111639   8.135   3.115   9.517
 3799WAT     H211640   7.979   3.067   9.524
 3800WAT      O11641   1.224   5.270   3.767
 3800WAT     H111642   1.197   5.350   3.712
 3800WAT     H211643   1.149   5.204   3.766
 3801WAT      O11644   1.276   8.736   7.341
 3801WAT     H111645   1.176   8.736   7.340
 3801WAT     H211646   1.309   8.824   7.306
 3802WAT      O11647   3.630   1.276   3.884
 3802WAT     H111648   3.637   1.188   3.930
 3802WAT     H211649   3.595   1.263   3.791
 3803WAT      O11650   5.931   4.821   2.324
 3803WAT     H111651   5.978   4.825   2.412
 3803WAT     H211652   5.994   4.787   2.254
 3804WAT      O11653   4.601   1.695   4.018
 3804WAT     H111654   4.610   1.760   3.943
 3804WAT     H211655   4.524   1.721   4.076
 3805WAT      O11656   2.590   5.956   6.163
 3805WAT     H111657   2.664   6.000   6.112
 3805WAT     H211658   2.502   5.977   6.119
 3806WAT      O11659   1.217   6.025   4.433
 3806WAT     H111660   1.129   6.055   4.398
 3806WAT     H211661   1.232   6.063   4.524
 3807WAT      O11662   3.131   8.462   3.044
 3807WAT     H111663   3.174   8.533   3.099
 3807WAT     H211664   3.199   8.423   2.981
 3808WAT      O11665   6.514   0.102   3.957
 3808WAT     H111666   6.460   0.185   3.959
 3808WAT     H211667   6.459   0.027   3.919
 3809WAT      O11668   5.935   7.722   0.916
 3809WAT     H111669   5.914   7.728   0.818
 3809WAT     H211670   5.852   7.698   0.966
 3810WAT      O11671   0.375   4.005   1.951
 3810WAT     H111672   0.305   3.940   1.980
 3810WAT     H211673   0.402   4.062   2.028
 3811WAT      O11674   9.438   5.348   2.232
 3811WAT     H111675   9.459   5.442   2.206
 3811WAT     H211676   9.375   5.308   2.164
 3812WAT      O11677   4.765   5.417   1.259
 3812WAT     H111678   4.840   5.351   1.273
 3812WAT     H211679   4.678   5.369   1.266
 3813WAT      O11680   1.762   2.957   1.309
 3813WAT     H111681   1.860   2.946   1.293
 3813WAT     H211682   1.712   2.886   1.260
 3814WAT      O11683   5.181   7.991   5.227
 3814WAT     H111684   5.256   8.057   5.237
 3814WAT     H211685   5.113   8.008   5.299
 3815WAT      O11686   1.453   9.290   6.173
 3815WAT     H111687   1.421   9.275   6.079
 3815WAT     H211688   1.375   9.284   6.235
 3816WAT      O11689   4.353   6.019   6.170
 3816WAT     H111690   4.309   5.950   6.227
 3816WAT     H211691   4.298   6.035   6.088
 3817WAT      O11692   6.383   5.238   7.254
 3817WAT     H111693   6.354   5.293   7.176
 3817WAT     H211694   6.396   5.297   7.334
 3818WAT      O11695   6.979   1.530   8.432
 3818WAT     H111696   6.940   1.519   8.523
 3818WAT     H211697   7.070   1.570   8.439
 3819WAT      O11698   3.657   5.947   3.709
 3819WAT     H111699   3.712   6.031   3.709
 3819WAT     H211700   3.560   5.971   3.713
 3820WAT      O11701   1.029   2.919   1.304
 3820WAT     H111702   1.046   3.000   1.249
 3820WAT     H211703   1.031   2.838   1.246
 3821WAT      O11704   3.816   8.535   1.523
 3821WAT     H111705   3.747   8.582   1.577
 3821WAT     H211706   3.825   8.441   1.556
 3822WAT      O11707   9.156   9.569   0.667
 3822WAT     H111708   9.152   9.637   0.740
 3822WAT     H211709   9.242   9.578   0.618
 3823WAT      O11710   7.872   6.952   8.549
 3823WAT     H111711   7.798   6.939   8.614
 3823WAT     H211712   7.930   7.028   8.579
 3824WAT      O11713   0.565   1.183   3.580
 3824WAT     H111714   0.518   1.123   3.644
 3824WAT     H211715   0.581   1.272   3.623
 3825WAT      O11716   5.075   4.985   1.290
 3825WAT     H111717   5.133   4.913   1.328
 3825WAT     H211718   5.132   5.064   1.267
 3826WAT      O11719   4.573   5.258   1.106
 3826WAT     H111720   4.651   5.208   1.068
 3826WAT     H211721   4.563   5.346   1.059
 3827WAT      O11722   0.294   8.626   8.056
 3827WAT     H111723   0.360   8.579   8.115
 3827WAT     H211724   0.232   8.559   8.016
 3828WAT      O11725   0.301   2.179   1.730
 3828WAT     H111726   0.236   2.193   1.805
 3828WAT     H211727   0.273   2.099   1.677
 3829WAT      O11728   7.022   7.923   5.729
 3829WAT     H111729   7.039   7.971   5.643
 3829WAT     H211730   6.924   7.928   5.752
 3830WAT      O11731   6.805   2.302   3.022
 3830WAT     H111732   6.884   2.328   2.966
 3830WAT     H211733   6.725   2.289   2.964
 3831WAT      O11734   8.874   7.248   9.602
 3831WAT     H111735   8.807   7.322   9.588
 3831WAT     H211736   8.869   7.184   9.526
 3832WAT      O11737   8.235   5.977   0.245
 3832WAT     H111738   8.271   5.949   0.156
 3832WAT     H211739   8.165   5.913   0.275
 3833WAT      O11740   8.740   7.008   5.829
 3833WAT     H111741   8.682   6.931   5.800
 3833WAT     H211742   8.750   7.007   5.928
 3834WAT      O11743   9.215   3.383   7.965
 3834WAT     H111744   9.238   3.476   7.992
 3834WAT     H211745   9.143   3.385   7.896
 3835WAT      O11746   3.227   0.310   6.777
 3835WAT     H111747   3.321   0.316   6.741
 3835WAT     H211748   3.174   0.388   6.746
 3836WAT      O11749   5.098   5.796   4.373
 3836WAT     H111750   5.172   5.732   4.352
 3836WAT     H211751   5.043   5.812   4.291
 3837WAT      O11752   8.714   1.127   1.373
 3837WAT     H111753   8.789   1.148   1.435
 3837WAT     H211754   8.708   1.198   1.302
 3838WAT      O11755   2.311   8.295   1.489
 3838WAT     H111756   2.280   8.349   1.410
 3838WAT     H211757   2.307   8.351   1.571
 3839WAT      O11758   7.260   0.084   1.135
 3839WAT     H111759   7.338   0.106   1.076
 3839WAT     H211760   7.292   0.068   1.228
 3840WAT      O11761   5.480   4.644   1.812
 3840WAT     H111762   5.556   4.579   1.813
 3840WAT     H211763   5.508   4.727   1.764
 3841WAT      O11764   8.858   9.139   4.491
 3841WAT     H111765   8.859   9.184   4.580
 3841WAT     H211766   8.951   9.131   4.456
 3842WAT      O11767   4.902   4.880   8.974
 3842WAT     H111768   4.911   4.793   9.021
 3842WAT     H211769   4.873   4.951   9.038
 3843WAT      O11770   2.244   1.194   5.397
 3843WAT     H111771   2.343   1.204   5.407
 3843WAT     H211772   2.210   1.260   5.330
 3844WAT      O11773   1.125   4.418   0.072
 3844WAT     H111774   1.040   4.385   0.031
 3844WAT     H211775   1.199   4.413   0.006
 3845WAT      O11776   6.912   4.596   6.316
 3845WAT     H111777   6.833   4.542   6.287
 3845WAT     H211778   6.880   4.681   6.358
 3846WAT      O11779   2.251   7.117   3.143
 3846WAT     H111780   2.153   7.108   3.159
 3846WAT     H211781   2.271   7.209   3.109
 3847WAT      O11782   2.039   5.321   0.599
 3847WAT     H111783   2.038   5.420   0.610
 3847WAT     H211784   2.000   5.296   0.511
 3848WAT      O11785   2.847   9.727   6.195
 3848WAT     H111786   2.901   9.799   6.238
 3848WAT     H211787   2.819   9.758   6.103
 3849WAT      O11788   1.596   6.047   1.173
 3849WAT     H111789   1.668   6.008   1.230
 3849WAT     H211790   1.507   6.037   1.219
 3850WAT      O11791   4.537   1.001   8.947
 3850WAT     H111792   4.510   0.973   8.855
 3850WAT     H211793   4.584   1.089   8.944
 3851WAT      O11794   2.184   6.111   7.720
 3851WAT     H111795   2.153   6.132   7.812
 3851WAT     H211796   2.284   6.107   7.718
 3852WAT      O11797   1.960   2.980   9.400
 3852WAT     H111798   1.983   2.932   9.485
 3852WAT     H211799   1.939   3.076   9.420
 3853WAT      O11800   1.098   0.830   2.405
 3853WAT     H111801   1.167   0.833   2.477
 3853WAT     H211802   1.007   0.843   2.445
 3854WAT      O11803   5.254   3.599   0.358
 3854WAT     H111804   5.205   3.683   0.382
 3854WAT     H211805   5.352   3.613   0.370
 3855WAT      O11806   1.854   5.763   8.580
 3855WAT     H111807   1.893   5.820   8.508
 3855WAT     H211808   1.846   5.669   8.548
 3856WAT      O11809   4.076   8.286   0.235
 3856WAT     H111810   4.035   8.345   0.306
 3856WAT     H211811   4.056   8.324   0.145
 3857WAT      O11812   5.424   3.016   8.298
 3857WAT     H111813   5.330   2.992   8.324
 3857WAT     H211814   5.435   3.115   8.301
 3858WAT      O11815   5.937   4.360   9.449
 3858WAT     H111816   5.854   4.321   9.409
 3858WAT     H211817   6.017   4.328   9.399
 3859WAT      O11818   1.278   7.543   1.849
 3859WAT     H111819   1.289   7.626   1.794
 3859WAT     H211820   1.345   7.475   1.819
 3860WAT      O11821   0.360   1.758   6.521
 3860WAT     H111822   0.304   1.684   6.558
 3860WAT     H211823   0.314   1.798   6.441
 3861WAT      O11824   6.696   4.287   7.058
 3861WAT     H111825   6.733   4.326   6.974
 3861WAT     H211826   6.620   4.226   7.036
 3862WAT      O11827   9.175   1.804   0.147
 3862WAT     H111828   9.084   1.835   0.118
 3862WAT     H211829   9.238   1.811   0.070
 3863WAT      O11830   8.413   5.660   2.879
 3863WAT     H111831   8.381   5.746   2.918
 3863WAT     H211832   8.413   5.666   2.779
 3864WAT      O11833   3.916   8.863   6.316
 3864WAT     H111834   3.987   8.849   6.247
 3864WAT     H211835   3.929   8.799   6.391
 3865WAT      O11836   0.971   8.556   7.135
 3865WAT     H111837   0.961   8.614   7.216
 3865WAT     H211838   0.938   8.605   7.054
 3866WAT      O11839   1.369   7.492   7.926
 3866WAT     H111840   1.406   7.437   8.001
 3866WAT     H211841   1.270   7.479   7.920
 3867WAT      O11842   4.389   8.689   1.498
 3867WAT     H111843   4.413   8.713   1.592
 3867WAT     H211844   4.307   8.631   1.498
 3868WAT      O11845   0.665   0.085   8.504
 3868WAT     H111846   0.763   0.105   8.511
 3868WAT     H211847   0.651   0.009   8.441
 3869WAT      O11848   1.859   1.443   6.682
 3869WAT     H111849   1.943   1.485   6.717
 3869WAT     H211850   1.815   1.504   6.617
 3870WAT      O11851   0.216   3.109   7.672
 3870WAT     H111852   0.179   3.136   7.584
 3870WAT     H211853   0.316   3.098   7.665
 3871WAT      O11854   0.216   0.547   5.490
 3871WAT     H111855   0.309   0.584   5.485
 3871WAT     H211856   0.220   0.449   5.511
 3872WAT      O11857   4.651   9.658   4.385
 3872WAT     H111858   4.578   9.593   4.405
 3872WAT     H211859   4.740   9.613   4.397
 3873WAT      O11860   5.151   5.754   8.327
 3873WAT     H111861   5.155   5.842   8.278
 3873WAT     H211862   5.227   5.696   8.296
 3874WAT      O11863   4.999   4.922   4.117
 3874WAT     H111864   5.090   4.912   4.155
 3874WAT     H211865   5.004   4.927   4.017
 3875WAT      O11866   1.828   4.116   4.475
 3875WAT     H111867   1.807   4.187   4.409
 3875WAT     H211868   1.925   4.120   4.499
 3876WAT      O11869   7.727   1.615   1.358
 3876WAT     H111870   7.819   1.644   1.381
 3876WAT     H211871   7.665   1.693   1.359
 3877WAT      O11872   9.692   7.545   7.623
 3877WAT     H111873   9.628   7.495   7.565
 3877WAT     H211874   9.686   7.643   7.601
 3878WAT      O11875   8.446   7.609   6.149
 3878WAT     H111876   8.460   7.548   6.070
 3878WAT     H211877   8.417   7.555   6.228
 3879WAT      O11878   3.720   3.059   6.408
 3879WAT     H111879   3.786   2.985   6.418
 3879WAT     H211880   3.730   3.101   6.317
 3880WAT      O11881   5.699   0.783   4.792
 3880WAT     H111882   5.753   0.727   4.730
 3880WAT     H211883   5.726   0.879   4.782
 3881WAT      O11884   0.378   5.603   0.939
 3881WAT     H111885   0.444   5.652   0.996
 3881WAT     H211886   0.287   5.611   0.979
 3882WAT      O11887   2.240   4.368   5.074
 3882WAT     H111888   2.276   4.350   5.166
 3882WAT     H211889   2.159   4.312   5.057
 3883WAT      O11890   8.687   6.217   5.752
 3883WAT     H111891   8.679   6.134   5.697
 3883WAT     H211892   8.696   6.296   5.691
 3884WAT      O11893   9.038   0.512   2.589
 3884WAT     H111894   9.098   0.457   2.646
 3884WAT     H211895   8.967   0.454   2.549
 3885WAT      O11896   2.513   5.493   9.661
 3885WAT     H111897   2.576   5.542   9.601
 3885WAT     H211898   2.493   5.403   9.622
 3886WAT      O11899   7.316   5.863   1.943
 3886WAT     H111900   7.374   5.934   1.983
 3886WAT     H211901   7.318   5.872   1.843
 3887WAT      O11902   9.721   9.102   4.057
 3887WAT     H111903   9.797   9.038   4.067
 3887WAT     H211904   9.637   9.051   4.037
 3888WAT      O11905   1.529   8.073   0.189
 3888WAT     H111906   1.584   8.154   0.166
 3888WAT     H211907   1.589   8.000   0.221
 3889WAT      O11908   1.032   3.657   7.888
 3889WAT     H111909   1.085   3.645   7.804
 3889WAT     H211910   1.043   3.750   7.922
 3890WAT      O11911   1.775   1.867   2.318
 3890WAT     H111912   1.835   1.793   2.287
 3890WAT     H211913   1.680   1.839   2.309
 3891WAT      O11914   7.242   8.733   2.806
 3891WAT     H111915   7.332   8.717   2.765
 3891WAT     H211916   7.188   8.793   2.747
 3892WAT      O11917   6.928   9.669   6.128
 3892WAT     H111918   6.942   9.582   6.176
 3892WAT     H211919   6.919   9.653   6.030
 3893WAT      O11920   6.249   4.809   4.735
 3893WAT     H111921   6.206   4.808   4.645
 3893WAT     H211922   6.203   4.875   4.794
 3894WAT      O11923   1.216   5.442   2.235
 3894WAT     H111924   1.296   5.480   2.282
 3894WAT     H211925   1.208   5.345   2.257
 3895WAT      O11926   4.834   4.470   4.069
 3895WAT     H111927   4.746   4.434   4.099
 3895WAT     H211928   4.852   4.557   4.114
 3896WAT      O11929   1.072   9.218   1.270
 3896WAT     H111930   1.086   9.315   1.251
 3896WAT     H211931   1.058   9.205   1.368
 3897WAT      O11932   2.940   8.766   2.381
 3897WAT     H111933   2.982   8.855   2.360
 3897WAT     H211934   2.927   8.759   2.480
 3898WAT      O11935   6.950   3.322   4.967
 3898WAT     H111936   7.007   3.402   4.987
 3898WAT     H211937   6.970   3.250   5.033
 3899WAT      O11938   8.667   2.029   4.493
 3899WAT     H111939   8.629   1.938   4.511
 3899WAT     H211940   8.599   2.085   4.446
 3900WAT      O11941   0.222   1.023   9.023
 3900WAT     H111942   0.313   1.046   8.988
 3900WAT     H211943   0.178   1.107   9.056
 3901WAT      O11944   7.394   7.401   6.089
 3901WAT     H111945   7.350   7.384   6.001
 3901WAT     H211946   7.373   7.494   6.120
 3902WAT      O11947   7.452   1.443   2.080
 3902WAT     H111948   7.452   1.419   2.177
 3902WAT     H211949   7.431   1.540   2.069
 3903WAT      O11950   2.464   5.997   9.574
 3903WAT     H111951   2.389   6.046   9.619
 3903WAT     H211952   2.455   5.899   9.591
 3904WAT      O11953   2.117   0.401   5.732
 3904WAT     H111954   2.078   0.309   5.736
 3904WAT     H211955   2.208   0.400   5.773
 3905WAT      O11956   3.470   1.406   0.524
 3905WAT     H111957   3.403   1.400   0.599
 3905WAT     H211958   3.547   1.346   0.544
 3906WAT      O11959   7.835   7.028   2.718
 3906WAT     H111960   7.903   7.099   2.703
 3906WAT     H211961   7.748   7.070   2.747
 3907WAT      O11962   2.911   9.724   7.885
 3907WAT     H111963   2.840   9.697   7.950
 3907WAT     H211964   2.950   9.643   7.841
 3908WAT      O11965   3.247   4.250   4.119
 3908WAT     H111966   3.169   4.297   4.078
 3908WAT     H211967   3.244   4.260   4.218
 3909WAT      O11968   9.878   8.430   5.941
 3909WAT     H111969   9.847   8.482   6.021
 3909WAT     H211970   9.976   8.413   5.948
 3910WAT      O11971   4.257   7.739   7.507
 3910WAT     H111972   4.189   7.707   7.441
 3910WAT     H211973   4.223   7.724   7.600
 3911WAT      O11974   0.358   3.229   6.613
 3911WAT     H111975   0.343   3.327   6.621
 3911WAT     H211976   0.368   3.188   6.704
 3912WAT      O11977   1.675   5.176   3.765
 3912WAT     H111978   1.597   5.206   3.710
 3912WAT     H211979   1.660   5.200   3.861
 3913WAT      O11980   8.689   9.181   5.719
 3913WAT     H111981   8.595   9.145   5.722
 3913WAT     H211982   8.688   9.271   5.676
 3914WAT      O11983   6.560   8.826   6.538
 3914WAT     H111984   6.493   8.836   6.465
 3914WAT     H211985   6.645   8.790   6.500
 3915WAT      O11986   2.219   4.493   8.737
 3915WAT     H111987   2.131   4.499   8.783
 3915WAT     H211988   2.209   4.444   8.650
 3916WAT      O11989   3.404   8.385   1.045
 3916WAT     H111990   3.372   8.448   1.116
 3916WAT     H211991   3.385   8.291   1.073
 3917WAT      O11992   0.032   1.511   5.788
 3917WAT     H111993   0.072   1.421   5.771
 3917WAT     H211994   0.091   1.581   5.748
 3918WAT      O11995   2.029   3.230   2.949
 3918WAT     H111996   2.002   3.133   2.944
 3918WAT     H211997   2.124   3.239   2.919
 3919WAT      O11998   1.012   7.661   9.342
 3919WAT     H111999   1.008   7.640   9.244
 3919WAT     H212000   0.927   7.633   9.386
 3920WAT      O12001   6.877   4.492   9.762
 3920WAT     H112002   6.847   4.580   9.799
 3920WAT     H212003   6.835   4.477   9.672
 3921WAT      O12004   1.100   8.098   7.843
 3921WAT     H112005   1.068   8.041   7.767
 3921WAT     H212006   1.037   8.091   7.920
 3922WAT      O12007   5.043   6.324   5.708
 3922WAT     H112008   5.121   6.268   5.678
 3922WAT     H212009   4.997   6.279   5.784
 3923WAT      O12010   2.271   7.756   4.388
 3923WAT     H112011   2.356   7.804   4.365
 3923WAT     H212012   2.194   7.806   4.348
 3924WAT      O12013   0.325   1.894   1.207
 3924WAT     H112014   0.248   1.943   1.167
 3924WAT     H212015   0.318   1.897   1.307
 3925WAT      O12016   0.085   5.789   4.987
 3925WAT     H112017  -0.014   5.782   5.003
 3925WAT     H212018   0.107   5.883   4.959
 3926WAT      O12019   6.293   8.138   1.988
 3926WAT     H112020   6.363   8.210   1.996
 3926WAT     H212021   6.338   8.049   1.978
 3927WAT      O12022   7.194   9.452   7.320
 3927WAT     H112023   7.112   9.462   7.377
 3927WAT     H212024   7.190   9.516   7.244
 3928WAT      O12025   7.898   1.849   5.750
 3928WAT     H112026   7.975   1.785   5.737
 3928WAT     H212027   7.879   1.858   5.847
 3929WAT      O12028   5.122   5.488   7.217
 3929WAT     H112029   5.068   5.422   7.166
 3929WAT     H212030   5.074   5.576   7.217
 3930WAT      O12031   7.994   5.274   1.620
 3930WAT     H112032   8.064   5.345   1.612
 3930WAT     H212033   8.009   5.205   1.549
 3931WAT      O12034   7.726   1.452   0.975
 3931WAT     H112035   7.702   1.421   1.067
 3931WAT     H212036   7.791   1.388   0.934
 3932WAT      O12037   9.584   8.692   6.824
 3932WAT     H112038   9.577   8.688   6.924
 3932WAT     H212039   9.599   8.600   6.788
 3933WAT      O12040   4.238   9.697   3.453
 3933WAT     H112041   4.204   9.611   3.492
 3933WAT     H212042   4.338   9.698   3.456
 3934WAT      O12043   1.175   2.560   1.406
 3934WAT     H112044   1.242   2.606   1.465
 3934WAT     H212045   1.141   2.623   1.337
 3935WAT      O12046   7.984   4.373   3.745
 3935WAT     H112047   8.017   4.394   3.836
 3935WAT     H212048   7.888   4.345   3.749
 3936WAT      O12049   4.605   7.047   0.910
 3936WAT     H112050   4.672   6.979   0.940
 3936WAT     H212051   4.525   7.001   0.872
 3937WAT      O12052   7.851   7.454   1.082
 3937WAT     H112053   7.888   7.489   0.996
 3937WAT     H212054   7.831   7.531   1.143
 3938WAT      O12055   0.285   1.998   1.452
 3938WAT     H112056   0.373   2.034   1.483
 3938WAT     H212057   0.248   1.936   1.521
 3939WAT      O12058   4.872   2.000   3.599
 3939WAT     H112059   4.910   2.000   3.506
 3939WAT     H212060   4.900   2.083   3.647
 3940WAT      O12061   3.945   5.831   4.828
 3940WAT     H112062   3.893   5.915   4.842
 3940WAT     H212063   3.898   5.773   4.762
 3941WAT      O12064   0.507   7.544   7.996
 3941WAT     H112065   0.553   7.471   7.945
 3941WAT     H212066   0.494   7.516   8.091
 3942WAT      O12067   7.324   8.460   3.570
 3942WAT     H112068   7.335   8.473   3.668
 3942WAT     H212069   7.290   8.545   3.529
 3943WAT      O12070   8.711   4.071   1.269
 3943WAT     H112071   8.726   4.022   1.183
 3943WAT     H212072   8.686   4.166   1.250
 3944WAT      O12073   8.520   3.183   8.676
 3944WAT     H112074   8.487   3.157   8.767
 3944WAT     H212075   8.491   3.276   8.656
 3945WAT      O12076   4.386   0.451   8.743
 3945WAT     H112077   4.409   0.455   8.841
 3945WAT     H212078   4.307   0.509   8.725
 3946WAT      O12079   8.041   1.024   4.446
 3946WAT     H112080   8.017   1.077   4.365
 3946WAT     H212081   7.987   0.940   4.449
 3947WAT      O12082   8.715   2.178   8.467
 3947WAT     H112083   8.783   2.176   8.394
 3947WAT     H212084   8.759   2.210   8.552
 3948WAT      O12085   4.414   9.510   5.472
 3948WAT     H112086   4.357   9.586   5.503
 3948WAT     H212087   4.491   9.497   5.535
 3949WAT      O12088   9.280   4.953   5.765
 3949WAT     H112089   9.299   4.998   5.677
 3949WAT     H212090   9.347   4.984   5.833
 3950WAT      O12091   4.119   8.381   4.449
 3950WAT     H112092   4.081   8.311   4.389
 3950WAT     H212093   4.124   8.468   4.400
 3951WAT      O12094   5.106   1.215   2.291
 3951WAT     H112095   5.187   1.229   2.348
 3951WAT     H212096   5.131   1.158   2.212
 3952WAT      O12097   0.277   5.624   8.450
 3952WAT     H112098   0.306   5.539   8.496
 3952WAT     H212099   0.330   5.635   8.366
 3953WAT      O12100   9.120   0.061   1.220
 3953WAT     H112101   9.065   0.009   1.155
 3953WAT     H212102   9.208   0.016   1.234
 3954WAT      O12103   1.844   0.793   4.514
 3954WAT     H112104   1.887   0.720   4.461
 3954WAT     H212105   1.903   0.818   4.591
 3955WAT      O12106   0.300   5.867   4.455
 3955WAT     H112107   0.233   5.910   4.515
 3955WAT     H212108   0.338   5.936   4.393
 3956WAT      O12109   1.843   7.055   4.471
 3956WAT     H112110   1.751   7.082   4.500
 3956WAT     H212111   1.904   7.134   4.476
 3957WAT      O12112   6.824   5.190   3.201
 3957WAT     H112113   6.734   5.213   3.237
 3957WAT     H212114   6.856   5.263   3.141
 3958WAT      O12115   4.462   0.857   5.253
 3958WAT     H112116   4.379   0.897   5.214
 3958WAT     H212117   4.443   0.763   5.283
 3959WAT      O12118   5.522   9.115   8.479
 3959WAT     H112119   5.436   9.162   8.496
 3959WAT     H212120   5.588   9.139   8.550
 3960WAT      O12121   1.114   7.352   0.973
 3960WAT     H112122   1.049   7.379   1.044
 3960WAT     H212123   1.084   7.388   0.884
 3961WAT      O12124   0.631   6.096   8.130
 3961WAT     H112125   0.618   6.133   8.222
 3961WAT     H212126   0.716   6.133   8.091
 3962WAT      O12127   6.059   5.326   7.877
 3962WAT     H112128   6.117   5.311   7.957
 3962WAT     H212129   6.113   5.314   7.793
 3963WAT      O12130   0.314   5.204   7.642
 3963WAT     H112131   0.393   5.208   7.582
 3963WAT     H212132   0.304   5.111   7.677
 3964WAT      O12133   1.714   4.664   3.831
 3964WAT     H112134   1.692   4.709   3.918
 3964WAT     H212135   1.769   4.726   3.775
 3965WAT      O12136   0.990   5.478   8.898
 3965WAT     H112137   0.968   5.513   8.807
 3965WAT     H212138   0.966   5.381   8.903
 3966WAT      O12139   5.588   8.590   8.150
 3966WAT     H112140   5.527   8.557   8.078
 3966WAT     H212141   5.674   8.620   8.109
 3967WAT      O12142   5.087   4.723   7.921
 3967WAT     H112143   5.100   4.631   7.884
 3967WAT     H212144   4.990   4.748   7.912
 3968WAT      O12145   7.443   8.623   5.997
 3968WAT     H112146   7.525   8.580   5.957
 3968WAT     H212147   7.379   8.646   5.924
 3969WAT      O12148   4.666   3.786   2.230
 3969WAT     H112149   4.590   3.802   2.168
 3969WAT     H212150   4.680   3.866   2.288
 3970WAT      O12151   0.121   4.798   4.623
 3970WAT     H112152   0.207   4.814   4.574
 3970WAT     H212153   0.048   4.779   4.557
 3971WAT      O12154   8.558   9.714   4.951
 3971WAT     H112155   8.467   9.688   4.984
 3971WAT     H212156   8.624   9.703   5.025
 3972WAT      O12157   3.053   6.052   0.505
 3972WAT     H112158   3.063   6.110   0.424
 3972WAT     H212159   3.114   5.972   0.496
 3973WAT      O12160   4.183   6.183   9.195
 3973WAT     H112161   4.246   6.239   9.141
 3973WAT     H212162   4.213   6.088   9.193
 3974WAT      O12163   4.583   2.979   6.420
 3974WAT     H112164   4.635   3.044   6.476
 3974WAT     H212165   4.645   2.913   6.378
 3975WAT      O12166   1.240   0.514   1.459
 3975WAT     H112167   1.194   0.486   1.544
 3975WAT     H212168   1.261   0.433   1.404
 3976WAT      O12169   0.180   4.144   2.734
 3976WAT     H112170   0.167   4.182   2.825
 3976WAT     H212171   0.238   4.063   2.739
 3977WAT      O12172   0.868   2.910   0.830
 3977WAT     H112173   0.868   3.009   0.825
 3977WAT     H212174   0.909   2.872   0.747
 3978WAT      O12175   9.720   6.512   2.206
 3978WAT     H112176   9.652   6.580   2.236
 3978WAT     H212177   9.745   6.454   2.284
 3979WAT      O12178   1.832   8.064   0.566
 3979WAT     H112179   1.875   7.984   0.607
 3979WAT     H212180   1.851   8.066   0.468
 3980WAT      O12181   8.059   5.324   2.453
 3980WAT     H112182   8.111   5.277   2.524
 3980WAT     H212183   8.010   5.258   2.397
 3981WAT      O12184   7.882   3.372   0.018
 3981WAT     H112185   7.933   3.294   0.057
 3981WAT     H212186   7.852   3.432   0.093
 3982WAT      O12187   9.259   7.662   9.008
 3982WAT     H112188   9.276   7.621   9.098
 3982WAT     H212189   9.346   7.684   8.964
 3983WAT      O12190   4.590   4.850   1.204
 3983WAT     H112191   4.591   4.820   1.108
 3983WAT     H212192   4.676   4.824   1.248
 3984WAT      O12193   4.228   9.475   8.247
 3984WAT     H112194   4.229   9.515   8.155
 3984WAT     H212195   4.151   9.512   8.299
 3985WAT      O12196   5.672   9.135   7.963
 3985WAT     H112197   5.628   9.174   8.044
 3985WAT     H212198   5.656   9.196   7.885
 3986WAT      O12199   6.782   6.872   7.949
 3986WAT     H112200   6.708   6.904   7.891
 3986WAT     H212201   6.786   6.772   7.947
 3987WAT      O12202   0.055   4.352   5.733
 3987WAT     H112203  -0.044   4.339   5.737
 3987WAT     H212204   0.090   4.310   5.650
 3988WAT      O12205   7.372   6.719   4.869
 3988WAT     H112206   7.452   6.765   4.908
 3988WAT     H212207   7.288   6.758   4.908
 3989WAT      O12208   3.955   9.481   3.746
 3989WAT     H112209   3.943   9.563   3.802
 3989WAT     H212210   3.996   9.409   3.802
 3990WAT      O12211   1.119   5.213   1.956
 3990WAT     H112212   1.082   5.302   1.930
 3990WAT     H212213   1.214   5.206   1.926
 3991WAT      O12214   7.337   1.700   2.061
 3991WAT     H112215   7.242   1.712   2.031
 3991WAT     H212216   7.386   1.787   2.051
 3992WAT      O12217   4.912   9.273   8.561
 3992WAT     H112218   4.933   9.369   8.543
 3992WAT     H212219   4.991   9.229   8.604
 3993WAT      O12220   5.270   0.846   4.563
 3993WAT     H112221   5.231   0.813   4.477
 3993WAT     H212222   5.197   0.878   4.623
 3994WAT      O12223   6.931   4.108   3.167
 3994WAT     H112224   6.890   4.170   3.233
 3994WAT     H212225   6.932   4.151   3.077
 3995WAT      O12226   8.267   6.772   9.877
 3995WAT     H112227   8.361   6.743   9.858
 3995WAT     H212228   8.266   6.825   9.963
 3996WAT      O12229   6.262   3.798   8.308
 3996WAT     H112230   6.320   3.810   8.227
 3996WAT     H212231   6.302   3.728   8.367
 3997WAT      O12232   3.504   0.844   7.446
 3997WAT     H112233   3.547   0.918   7.394
 3997WAT     H212234   3.439   0.796   7.387
 3998WAT      O12235   2.675   1.277   9.145
 3998WAT     H112236   2.755   1.331   9.119
 3998WAT     H212237   2.703   1.181   9.159
 3999WAT      O12238   2.653   2.255   7.956
 3999WAT     H112239   2.624   2.305   8.038
 3999WAT     H212240   2.692   2.319   7.890
 4000WAT      O12241   1.762   3.062   4.565
 4000WAT     H112242   1.765   3.055   4.665
 4000WAT     H212243   1.687   3.123   4.539
 4001WAT      O12244   5.329   6.262   9.378
 4001WAT     H112245   5.252   6.317   9.410
 4001WAT     H212246   5.319   6.243   9.280
 4002WAT      O12247   1.915   3.537   8.148
 4002WAT     H112248   1.974   3.606   8.190
 4002WAT     H212249   1.837   3.519   8.208
 4003WAT      O12250   3.041   0.825   2.037
 4003WAT     H112251   3.041   0.756   2.109
 4003WAT     H212252   2.951   0.830   1.994
 4004WAT      O12253   5.487   9.764   6.022
 4004WAT     H112254   5.533   9.802   5.942
 4004WAT     H212255   5.434   9.684   5.996
 4005WAT      O12256   6.264   1.411   7.467
 4005WAT     H112257   6.230   1.373   7.380
 4005WAT     H212258   6.350   1.367   7.490
 4006WAT      O12259   1.813   1.450   3.893
 4006WAT     H112260   1.903   1.460   3.935
 4006WAT     H212261   1.813   1.368   3.835
 4007WAT      O12262   6.321   5.898   5.243
 4007WAT     H112263   6.310   5.939   5.334
 4007WAT     H212264   6.320   5.969   5.174
 4008WAT      O12265   9.390   0.784   2.960
 4008WAT     H112266   9.325   0.834   3.016
 4008WAT     H212267   9.453   0.849   2.917
 4009WAT      O12268   8.492   7.267   4.391
 4009WAT     H112269   8.435   7.343   4.359
 4009WAT     H212270   8.589   7.290   4.376
 4010WAT      O12271   6.287   0.344   1.376
 4010WAT     H112272   6.300   0.421   1.313
 4010WAT     H212273   6.364   0.340   1.440
 4011WAT      O12274   1.813   8.192   2.161
 4011WAT     H112275   1.766   8.255   2.223
 4011WAT     H212276   1.747   8.127   2.124
 4012WAT      O12277   0.307   6.653   7.470
 4012WAT     H112278   0.288   6.642   7.568
 4012WAT     H212279   0.221   6.664   7.421
 4013WAT      O12280   9.066   1.368   0.937
 4013WAT     H112281   9.050   1.281   0.984
 4013WAT     H212282   8.995   1.433   0.964
 4014WAT      O12283   4.616   9.834   7.289
 4014WAT     H112284   4.533   9.839   7.233
 4014WAT     H212285   4.592   9.846   7.385
 4015WAT      O12286   0.233   2.163   9.307
 4015WAT     H112287   0.320   2.148   9.260
 4015WAT     H212288   0.219   2.090   9.374
 4016WAT      O12289   7.631   0.351   8.068
 4016WAT     H112290   7.564   0.347   8.142
 4016WAT     H212291   7.717   0.310   8.099
 4017WAT      O12292   7.759   5.492   2.524
 4017WAT     H112293   7.832   5.485   2.593
 4017WAT     H212294   7.795   5.466   2.434
 4018WAT      O12295   9.033   8.140   8.841
 4018WAT     H112296   9.091   8.089   8.777
 4018WAT     H212297   9.043   8.101   8.933
 4019WAT      O12298   6.520   8.289   1.969
 4019WAT     H112299   6.579   8.212   1.989
 4019WAT     H212300   6.574   8.373   1.967
 4020WAT      O12301   7.576   4.635   7.991
 4020WAT     H112302   7.560   4.602   7.898
 4020WAT     H212303   7.595   4.557   8.051
 4021WAT      O12304   8.140   5.788   3.507
 4021WAT     H112305   8.041   5.794   3.521
 4021WAT     H212306   8.166   5.843   3.427
 4022WAT      O12307   9.020   3.985   3.855
 4022WAT     H112308   8.986   3.923   3.926
 4022WAT     H212309   9.026   3.936   3.768
 4023WAT      O12310   8.936   3.625   7.296
 4023WAT     H112311   8.921   3.556   7.367
 4023WAT     H212312   8.924   3.716   7.334
 4024WAT      O12313   3.778   3.689   2.502
 4024WAT     H112314   3.722   3.621   2.548
 4024WAT     H212315   3.744   3.781   2.524
 4025WAT      O12316   1.274   9.520   4.041
 4025WAT     H112317   1.290   9.613   4.009
 4025WAT     H212318   1.361   9.475   4.059
 4026WAT      O12319   6.590   2.769   4.088
 4026WAT     H112320   6.657   2.718   4.142
 4026WAT     H212321   6.572   2.720   4.003
 4027WAT      O12322   0.301   8.504   5.644
 4027WAT     H112323   0.349   8.420   5.617
 4027WAT     H212324   0.204   8.486   5.656
 4028WAT      O12325   1.407   9.283   0.018
 4028WAT     H112326   1.352   9.244   0.092
 4028WAT     H212327   1.353   9.286  -0.066
 4029WAT      O12328   0.203   8.318   0.130
 4029WAT     H112329   0.163   8.226   0.129
 4029WAT     H212330   0.275   8.321   0.200
 4030WAT      O12331   1.971   7.541   1.341
 4030WAT     H112332   1.890   7.579   1.386
 4030WAT     H212333   1.956   7.444   1.322
 4031WAT      O12334   5.657   7.347   7.285
 4031WAT     H112335   5.618   7.260   7.316
 4031WAT     H212336   5.705   7.332   7.198
 4032WAT      O12337   5.668   6.032   5.313
 4032WAT     H112338   5.581   6.073   5.340
 4032WAT     H212339   5.744   6.088   5.345
 4033WAT      O12340   7.544   0.045   0.193
 4033WAT     H112341   7.518   0.023   0.099
 4033WAT     H212342   7.562  -0.039   0.243
 4034WAT      O12343   3.082   2.013   3.564
 4034WAT     H112344   3.129   2.068   3.633
 4034WAT     H212345   3.097   2.053   3.474
 4035WAT      O12346   6.964   2.686   0.640
 4035WAT     H112347   7.055   2.659   0.608
 4035WAT     H212348   6.919   2.740   0.568
 4036WAT      O12349   5.585   6.016   6.513
 4036WAT     H112350   5.556   5.945   6.448
 4036WAT     H212351   5.681   6.038   6.498
 4037WAT      O12352   7.026   2.538   7.438
 4037WAT     H112353   7.033   2.623   7.386
 4037WAT     H212354   7.012   2.559   7.535
 4038WAT      O12355   6.143   7.567   3.216
 4038WAT     H112356   6.052   7.605   3.232
 4038WAT     H212357   6.152   7.480   3.265
 4039WAT      O12358   8.213   6.254   8.441
 4039WAT     H112359   8.180   6.192   8.370
 4039WAT     H212360   8.135   6.299   8.485
 4040WAT      O12361   1.488   5.810   8.705
 4040WAT     H112362   1.527   5.823   8.796
 4040WAT     H212363   1.413   5.873   8.691
 4041WAT      O12364   0.746   8.212   9.583
 4041WAT     H112365   0.781   8.120   9.570
 4041WAT     H212366   0.741   8.233   9.681
 4042WAT      O12367   7.133   0.083   2.962
 4042WAT     H112368   7.035   0.071   2.946
 4042WAT     H212369   7.169   0.003   3.009
 4043WAT      O12370   1.629   0.385   6.643
 4043WAT     H112371   1.583   0.433   6.569
 4043WAT     H212372   1.688   0.313   6.606
 4044WAT      O12373   9.021   8.836   3.463
 4044WAT     H112374   9.061   8.790   3.384
 4044WAT     H212375   8.934   8.877   3.436
 4045WAT      O12376   7.506   0.973   9.404
 4045WAT     H112377   7.456   0.949   9.488
 4045WAT     H212378   7.555   1.059   9.418
 4046WAT      O12379   5.386   9.512   8.597
 4046WAT     H112380   5.449   9.515   8.520
 4046WAT     H212381   5.347   9.420   8.604
 4047WAT      O12382   8.802   7.257   6.510
 4047WAT     H112383   8.813   7.352   6.483
 4047WAT     H212384   8.710   7.226   6.486
 4048WAT      O12385   5.449   2.500   1.899
 4048WAT     H112386   5.475   2.411   1.861
 4048WAT     H212387   5.433   2.490   1.997
 4049WAT      O12388   6.073   1.694   7.032
 4049WAT     H112389   6.045   1.648   7.116
 4049WAT     H212390   6.150   1.644   6.990
 4050WAT      O12391   9.567   8.010   3.454
 4050WAT     H112392   9.545   8.107   3.438
 4050WAT     H212393   9.619   8.001   3.539
 4051WAT      O12394   9.846   9.821   5.778
 4051WAT     H112395   9.943   9.817   5.803
 4051WAT     H212396   9.825   9.912   5.742
 4052WAT      O12397   4.450   5.737   1.640
 4052WAT     H112398   4.513   5.792   1.695
 4052WAT     H212399   4.501   5.687   1.570
 4053WAT      O12400   7.462   4.243   4.669
 4053WAT     H112401   7.542   4.211   4.617
 4053WAT     H212402   7.411   4.309   4.614
 4054WAT      O12403   2.015   2.304   4.938
 4054WAT     H112404   2.098   2.263   4.975
 4054WAT     H212405   1.950   2.321   5.012
 4055WAT      O12406   7.942   7.758   6.520
 4055WAT     H112407   8.036   7.736   6.544
 4055WAT     H212408   7.922   7.852   6.548
 4056WAT      O12409   2.994   9.148   1.424
 4056WAT     H112410   3.045   9.233   1.419
 4056WAT     H212411   3.052   9.072   1.392
 4057WAT      O12412   5.837   2.026   8.214
 4057WAT     H112413   5.762   2.090   8.195
 4057WAT     H212414   5.803   1.932   8.207
 4058WAT      O12415   4.504   1.710   7.328
 4058WAT     H112416   4.553   1.795   7.310
 4058WAT     H212417   4.455   1.719   7.415
 4059WAT      O12418   3.445   6.593   6.496
 4059WAT     H112419   3.390   6.510   6.508
 4059WAT     H212420   3.472   6.601   6.400
 4060WAT      O12421   7.611   3.800   0.731
 4060WAT     H112422   7.670   3.764   0.804
 4060WAT     H212423   7.665   3.815   0.648
 4061WAT      O12424   5.834   7.381   1.716
 4061WAT     H112425   5.756   7.385   1.654
 4061WAT     H212426   5.823   7.449   1.789
 4062WAT      O12427   7.400   9.247   7.718
 4062WAT     H112428   7.318   9.288   7.758
 4062WAT     H212429   7.481   9.285   7.763
 4063WAT      O12430   8.393   9.731   4.479
 4063WAT     H112431   8.485   9.693   4.484
 4063WAT     H212432   8.336   9.690   4.549
 4064WAT      O12433   0.196   7.543   8.020
 4064WAT     H112434   0.292   7.552   7.992
 4064WAT     H212435   0.154   7.468   7.968
 4065WAT      O12436   2.913   8.569   5.809
 4065WAT     H112437   2.922   8.504   5.733
 4065WAT     H212438   2.866   8.525   5.885
 4066WAT      O12439   4.270   0.757   6.676
 4066WAT     H112440   4.257   0.662   6.647
 4066WAT     H212441   4.362   0.788   6.651
 4067WAT      O12442   4.085   8.566   7.699
 4067WAT     H112443   4.007   8.628   7.700
 4067WAT     H212444   4.101   8.535   7.605
 4068WAT      O12445   7.382   8.455   1.349
 4068WAT     H112446   7.440   8.391   1.398
 4068WAT     H212447   7.423   8.547   1.353
 4069WAT      O12448   1.119   8.460   2.892
 4069WAT     H112449   1.137   8.481   2.796
 4069WAT     H212450   1.055   8.526   2.929
 4070WAT      O12451   3.087   3.532   1.610
 4070WAT     H112452   3.186   3.545   1.612
 4070WAT     H212453   3.059   3.505   1.518
 4071WAT      O12454   8.828   8.454   2.738
 4071WAT     H112455   8.828   8.355   2.751
 4071WAT     H212456   8.821   8.499   2.827
 4072WAT      O12457   6.714   3.274   7.531
 4072WAT     H112458   6.628   3.255   7.579
 4072WAT     H212459   6.715   3.370   7.502
 4073WAT      O12460   8.905   2.512   1.504
 4073WAT     H112461   8.907   2.581   1.576
 4073WAT     H212462   8.835   2.443   1.527
 4074WAT      O12463   4.343   6.446   9.864
 4074WAT     H112464   4.416   6.514   9.869
 4074WAT     H212465   4.362   6.372   9.929
 4075WAT      O12466   0.875   8.566   0.093
 4075WAT     H112467   0.952   8.568   0.157
 4075WAT     H212468   0.898   8.509   0.015
 4076WAT      O12469   4.601   8.418   3.461
 4076WAT     H112470   4.601   8.321   3.436
 4076WAT     H212471   4.649   8.470   3.390
 4077WAT      O12472   3.408   7.827   5.409
 4077WAT     H112473   3.456   7.759   5.464
 4077WAT     H212474   3.434   7.817   5.313
 4078WAT      O12475   3.270   0.515   3.804
 4078WAT     H112476   3.227   0.560   3.883
 4078WAT     H212477   3.281   0.582   3.730
 4079WAT      O12478   7.708   5.057   9.251
 4079WAT     H112479   7.682   5.102   9.166
 4079WAT     H212480   7.771   4.982   9.230
 4080WAT      O12481   7.565   2.644   1.374
 4080WAT     H112482   7.523   2.596   1.297
 4080WAT     H212483   7.627   2.715   1.339
 4081WAT      O12484   3.906   5.798   9.586
 4081WAT     H112485   3.823   5.744   9.573
 4081WAT     H212486   3.948   5.814   9.496
 4082WAT      O12487   6.048   1.921   8.753
 4082WAT     H112488   6.148   1.923   8.762
 4082WAT     H212489   6.007   1.915   8.844
 4083WAT      O12490   9.706   6.156   4.951
 4083WAT     H112491   9.663   6.231   5.001
 4083WAT     H212492   9.647   6.127   4.876
 4084WAT      O12493   0.837   0.217   7.106
 4084WAT     H112494   0.765   0.277   7.069
 4084WAT     H212495   0.881   0.261   7.183
 4085WAT      O12496   7.261   0.234   8.999
 4085WAT     H112497   7.243   0.331   8.983
 4085WAT     H212498   7.344   0.207   8.950
 4086WAT      O12499   0.149   1.003   2.337
 4086WAT     H112500   0.245   0.982   2.355
 4086WAT     H212501   0.091   0.940   2.390
 4087WAT      O12502   3.929   0.309   4.306
 4087WAT     H112503   3.944   0.218   4.343
 4087WAT     H212504   4.017   0.357   4.297
 4088WAT      O12505   1.822   9.228   1.530
 4088WAT     H112506   1.810   9.294   1.604
 4088WAT     H212507   1.783   9.140   1.557
 4089WAT      O12508   7.892   1.115   3.191
 4089WAT     H112509   7.860   1.207   3.215
 4089WAT     H212510   7.949   1.080   3.265
 4090WAT      O12511   9.348   2.676   9.724
 4090WAT     H112512   9.253   2.683   9.754
 4090WAT     H212513   9.351   2.645   9.629
 4091WAT      O12514   3.643   0.241   9.294
 4091WAT     H112515   3.668   0.323   9.243
 4091WAT     H212516   3.668   0.253   9.390
 4092WAT      O12517   6.418   0.619   1.023
 4092WAT     H112518   6.396   0.551   0.953
 4092WAT     H212519   6.464   0.575   1.100
 4093WAT      O12520   0.052   9.788   0.625
 4093WAT     H112521  -0.038   9.745   0.626
 4093WAT     H212522   0.043   9.884   0.596
 4094WAT      O12523   4.713   5.460   6.633
 4094WAT     H112524   4.626   5.445   6.585
 4094WAT     H212525   4.766   5.530   6.585
 4095WAT      O12526   3.099   0.634   5.616
 4095WAT     H112527   3.131   0.694   5.689
 4095WAT     H212528   3.125   0.672   5.527
 4096WAT      O12529   0.569   7.688   4.173
 4096WAT     H112530   0.578   7.763   4.238
 4096WAT     H212531   0.652   7.682   4.117
 4097WAT      O12532   7.309   3.034   7.626
 4097WAT     H112533   7.258   2.953   7.657
 4097WAT     H212534   7.276   3.061   7.535
 4098WAT      O12535   6.193   0.048   1.816
 4098WAT     H112536   6.267  -0.016   1.839
 4098WAT     H212537   6.213   0.092   1.728
 4099WAT      O12538   9.532   1.705   5.051
 4099WAT     H112539   9.553   1.610   5.031
 4099WAT     H212540   9.469   1.710   5.128
 4100WAT      O12541   9.213   9.531   3.341
 4100WAT     H112542   9.261   9.523   3.254
 4100WAT     H212543   9.160   9.448   3.358
 4101WAT      O12544   3.393   7.773   3.818
 4101WAT     H112545   3.346   7.851   3.775
 4101WAT     H212546   3.360   7.688   3.779
 4102WAT      O12547   2.171   1.438   8.799
 4102WAT     H112548   2.106   1.363   8.803
 4102WAT     H212549   2.124   1.520   8.763
 4103WAT      O12550   6.978   7.531   1.902
 4103WAT     H112551   6.898   7.573   1.859
 4103WAT     H212552   7.002   7.448   1.852
 4104WAT      O12553   5.952   7.544   5.884
 4104WAT     H112554   5.935   7.504   5.974
 4104WAT     H212555   5.919   7.481   5.813
 4105WAT      O12556   0.371   8.923   5.738
 4105WAT     H112557   0.342   9.018   5.731
 4105WAT     H212558   0.307   8.872   5.794
 4106WAT      O12559   7.841   3.331   8.507
 4106WAT     H112560   7.825   3.335   8.408
 4106WAT     H212561   7.907   3.402   8.533
 4107WAT      O12562   8.744   7.202   3.284
 4107WAT     H112563   8.740   7.295   3.320
 4107WAT     H212564   8.652   7.174   3.254
 4108WAT      O12565   6.464   9.117   1.472
 4108WAT     H112566   6.432   9.169   1.552
 4108WAT     H212567   6.533   9.170   1.423
 4109WAT      O12568   3.284   6.306   0.410
 4109WAT     H112569   3.370   6.311   0.461
 4109WAT     H212570   3.288   6.230   0.345
 4110WAT      O12571   8.087   5.906   8.719
 4110WAT     H112572   8.037   5.935   8.637
 4110WAT     H212573   8.181   5.941   8.713
 4111WAT      O12574   5.978   5.709   4.567
 4111WAT     H112575   6.037   5.767   4.511
 4111WAT     H212576   5.931   5.764   4.636
 4112WAT      O12577   1.213   9.686   0.392
 4112WAT     H112578   1.167   9.606   0.354
 4112WAT     H212579   1.228   9.753   0.319
 4113WAT      O12580   0.313   8.552   2.147
 4113WAT     H112581   0.359   8.555   2.058
 4113WAT     H212582   0.220   8.588   2.137
 4114WAT      O12583   5.011   4.546   3.102
 4114WAT     H112584   5.071   4.527   3.023
 4114WAT     H212585   4.921   4.506   3.085
 4115WAT      O12586   4.711   5.915   1.180
 4115WAT     H112587   4.664   5.978   1.241
 4115WAT     H212588   4.658   5.831   1.171
 4116WAT      O12589   3.021   9.705   5.727
 4116WAT     H112590   3.075   9.743   5.802
 4116WAT     H212591   3.058   9.616   5.701
 4117WAT      O12592   8.130   9.020   5.353
 4117WAT     H112593   8.091   8.932   5.326
 4117WAT     H212594   8.081   9.094   5.307
 4118WAT      O12595   0.920   3.584   5.841
 4118WAT     H112596   0.874   3.591   5.753
 4118WAT     H212597   0.994   3.651   5.845
 4119WAT      O12598   4.357   8.207   9.335
 4119WAT     H112599   4.446   8.226   9.376
 4119WAT     H212600   4.354   8.111   9.306
 4120WAT      O12601   1.539   1.838   3.834
 4120WAT     H112602   1.519   1.803   3.926
 4120WAT     H212603   1.454   1.847   3.783
 4121WAT      O12604   7.624   2.674   1.899
 4121WAT     H112605   7.599   2.606   1.968
 4121WAT     H212606   7.708   2.645   1.853
 4122WAT      O12607   1.490   1.852   2.303
 4122WAT     H112608   1.459   1.783   2.369
 4122WAT     H212609   1.411   1.903   2.269
 4123WAT      O12610   0.969   2.919   9.450
 4123WAT     H112611   0.965   2.996   9.387
 4123WAT     H212612   0.932   2.837   9.404
 4124WAT      O12613   6.820   1.184   4.368
 4124WAT     H112614   6.836   1.205   4.465
 4124WAT     H212615   6.898   1.133   4.332
 4125WAT      O12616   6.348   1.026   8.351
 4125WAT     H112617   6.431   1.052   8.400
 4125WAT     H212618   6.327   1.095   8.282
 4126WAT      O12619   4.784   4.154   4.058
 4126WAT     H112620   4.839   4.225   4.102
 4126WAT     H212621   4.728   4.108   4.127
 4127WAT      O12622   0.103   8.144   5.063
 4127WAT     H112623   0.140   8.122   5.154
 4127WAT     H212624   0.166   8.111   4.993
 4128WAT      O12625   3.407   0.720   4.149
 4128WAT     H112626   3.477   0.655   4.119
 4128WAT     H212627   3.414   0.804   4.096
 4129WAT      O12628   7.742   8.511   9.735
 4129WAT     H112629   7.664   8.479   9.790
 4129WAT     H212630   7.724   8.603   9.701
 4130WAT      O12631   1.440   0.073   2.186
 4130WAT     H112632   1.499   0.081   2.266
 4130WAT     H212633   1.345   0.070   2.214
 4131WAT      O12634   3.226   1.272   5.959
 4131WAT     H112635   3.182   1.294   6.045
 4131WAT     H212636   3.233   1.354   5.903
 4132WAT      O12637   2.143   3.496   0.747
 4132WAT     H112638   2.065   3.468   0.692
 4132WAT     H212639   2.137   3.454   0.837
 4133WAT      O12640   8.937   3.471   6.187
 4133WAT     H112641   9.023   3.440   6.227
 4133WAT     H212642   8.873   3.495   6.259
 4134WAT      O12643   7.137   4.354   8.723
 4134WAT     H112644   7.044   4.381   8.750
 4134WAT     H212645   7.200   4.429   8.742
 4135WAT      O12646   2.806   3.606   3.564
 4135WAT     H112647   2.889   3.565   3.600
 4135WAT     H212648   2.801   3.702   3.592
 4136WAT      O12649   3.089   4.963   3.723
 4136WAT     H112650   3.117   4.912   3.642
 4136WAT     H212651   3.170   4.993   3.773
 4137WAT      O12652   5.796   8.114   6.993
 4137WAT     H112653   5.872   8.096   6.930
 4137WAT     H212654   5.709   8.099   6.946
 4138WAT      O12655   4.498   2.334   1.906
 4138WAT     H112656   4.409   2.367   1.936
 4138WAT     H212657   4.565   2.344   1.980
 4139WAT      O12658   4.376   7.836   0.878
 4139WAT     H112659   4.321   7.812   0.798
 4139WAT     H212660   4.317   7.875   0.948
 4140WAT      O12661   1.738   2.064   7.710
 4140WAT     H112662   1.812   2.000   7.727
 4140WAT     H212663   1.694   2.042   7.623
 4141WAT      O12664   6.376   5.874   1.451
 4141WAT     H112665   6.396   5.913   1.360
 4141WAT     H212666   6.306   5.803   1.442
 4142WAT      O12667   5.490   9.420   1.081
 4142WAT     H112668   5.392   9.410   1.061
 4142WAT     H212669   5.503   9.424   1.180
 4143WAT      O12670   3.791   2.661   7.044
 4143WAT     H112671   3.877   2.627   7.083
 4143WAT     H212672   3.803   2.755   7.013
 4144WAT      O12673   1.698   2.440   9.156
 4144WAT     H112674   1.665   2.461   9.064
 4144WAT     H212675   1.624   2.455   9.222
 4145WAT      O12676   2.583   2.205   0.143
 4145WAT     H112677   2.604   2.247   0.055
 4145WAT     H212678   2.602   2.270   0.217
 4146WAT      O12679   7.858   7.194   8.820
 4146WAT     H112680   7.863   7.125   8.892
 4146WAT     H212681   7.766   7.198   8.783
 4147WAT      O12682   0.097   7.090   7.052
 4147WAT     H112683   0.129   7.013   6.997
 4147WAT     H212684   0.002   7.111   7.027
 4148WAT      O12685   8.065   6.179   8.797
 4148WAT     H112686   8.098   6.167   8.891
 4148WAT     H212687   8.043   6.090   8.758
 4149WAT      O12688   9.305   0.788   9.851
 4149WAT     H112689   9.314   0.693   9.882
 4149WAT     H212690   9.258   0.790   9.763
 4150WAT      O12691   1.622   7.581   6.195
 4150WAT     H112692   1.658   7.632   6.272
 4150WAT     H212693   1.613   7.484   6.220
 4151WAT      O12694   6.828   1.582   2.016
 4151WAT     H112695   6.769   1.631   2.080
 4151WAT     H212696   6.912   1.634   2.001
 4152WAT      O12697   4.584   2.444   7.561
 4152WAT     H112698   4.668   2.419   7.609
 4152WAT     H212699   4.588   2.540   7.534
 4153WAT      O12700   0.925   3.867   5.414
 4153WAT     H112701   0.954   3.914   5.498
 4153WAT     H212702   0.836   3.823   5.430
 4154WAT      O12703   0.709   2.856   7.691
 4154WAT     H112704   0.736   2.779   7.750
 4154WAT     H212705   0.791   2.897   7.651
 4155WAT      O12706   7.089   4.825   9.236
 4155WAT     H112707   7.187   4.841   9.245
 4155WAT     H212708   7.060   4.756   9.303
 4156WAT      O12709   3.395   8.060   4.476
 4156WAT     H112710   3.306   8.024   4.449
 4156WAT     H212711   3.383   8.137   4.538
 4157WAT      O12712   1.568   5.535   9.823
 4157WAT     H112713   1.621   5.553   9.739
 4157WAT     H212714   1.605   5.590   9.898
 4158WAT      O12715   6.792   9.257   0.267
 4158WAT     H112716   6.842   9.291   0.188
 4158WAT     H212717   6.857   9.221   0.334
 4159WAT      O12718   7.464   2.242   5.854
 4159WAT     H112719   7.445   2.337   5.880
 4159WAT     H212720   7.383   2.203   5.810
 4160WAT      O12721   1.335   9.643   8.906
 4160WAT     H112722   1.356   9.616   9.001
 4160WAT     H212723   1.306   9.738   8.904
 4161WAT      O12724   1.417   0.689   9.196
 4161WAT     H112725   1.517   0.694   9.195
 4161WAT     H212726   1.387   0.621   9.129
 4162WAT      O12727   6.551   4.223   8.757
 4162WAT     H112728   6.582   4.309   8.797
 4162WAT     H212729   6.457   4.204   8.786
 4163WAT      O12730   3.890   1.649   6.069
 4163WAT     H112731   3.953   1.726   6.081
 4163WAT     H212732   3.869   1.609   6.158
 4164WAT      O12733   4.163   5.632   8.472
 4164WAT     H112734   4.208   5.674   8.393
 4164WAT     H212735   4.100   5.698   8.513
 4165WAT      O12736   3.960   1.838   1.637
 4165WAT     H112737   3.899   1.765   1.606
 4165WAT     H212738   4.052   1.802   1.649
 4166WAT      O12739   1.532   2.611   7.179
 4166WAT     H112740   1.443   2.603   7.225
 4166WAT     H212741   1.603   2.631   7.247
 4167WAT      O12742   7.368   7.248   7.506
 4167WAT     H112743   7.296   7.181   7.525
 4167WAT     H212744   7.457   7.207   7.522
 4168WAT      O12745   9.173   4.102   6.498
 4168WAT     H112746   9.215   4.187   6.529
 4168WAT     H212747   9.238   4.050   6.443
 4169WAT      O12748   5.828   4.602   6.436
 4169WAT     H112749   5.875   4.672   6.381
 4169WAT     H212750   5.875   4.514   6.424
 4170WAT      O12751   0.145   5.917   2.569
 4170WAT     H112752   0.234   5.890   2.532
 4170WAT     H212753   0.089   5.956   2.496
 4171WAT      O12754   6.466   2.160   5.209
 4171WAT     H112755   6.407   2.156   5.129
 4171WAT     H212756   6.433   2.095   5.278
 4172WAT      O12757   7.330   9.458   6.252
 4172WAT     H112758   7.238   9.432   6.223
 4172WAT     H212759   7.396   9.389   6.221
 4173WAT      O12760   3.501   5.023   3.203
 4173WAT     H112761   3.468   4.934   3.171
 4173WAT     H212762   3.589   5.043   3.160
 4174WAT      O12763   4.193   6.774   9.757
 4174WAT     H112764   4.166   6.858   9.803
 4174WAT     H212765   4.272   6.792   9.697
 4175WAT      O12766   3.712   1.574   1.969
 4175WAT     H112767   3.704   1.500   2.036
 4175WAT     H212768   3.809   1.593   1.953
 4176WAT      O12769   6.749   6.585   7.195
 4176WAT     H112770   6.692   6.643   7.254
 4176WAT     H212771   6.796   6.517   7.251
 4177WAT      O12772   8.731   5.428   2.182
 4177WAT     H112773   8.768   5.455   2.271
 4177WAT     H212774   8.738   5.504   2.118
 4178WAT      O12775   1.097   3.147   0.943
 4178WAT     H112776   1.069   3.155   1.039
 4178WAT     H212777   1.175   3.084   0.937
 4179WAT      O12778   6.260   4.689   4.082
 4179WAT     H112779   6.202   4.735   4.149
 4179WAT     H212780   6.223   4.704   3.990
 4180WAT      O12781   2.592   9.214   1.508
 4180WAT     H112782   2.641   9.126   1.506
 4180WAT     H212783   2.587   9.251   1.415
 4181WAT      O12784   0.472   3.314   8.618
 4181WAT     H112785   0.539   3.311   8.693
 4181WAT     H212786   0.519   3.340   8.534
 4182WAT      O12787   0.055   8.708   7.044
 4182WAT     H112788   0.070   8.755   6.957
 4182WAT     H212789  -0.023   8.647   7.036
 4183WAT      O12790   3.814   5.728   6.785
 4183WAT     H112791   3.779   5.762   6.697
 4183WAT     H212792   3.851   5.636   6.773
 4184WAT      O12793   8.009   8.872   7.087
 4184WAT     H112794   8.102   8.840   7.106
 4184WAT     H212795   8.009   8.971   7.075
 4185WAT      O12796   7.071   8.836   6.564
 4185WAT     H112797   7.150   8.804   6.513
 4185WAT     H212798   7.097   8.913   6.622
 4186WAT      O12799   6.042   0.011   8.430
 4186WAT     H112800   6.039  -0.088   8.443
 4186WAT     H212801   6.126   0.047   8.471
 4187WAT      O12802   3.273   2.680   1.319
 4187WAT     H112803   3.244   2.651   1.228
 4187WAT     H212804   3.347   2.746   1.312
 4188WAT      O12805   1.163   0.634   8.634
 4188WAT     H112806   1.074   0.619   8.678
 4188WAT     H212807   1.194   0.727   8.652
 4189WAT      O12808   1.470   6.355   4.431
 4189WAT     H112809   1.521   6.303   4.363
 4189WAT     H212810   1.488   6.317   4.522
 4190WAT      O12811   3.153   7.798   3.375
 4190WAT     H112812   3.226   7.835   3.318
 4190WAT     H212813   3.166   7.827   3.470
 4191WAT      O12814   3.109   7.950   8.129
 4191WAT     H112815   3.100   8.034   8.183
 4191WAT     H212816   3.044   7.882   8.162
 4192WAT      O12817   4.952   6.333   4.318
 4192WAT     H112818   4.854   6.331   4.341
 4192WAT     H212819   4.964   6.379   4.230
 4193WAT      O12820   1.085   1.264   6.351
 4193WAT     H112821   1.039   1.343   6.309
 4193WAT     H212822   1.057   1.257   6.447
 4194WAT      O12823   8.791   7.153   6.783
 4194WAT     H112824   8.738   7.074   6.754
 4194WAT     H212825   8.804   7.215   6.705
 4195WAT      O12826   7.262   1.551   9.414
 4195WAT     H112827   7.350   1.575   9.454
 4195WAT     H212828   7.197   1.625   9.429
 4196WAT      O12829   8.999   0.679   7.091
 4196WAT     H112830   8.948   0.593   7.104
 4196WAT     H212831   8.936   0.755   7.088
 4197WAT      O12832   7.606   9.139   0.313
 4197WAT     H112833   7.562   9.220   0.350
 4197WAT     H212834   7.706   9.149   0.320
 4198WAT      O12835   0.826   7.876   0.276
 4198WAT     H112836   0.804   7.972   0.294
 4198WAT     H212837   0.774   7.844   0.197
 4199WAT      O12838   8.582   5.005   2.622
 4199WAT     H112839   8.670   5.050   2.636
 4199WAT     H212840   8.564   4.999   2.524
 4200WAT      O12841   0.954   0.783   7.785
 4200WAT     H112842   0.898   0.701   7.799
 4200WAT     H212843   0.901   0.851   7.735
 4201WAT      O12844   8.712   3.015   0.846
 4201WAT     H112845   8.786   2.961   0.806
 4201WAT     H212846   8.625   2.989   0.804
 4202WAT      O12847   2.865   2.223   2.934
 4202WAT     H112848   2.818   2.195   2.851
 4202WAT     H212849   2.898   2.317   2.923
 4203WAT      O12850   0.023   1.774   3.047
 4203WAT     H112851   0.021   1.818   3.137
 4203WAT     H212852   0.116   1.743   3.027
 4204WAT      O12853   1.265   2.079   0.576
 4204WAT     H112854   1.351   2.084   0.525
 4204WAT     H212855   1.244   2.169   0.615
 4205WAT      O12856   3.196   4.132   4.906
 4205WAT     H112857   3.195   4.205   4.973
 4205WAT     H212858   3.290   4.116   4.875
 4206WAT      O12859   1.068   9.521   6.820
 4206WAT     H112860   1.026   9.431   6.819
 4206WAT     H212861   0.996   9.591   6.817
 4207WAT      O12862   2.072   3.678   4.496
 4207WAT     H112863   1.973   3.685   4.507
 4207WAT     H212864   2.093   3.651   4.402
 4208WAT      O12865   9.205   1.140   2.556
 4208WAT     H112866   9.237   1.211   2.619
 4208WAT     H212867   9.251   1.053   2.578
 4209WAT      O12868   6.004   7.755   9.860
 4209WAT     H112869   6.082   7.761   9.924
 4209WAT     H212870   6.003   7.836   9.802
 4210WAT      O12871   1.272   1.673   2.652
 4210WAT     H112872   1.263   1.771   2.663
 4210WAT     H212873   1.261   1.628   2.740
 4211WAT      O12874   5.697   9.534   4.426
 4211WAT     H112875   5.614   9.583   4.450
 4211WAT     H212876   5.765   9.546   4.498
 4212WAT      O12877   1.498   4.937   9.721
 4212WAT     H112878   1.589   4.911   9.687
 4212WAT     H212879   1.499   5.035   9.744
 4213WAT      O12880   9.689   7.571   6.148
 4213WAT     H112881   9.672   7.649   6.088
 4213WAT     H212882   9.622   7.499   6.130
 4214WAT      O12883   3.983   8.421   3.076
 4214WAT     H112884   4.074   8.385   3.059
 4214WAT     H212885   3.969   8.433   3.174
 4215WAT      O12886   6.040   1.967   7.076
 4215WAT     H112887   5.986   1.972   7.160
 4215WAT     H212888   6.091   1.880   7.074
 4216WAT      O12889   5.360   2.134   5.718
 4216WAT     H112890   5.366   2.036   5.740
 4216WAT     H212891   5.433   2.183   5.764
 4217WAT      O12892   2.043   6.317   3.971
 4217WAT     H112893   1.986   6.398   3.962
 4217WAT     H212894   2.042   6.266   3.885
 4218WAT      O12895   1.126   0.717   7.494
 4218WAT     H112896   1.180   0.781   7.550
 4218WAT     H212897   1.175   0.698   7.409
 4219WAT      O12898   9.558   4.634   5.083
 4219WAT     H112899   9.649   4.676   5.089
 4219WAT     H212900   9.518   4.627   5.174
 4220WAT      O12901   3.906   8.291   1.690
 4220WAT     H112902   3.990   8.345   1.691
 4220WAT     H212903   3.924   8.202   1.731
 4221WAT      O12904   4.670   4.085   2.348
 4221WAT     H112905   4.572   4.071   2.362
 4221WAT     H212906   4.707   4.139   2.424
 4222WAT      O12907   4.806   2.770   0.099
 4222WAT     H112908   4.904   2.769   0.078
 4222WAT     H212909   4.756   2.722   0.027
 4223WAT      O12910   8.929   8.564   3.619
 4223WAT     H112911   8.921   8.662   3.633
 4223WAT     H212912   8.979   8.546   3.535
 4224WAT      O12913   6.830   3.051   8.335
 4224WAT     H112914   6.791   2.998   8.259
 4224WAT     H212915   6.887   3.125   8.298
 4225WAT      O12916   3.673   1.059   5.902
 4225WAT     H112917   3.764   1.094   5.925
 4225WAT     H212918   3.603   1.126   5.929
 4226WAT      O12919   3.581   9.075   3.253
 4226WAT     H112920   3.518   9.004   3.222
 4226WAT     H212921   3.529   9.156   3.281
 4227WAT      O12922   1.171   5.175   5.767
 4227WAT     H112923   1.191   5.214   5.856
 4227WAT     H212924   1.184   5.076   5.770
 4228WAT      O12925   7.315   8.217   9.290
 4228WAT     H112926   7.371   8.176   9.362
 4228WAT     H212927   7.289   8.147   9.224
 4229WAT      O12928   4.249   2.168   5.793
 4229WAT     H112929   4.168   2.226   5.783
 4229WAT     H212930   4.222   2.077   5.822
 4230WAT      O12931   3.713   7.243   6.511
 4230WAT     H112932   3.678   7.316   6.569
 4230WAT     H212933   3.750   7.282   6.427
 4231WAT      O12934   3.250   9.547   2.429
 4231WAT     H112935   3.171   9.606   2.445
 4231WAT     H212936   3.298   9.532   2.515
 4232WAT      O12937   4.788   7.106   0.093
 4232WAT     H112938   4.847   7.055   0.155
 4232WAT     H212939   4.825   7.198   0.080
 4233WAT      O12940   0.160   2.514   5.418
 4233WAT     H112941   0.116   2.505   5.329
 4233WAT     H212942   0.191   2.424   5.450
 4234WAT      O12943   3.623   5.528   8.319
 4234WAT     H112944   3.707   5.508   8.268
 4234WAT     H212945   3.598   5.624   8.304
 4235WAT      O12946   5.813   5.819   3.410
 4235WAT     H112947   5.716   5.833   3.426
 4235WAT     H212948   5.847   5.747   3.471
 4236WAT      O12949   6.459   0.623   3.716
 4236WAT     H112950   6.506   0.537   3.692
 4236WAT     H212951   6.390   0.643   3.646
 4237WAT      O12952   0.039   6.946   5.648
 4237WAT     H112953  -0.060   6.957   5.660
 4237WAT     H212954   0.087   6.986   5.726
 4238WAT      O12955   4.421   7.130   8.342
 4238WAT     H112956   4.371   7.202   8.294
 4238WAT     H212957   4.355   7.070   8.389
 4239WAT      O12958   8.543   2.318   2.929
 4239WAT     H112959   8.458   2.273   2.902
 4239WAT     H212960   8.589   2.264   2.999
 4240WAT      O12961   9.302   7.153   6.493
 4240WAT     H112962   9.237   7.085   6.528
 4240WAT     H212963   9.301   7.234   6.551
 4241WAT      O12964   8.048   1.804   8.793
 4241WAT     H112965   8.053   1.706   8.776
 4241WAT     H212966   7.962   1.826   8.838
 4242WAT      O12967   8.742   6.793   4.033
 4242WAT     H112968   8.698   6.819   4.119
 4242WAT     H212969   8.680   6.736   3.980
 4243WAT      O12970   2.092   5.900   1.306
 4243WAT     H112971   2.137   5.966   1.367
 4243WAT     H212972   2.031   5.949   1.244
 4244WAT      O12973   1.848   6.877   9.659
 4244WAT     H112974   1.749   6.882   9.640
 4244WAT     H212975   1.879   6.965   9.695
 4245WAT      O12976   4.895   2.444   0.992
 4245WAT     H112977   4.836   2.473   1.068
 4245WAT     H212978   4.925   2.524   0.940
 4246WAT      O12979   0.373   3.224   3.637
 4246WAT     H112980   0.335   3.132   3.646
 4246WAT     H212981   0.457   3.221   3.584
 4247WAT      O12982   7.993   0.086   4.103
 4247WAT     H112983   8.029  -0.004   4.128
 4247WAT     H212984   8.058   0.157   4.130
 4248WAT      O12985   3.000   2.041   5.170
 4248WAT     H112986   3.035   2.134   5.183
 4248WAT     H212987   2.930   2.022   5.238
 4249WAT      O12988   4.175   2.517   3.624
 4249WAT     H112989   4.097   2.515   3.561
 4249WAT     H212990   4.251   2.566   3.582
 4250WAT      O12991   6.105   4.503   8.878
 4250WAT     H112992   6.201   4.521   8.853
 4250WAT     H212993   6.047   4.573   8.837
 4251WAT      O12994   3.981   2.284   2.559
 4251WAT     H112995   4.023   2.238   2.481
 4251WAT     H212996   3.921   2.357   2.526
 4252WAT      O12997   3.178   5.101   3.381
 4252WAT     H112998   3.130   5.154   3.451
 4252WAT     H212999   3.142   5.008   3.379
 4253WAT      O13000   1.297   5.538   9.771
 4253WAT     H113001   1.394   5.538   9.795
 4253WAT     H213002   1.275   5.455   9.719
 4254WAT      O13003   2.108   2.406   4.318
 4254WAT     H113004   2.069   2.490   4.355
 4254WAT     H213005   2.043   2.330   4.330
 4255WAT      O13006   4.291   7.639   3.521
 4255WAT     H113007   4.210   7.673   3.473
 4255WAT     H213008   4.283   7.540   3.533
 4256WAT      O13009   9.195   8.658   6.296
 4256WAT     H113010   9.262   8.587   6.276
 4256WAT     H213011   9.112   8.642   6.242
 4257WAT      O13012   6.104   3.777   7.328
 4257WAT     H113013   6.028   3.842   7.323
 4257WAT     H213014   6.077   3.699   7.384
 4258WAT      O13015   7.054   6.528   1.551
 4258WAT     H113016   7.042   6.627   1.564
 4258WAT     H213017   7.018   6.502   1.462
 4259WAT      O13018   2.724   3.420   5.226
 4259WAT     H113019   2.786   3.403   5.150
 4259WAT     H213020   2.744   3.509   5.266
 4260WAT      O13021   3.699   8.673   7.390
 4260WAT     H113022   3.762   8.695   7.316
 4260WAT     H213023   3.605   8.684   7.358
 4261WAT      O13024   6.213   2.351   3.001
 4261WAT     H113025   6.188   2.280   2.935
 4261WAT     H213026   6.287   2.407   2.963
 4262WAT      O13027   4.544   8.216   0.565
 4262WAT     H113028   4.545   8.278   0.487
 4262WAT     H213029   4.455   8.221   0.610
 4263WAT      O13030   9.750   9.228   9.729
 4263WAT     H113031   9.692   9.257   9.805
 4263WAT     H213032   9.692   9.204   9.651
 4264WAT      O13033   7.177   3.728   1.246
 4264WAT     H113034   7.136   3.650   1.198
 4264WAT     H213035   7.257   3.697   1.296
 4265WAT      O13036   4.266   3.228   3.440
 4265WAT     H113037   4.341   3.284   3.476
 4265WAT     H213038   4.271   3.225   3.340
 4266WAT      O13039   8.556   1.244   6.457
 4266WAT     H113040   8.483   1.188   6.417
 4266WAT     H213041   8.517   1.304   6.527
 4267WAT      O13042   4.698   3.127   2.738
 4267WAT     H113043   4.654   3.203   2.785
 4267WAT     H213044   4.716   3.053   2.804
 4268WAT      O13045   8.848   6.195   8.471
 4268WAT     H113046   8.862   6.286   8.433
 4268WAT     H213047   8.863   6.197   8.570
 4269WAT      O13048   7.355   3.326   8.496
 4269WAT     H113049   7.289   3.332   8.570
 4269WAT     H213050   7.445   3.304   8.533
 4270WAT      O13051   9.507   1.044   1.503
 4270WAT     H113052   9.496   1.082   1.412
 4270WAT     H213053   9.425   1.062   1.557
 4271WAT      O13054   9.572   1.073   5.244
 4271WAT     H113055   9.527   1.158   5.217
 4271WAT     H213056   9.642   1.049   5.177
 4272WAT      O13057   3.022   4.108   2.761
 4272WAT     H113058   3.049   4.150   2.674
 4272WAT     H213059   3.001   4.011   2.746
 4273WAT      O13060   7.538   7.166   2.692
 4273WAT     H113061   7.514   7.255   2.730
 4273WAT     H213062   7.504   7.094   2.753
 4274WAT      O13063   5.359   5.494   1.633
 4274WAT     H113064   5.261   5.485   1.613
 4274WAT     H213065   5.380   5.447   1.718
 4275WAT      O13066   9.783   3.953   0.029
 4275WAT     H113067   9.697   3.921  -0.012
 4275WAT     H213068   9.775   3.951   0.128
 4276WAT      O13069   5.820   4.060   6.762
 4276WAT     H113070   5.835   4.098   6.671
 4276WAT     H213071   5.841   3.962   6.762
 4277WAT      O13072   8.919   2.889   6.548
 4277WAT     H113073   9.005   2.841   6.530
 4277WAT     H213074   8.908   2.962   6.480
 4278WAT      O13075   0.172   3.795   2.697
 4278WAT     H113076   0.072   3.794   2.691
 4278WAT     H213077   0.203   3.716   2.751
 4279WAT      O13078   9.145   1.869   2.615
 4279WAT     H113079   9.067   1.926   2.587
 4279WAT     H213080   9.118   1.811   2.691
 4280WAT      O13081   2.841   4.600   0.675
 4280WAT     H113082   2.761   4.645   0.635
 4280WAT     H213083   2.900   4.566   0.603
 4281WAT      O13084   1.835   9.754   6.248
 4281WAT     H113085   1.870   9.752   6.342
 4281WAT     H213086   1.895   9.699   6.189
 4282WAT      O13087   0.651   0.565   3.884
 4282WAT     H113088   0.574   0.504   3.905
 4282WAT     H213089   0.684   0.546   3.791
 4283WAT      O13090   9.468   6.702   1.597
 4283WAT     H113091   9.428   6.790   1.621
 4283WAT     H213092   9.447   6.680   1.502
 4284WAT      O13093   0.058   5.545   1.590
 4284WAT     H113094   0.055   5.645   1.593
 4284WAT     H213095   0.027   5.508   1.677
 4285WAT      O13096   0.796   0.262   1.887
 4285WAT     H113097   0.758   0.262   1.979
 4285WAT     H213098   0.856   0.183   1.875
 4286WAT      O13099   2.006   2.104   5.592
 4286WAT     H113100   2.036   2.015   5.626
 4286WAT     H213101   1.991   2.166   5.669
 4287WAT      O13102   7.507   5.995   0.435
 4287WAT     H113103   7.416   6.021   0.403
 4287WAT     H213104   7.521   5.897   0.418
 4288WAT      O13105   1.076   3.230   0.680
 4288WAT     H113106   0.984   3.225   0.641
 4288WAT     H213107   1.073   3.205   0.777
 4289WAT      O13108   9.642   1.334   6.472
 4289WAT     H113109   9.623   1.342   6.374
 4289WAT     H213110   9.556   1.338   6.523
 4290WAT      O13111   1.832   2.221   5.411
 4290WAT     H113112   1.775   2.146   5.377
 4290WAT     H213113   1.888   2.188   5.487
 4291WAT      O13114   6.009   4.908   5.511
 4291WAT     H113115   5.965   4.869   5.592
 4291WAT     H213116   6.071   4.981   5.540
 4292WAT      O13117   7.942   8.246   1.324
 4292WAT     H113118   7.864   8.303   1.297
 4292WAT     H213119   7.968   8.187   1.248
 4293WAT      O13120   2.324   4.139   1.411
 4293WAT     H113121   2.251   4.072   1.426
 4293WAT     H213122   2.310   4.183   1.322
 4294WAT      O13123   3.938   4.712   4.203
 4294WAT     H113124   3.895   4.756   4.282
 4294WAT     H213125   3.998   4.639   4.235
 4295WAT      O13126   5.745   2.914   3.507
 4295WAT     H113127   5.652   2.910   3.469
 4295WAT     H213128   5.742   2.896   3.605
 4296WAT      O13129   9.076   3.966   6.718
 4296WAT     H113130   9.110   4.013   6.637
 4296WAT     H213131   8.994   4.012   6.752
 4297WAT      O13132   5.301   1.188   4.334
 4297WAT     H113133   5.325   1.111   4.275
 4297WAT     H213134   5.351   1.270   4.306
 4298WAT      O13135   5.202   2.395   7.210
 4298WAT     H113136   5.204   2.436   7.119
 4298WAT     H213137   5.286   2.343   7.226
 4299WAT      O13138   8.470   1.914   4.031
 4299WAT     H113139   8.442   1.865   3.948
 4299WAT     H213140   8.388   1.948   4.078
 4300WAT      O13141   8.210   8.872   1.177
 4300WAT     H113142   8.179   8.817   1.100
 4300WAT     H213143   8.137   8.934   1.205
 4301WAT      O13144   5.032   9.262   0.905
 4301WAT     H113145   5.115   9.318   0.899
 4301WAT     H213146   4.963   9.299   0.843
 4302WAT      O13147   1.319   9.182   7.159
 4302WAT     H113148   1.353   9.091   7.181
 4302WAT     H213149   1.229   9.195   7.201
 4303WAT      O13150   7.555   8.329   3.525
 4303WAT     H113151   7.579   8.267   3.599
 4303WAT     H213152   7.460   8.359   3.535
 4304WAT      O13153  -0.002   6.765   0.335
 4304WAT     H113154   0.018   6.669   0.319
 4304WAT     H213155   0.064   6.822   0.287
 4305WAT      O13156   3.508   6.190   9.557
 4305WAT     H113157   3.466   6.204   9.646
 4305WAT     H213158   3.547   6.277   9.524
 4306WAT      O13159   3.731   2.527   0.839
 4306WAT     H113160   3.775   2.560   0.923
 4306WAT     H213161   3.692   2.436   0.856
 4307WAT      O13162   0.372   1.671   4.792
 4307WAT     H113163   0.334   1.601   4.732
 4307WAT     H213164   0.303   1.700   4.858
 4308WAT      O13165   8.887   7.381   8.579
 4308WAT     H113166   8.959   7.315   8.599
 4308WAT     H213167   8.807   7.361   8.636
 4309WAT      O13168   3.574   1.552   1.248
 4309WAT     H113169   3.521   1.627   1.210
 4309WAT     H213170   3.542   1.466   1.208
 4310WAT      O13171   3.424   9.283   3.324
 4310WAT     H113172   3.449   9.379   3.316
 4310WAT     H213173   3.344   9.265   3.266
 4311WAT      O13174   1.845   4.929   5.436
 4311WAT     H113175   1.919   4.866   5.412
 4311WAT     H213176   1.797   4.957   5.353
 4312WAT      O13177   0.694   5.673   4.961
 4312WAT     H113178   0.609   5.696   4.913
 4312WAT     H213179   0.772   5.694   4.902
 4313WAT      O13180   3.472   6.597   7.025
 4313WAT     H113181   3.401   6.531   7.000
 4313WAT     H213182   3.557   6.549   7.047
 4314WAT      O13183   7.372   6.389   6.531
 4314WAT     H113184   7.409   6.390   6.438
 4314WAT     H213185   7.389   6.477   6.575
 4315WAT      O13186   3.277   5.355   1.718
 4315WAT     H113187   3.317   5.270   1.683
 4315WAT     H213188   3.304   5.431   1.660
 4316WAT      O13189   7.619   6.036   6.382
 4316WAT     H113190   7.716   6.045   6.358
 4316WAT     H213191   7.599   6.092   6.462
 4317WAT      O13192   8.487   4.282   0.978
 4317WAT     H113193   8.580   4.313   0.995
 4317WAT     H213194   8.456   4.318   0.889
 4318WAT      O13195   2.469   0.585   2.547
 4318WAT     H113196   2.447   0.512   2.612
 4318WAT     H213197   2.426   0.670   2.576
 4319WAT      O13198   8.026   5.513   3.032
 4319WAT     H113199   7.965   5.437   3.056
 4319WAT     H213200   8.091   5.483   2.962
 4320WAT      O13201   4.710   6.675   2.463
 4320WAT     H113202   4.637   6.743   2.456
 4320WAT     H213203   4.693   6.601   2.398
 4321WAT      O13204   3.507   6.184   6.321
 4321WAT     H113205   3.511   6.253   6.250
 4321WAT     H213206   3.535   6.095   6.284
 4322WAT      O13207   2.761   3.148   1.490
 4322WAT     H113208   2.781   3.134   1.587
 4322WAT     H213209   2.694   3.080   1.459
 4323WAT      O13210   9.305   6.505   7.590
 4323WAT     H113211   9.220   6.453   7.589
 4323WAT     H213212   9.295   6.584   7.650
 4324WAT      O13213   2.485   6.008   0.884
 4324WAT     H113214   2.505   5.922   0.932
 4324WAT     H213215   2.556   6.075   0.906
 4325WAT      O13216   9.711   0.895   2.323
 4325WAT     H113217   9.760   0.920   2.239
 4325WAT     H213218   9.701   0.796   2.327
 4326WAT      O13219   3.029   7.381   1.208
 4326WAT     H113220   2.964   7.372   1.284
 4326WAT     H213221   3.003   7.318   1.135
 4327WAT      O13222   7.854   4.372   3.210
 4327WAT     H113223   7.853   4.322   3.297
 4327WAT     H213224   7.949   4.379   3.177
 4328WAT      O13225   0.308   3.847   2.157
 4328WAT     H113226   0.303   3.844   2.257
 4328WAT     H213227   0.377   3.781   2.126
 4329WAT      O13228   2.195   4.995   4.127
 4329WAT     H113229   2.175   4.974   4.223
 4329WAT     H213230   2.273   5.058   4.122
 4330WAT      O13231   9.027   2.962   7.924
 4330WAT     H113232   9.036   2.867   7.896
 4330WAT     H213233   8.956   3.007   7.870
 4331WAT      O13234   0.625   5.172   0.595
 4331WAT     H113235   0.673   5.230   0.531
 4331WAT     H213236   0.626   5.214   0.686
 4332WAT      O13237   4.158   1.105   2.265
 4332WAT     H113238   4.205   1.192   2.283
 4332WAT     H213239   4.225   1.034   2.246
 4333WAT      O13240   9.298   9.025   0.379
 4333WAT     H113241   9.212   9.065   0.350
 4333WAT     H213242   9.372   9.058   0.320
 4334WAT      O13243   0.997   1.257   3.546
 4334WAT     H113244   0.940   1.204   3.609
 4334WAT     H213245   0.947   1.271   3.460
 4335WAT      O13246   7.549   9.608   4.337
 4335WAT     H113247   7.525   9.669   4.413
 4335WAT     H213248   7.579   9.520   4.373
 4336WAT      O13249   2.356   9.461   9.335
 4336WAT     H113250   2.329   9.501   9.423
 4336WAT     H213251   2.326   9.521   9.261
 4337WAT      O13252   5.393   4.562   0.462
 4337WAT     H113253   5.346   4.580   0.549
 4337WAT     H213254   5.338   4.596   0.386
 4338WAT      O13255   8.380   4.453   4.986
 4338WAT     H113256   8.342   4.484   5.073
 4338WAT     H213257   8.465   4.401   5.003
 4339WAT      O13258   7.461   6.605   4.306
 4339WAT     H113259   7.487   6.560   4.220
 4339WAT     H213260   7.390   6.673   4.288
 4340WAT      O13261   4.124   6.015   4.360
 4340WAT     H113262   4.053   6.057   4.417
 4340WAT     H213263   4.214   6.043   4.393
 4341WAT      O13264   9.238   7.747   4.255
 4341WAT     H113265   9.268   7.659   4.217
 4341WAT     H213266   9.227   7.813   4.181
 4342WAT      O13267   1.823   3.873   2.811
 4342WAT     H113268   1.866   3.783   2.810
 4342WAT     H213269   1.729   3.865   2.844
 4343WAT      O13270   9.122   8.853   7.925
 4343WAT     H113271   9.218   8.865   7.952
 4343WAT     H213272   9.069   8.933   7.953
 4344WAT      O13273   9.473   8.389   2.323
 4344WAT     H113274   9.524   8.357   2.402
 4344WAT     H213275   9.398   8.326   2.303
 4345WAT      O13276   8.326   1.421   8.828
 4345WAT     H113277   8.232   1.453   8.813
 4345WAT     H213278   8.390   1.483   8.783
 4346WAT      O13279   6.698   9.309   6.473
 4346WAT     H113280   6.695   9.253   6.556
 4346WAT     H213281   6.605   9.334   6.446
 4347WAT      O13282   1.519   9.495   1.441
 4347WAT     H113283   1.434   9.452   1.470
 4347WAT     H213284   1.538   9.471   1.345
 4348WAT      O13285   3.700   4.272   9.422
 4348WAT     H113286   3.732   4.251   9.330
 4348WAT     H213287   3.600   4.267   9.425
 4349WAT      O13288   7.693   8.375   4.551
 4349WAT     H113289   7.716   8.292   4.601
 4349WAT     H213290   7.685   8.451   4.615
 4350WAT      O13291   5.951   7.082   5.007
 4350WAT     H113292   5.994   7.056   4.921
 4350WAT     H213293   5.867   7.030   5.019
 4351WAT      O13294   7.980   7.627   8.418
 4351WAT     H113295   7.884   7.603   8.399
 4351WAT     H213296   7.996   7.620   8.516
 4352WAT      O13297   2.433   2.450   9.788
 4352WAT     H113298   2.522   2.405   9.772
 4352WAT     H213299   2.424   2.473   9.885
 4353WAT      O13300   0.068   2.853   9.174
 4353WAT     H113301   0.110   2.827   9.261
 4353WAT     H213302   0.036   2.948   9.179
 4354WAT      O13303   8.446   3.759   8.024
 4354WAT     H113304   8.507   3.751   7.945
 4354WAT     H213305   8.377   3.828   8.006
 4355WAT      O13306   1.037   3.006   4.889
 4355WAT     H113307   0.946   3.024   4.852
 4355WAT     H213308   1.106   3.031   4.821
 4356WAT      O13309   8.509   7.577   5.121
 4356WAT     H113310   8.453   7.508   5.075
 4356WAT     H213311   8.488   7.667   5.084
 4357WAT      O13312   1.153   2.238   3.489
 4357WAT     H113313   1.171   2.333   3.511
 4357WAT     H213314   1.100   2.232   3.404
 4358WAT      O13315   4.927   2.948   9.435
 4358WAT     H113316   4.979   3.033   9.443
 4358WAT     H213317   4.945   2.906   9.346
 4359WAT      O13318   3.098   0.929   9.469
 4359WAT     H113319   3.156   0.959   9.545
 4359WAT     H213320   3.123   0.835   9.443
 4360WAT      O13321   8.384   9.825   2.415
 4360WAT     H113322   8.323   9.779   2.350
 4360WAT     H213323   8.477   9.790   2.404
 4361WAT      O13324   3.065   6.020   9.759
 4361WAT     H113325   3.126   6.011   9.680
 4361WAT     H213326   3.060   6.115   9.787
 4362WAT      O13327   8.586   0.507   8.638
 4362WAT     H113328   8.521   0.441   8.599
 4362WAT     H213329   8.540   0.594   8.654
 4363WAT      O13330   4.859   9.380   9.461
 4363WAT     H113331   4.940   9.432   9.487
 4363WAT     H213332   4.794   9.439   9.413
 4364WAT      O13333   2.106   1.161   7.492
 4364WAT     H113334   2.034   1.120   7.436
 4364WAT     H213335   2.094   1.133   7.588
 4365WAT      O13336   8.818   3.237   8.951
 4365WAT     H113337   8.756   3.277   9.019
 4365WAT     H213338   8.909   3.276   8.962
 4366WAT      O13339   1.571   2.207   1.566
 4366WAT     H113340   1.554   2.251   1.478
 4366WAT     H213341   1.576   2.276   1.638
 4367WAT      O13342   8.272   7.545   3.600
 4367WAT     H113343   8.254   7.557   3.698
 4367WAT     H213344   8.265   7.634   3.554
 4368WAT      O13345   5.983   0.960   6.788
 4368WAT     H113346   5.889   0.953   6.821
 4368WAT     H213347   6.011   0.872   6.749
 4369WAT      O13348   4.975   5.290   2.169
 4369WAT     H113349   5.029   5.350   2.110
 4369WAT     H213350   4.904   5.245   2.116
 4370WAT      O13351   6.259   5.045   9.818
 4370WAT     H113352   6.201   4.964   9.803
 4370WAT     H213353   6.343   5.017   9.865
 4371WAT      O13354   1.483   2.274   7.517
 4371WAT     H113355   1.401   2.309   7.471
 4371WAT     H213356   1.556   2.342   7.510
 4372WAT      O13357   4.031   0.555   2.496
 4372WAT     H113358   4.115   0.524   2.452
 4372WAT     H213359   3.957   0.492   2.474
 4373WAT      O13360   2.008   5.722   4.866
 4373WAT     H113361   2.086   5.755   4.919
 4373WAT     H213362   1.953   5.661   4.923
 4374WAT      O13363   1.618   4.781   1.390
 4374WAT     H113364   1.557   4.827   1.326
 4374WAT     H213365   1.689   4.844   1.421
 4375WAT      O13366   2.614   4.338   6.133
 4375WAT     H113367   2.597   4.349   6.035
 4375WAT     H213368   2.585   4.247   6.162
 4376WAT      O13369   2.182   1.659   7.965
 4376WAT     H113370   2.273   1.647   8.004
 4376WAT     H213371   2.147   1.571   7.932
 4377WAT      O13372   9.563   3.542   5.270
 4377WAT     H113373   9.588   3.472   5.337
 4377WAT     H213374   9.531   3.497   5.186
 4378WAT      O13375   4.223   7.585   8.740
 4378WAT     H113376   4.174   7.621   8.820
 4378WAT     H213377   4.278   7.507   8.768
 4379WAT      O13378   8.305   3.843   5.429
 4379WAT     H113379   8.339   3.876   5.517
 4379WAT     H213380   8.297   3.920   5.365
 4380WAT      O13381   2.680   5.934   2.742
 4380WAT     H113382   2.775   5.964   2.732
 4380WAT     H213383   2.626   6.009   2.780
 4381WAT      O13384   7.515   3.760   2.016
 4381WAT     H113385   7.603   3.807   2.006
 4381WAT     H213386   7.493   3.712   1.930
 4382WAT      O13387   3.083   4.100   9.461
 4382WAT     H113388   3.088   4.196   9.433
 4382WAT     H213389   3.170   4.072   9.501
 4383WAT      O13390   2.789   9.102   0.271
 4383WAT     H113391   2.788   9.137   0.177
 4383WAT     H213392   2.733   9.018   0.275
 4384WAT      O13393   9.491   7.092   9.329
 4384WAT     H113394   9.529   7.020   9.387
 4384WAT     H213395   9.449   7.052   9.248
 4385WAT      O13396   6.160   8.434   9.282
 4385WAT     H113397   6.079   8.416   9.338
 4385WAT     H213398   6.239   8.388   9.323
 4386WAT      O13399   5.037   7.381   8.199
 4386WAT     H113400   4.975   7.332   8.260
 4386WAT     H213401   5.052   7.473   8.234
 4387WAT      O13402   6.532   2.835   3.695
 4387WAT     H113403   6.612   2.783   3.663
 4387WAT     H213404   6.532   2.926   3.653
 4388WAT      O13405   0.354   6.821   5.141
 4388WAT     H113406   0.406   6.849   5.222
 4388WAT     H213407   0.351   6.896   5.075
 4389WAT      O13408   0.110   5.217   4.507
 4389WAT     H113409   0.123   5.277   4.428
 4389WAT     H213410   0.022   5.235   4.549
 4390WAT      O13411   5.901   1.532   8.838
 4390WAT     H113412   5.971   1.572   8.780
 4390WAT     H213413   5.856   1.605   8.891
 4391WAT      O13414   5.011   5.101   2.367
 4391WAT     H113415   4.974   5.167   2.301
 4391WAT     H213416   4.937   5.059   2.419
 4392WAT      O13417   8.899   4.406   2.173
 4392WAT     H113418   8.960   4.339   2.214
 4392WAT     H213419   8.835   4.360   2.112
 4393WAT      O13420   2.329   9.794   2.457
 4393WAT     H113421   2.285   9.705   2.450
 4393WAT     H213422   2.412   9.795   2.401
 4394WAT      O13423   6.579   1.551   1.356
 4394WAT     H113424   6.614   1.582   1.444
 4394WAT     H213425   6.526   1.625   1.313
 4395WAT      O13426   5.830   1.122   2.709
 4395WAT     H113427   5.872   1.059   2.644
 4395WAT     H213428   5.881   1.208   2.709
 4396WAT      O13429   1.367   8.172   8.410
 4396WAT     H113430   1.386   8.266   8.383
 4396WAT     H213431   1.420   8.109   8.352
 4397WAT      O13432   6.206   8.876   1.667
 4397WAT     H113433   6.190   8.958   1.722
 4397WAT     H213434   6.266   8.899   1.590
 4398WAT      O13435   2.167   9.076   8.958
 4398WAT     H113436   2.249   9.023   8.938
 4398WAT     H213437   2.160   9.092   9.056
 4399WAT      O13438   7.106   5.043   8.673
 4399WAT     H113439   7.182   5.055   8.609
 4399WAT     H213440   7.131   5.081   8.762
 4400WAT      O13441   4.545   0.335   6.242
 4400WAT     H113442   4.502   0.416   6.202
 4400WAT     H213443   4.569   0.271   6.169
 4401WAT      O13444   0.502   6.989   1.320
 4401WAT     H113445   0.546   7.078   1.332
 4401WAT     H213446   0.569   6.916   1.337
 4402WAT      O13447   2.316   9.359   6.439
 4402WAT     H113448   2.267   9.287   6.390
 4402WAT     H213449   2.413   9.356   6.416
 4403WAT      O13450   0.532   1.555   2.143
 4403WAT     H113451   0.484   1.494   2.206
 4403WAT     H213452   0.629   1.531   2.142
 4404WAT      O13453   8.840   8.215   6.003
 4404WAT     H113454   8.771   8.280   6.034
 4404WAT     H213455   8.928   8.237   6.047
 4405WAT      O13456   4.091   1.411   5.043
 4405WAT     H113457   4.188   1.387   5.046
 4405WAT     H213458   4.077   1.485   4.977
 4406WAT      O13459   7.889   2.352   1.282
 4406WAT     H113460   7.810   2.351   1.221
 4406WAT     H213461   7.877   2.422   1.351
 4407WAT      O13462   0.275   5.914   7.446
 4407WAT     H113463   0.296   5.910   7.348
 4407WAT     H213464   0.360   5.923   7.498
 4408WAT      O13465   7.135   7.207   2.642
 4408WAT     H113466   7.173   7.240   2.556
 4408WAT     H213467   7.206   7.156   2.692
 4409WAT      O13468   6.796   6.398   6.078
 4409WAT     H113469   6.759   6.486   6.108
 4409WAT     H213470   6.826   6.346   6.157
 4410WAT      O13471   8.039   8.787   2.288
 4410WAT     H113472   8.041   8.692   2.256
 4410WAT     H213473   7.946   8.822   2.283
 4411WAT      O13474   9.174   6.839   1.548
 4411WAT     H113475   9.074   6.851   1.547
 4411WAT     H213476   9.218   6.924   1.518
 4412WAT      O13477   2.996   2.232   7.756
 4412WAT     H113478   2.956   2.144   7.783
 4412WAT     H213479   2.926   2.303   7.762
 4413WAT      O13480   0.336   4.063   7.315
 4413WAT     H113481   0.260   4.033   7.258
 4413WAT     H213482   0.351   4.161   7.301
 4414WAT      O13483   0.934   8.767   9.611
 4414WAT     H113484   1.029   8.745   9.633
 4414WAT     H213485   0.918   8.746   9.514
 4415WAT      O13486   2.040   7.571   3.130
 4415WAT     H113487   1.964   7.529   3.081
 4415WAT     H213488   2.072   7.651   3.079
 4416WAT      O13489   2.822   3.243   8.029
 4416WAT     H113490   2.918   3.256   8.007
 4416WAT     H213491   2.813   3.224   8.127
 4417WAT      O13492   2.703   8.883   0.509
 4417WAT     H113493   2.732   8.947   0.581
 4417WAT     H213494   2.605   8.896   0.491
 4418WAT      O13495   3.817   3.485   2.122
 4418WAT     H113496   3.847   3.393   2.095
 4418WAT     H213497   3.768   3.479   2.209
 4419WAT      O13498   5.934   6.874   8.478
 4419WAT     H113499   5.976   6.832   8.558
 4419WAT     H213500   5.840   6.900   8.498
 4420WAT      O13501   1.456   2.788   6.988
 4420WAT     H113502   1.492   2.748   6.904
 4420WAT     H213503   1.484   2.733   7.066
 4421WAT      O13504   6.173   1.268   3.922
 4421WAT     H113505   6.210   1.327   3.994
 4421WAT     H213506   6.126   1.190   3.964
 4422WAT      O13507   6.147   9.566   6.332
 4422WAT     H113508   6.162   9.539   6.427
 4422WAT     H213509   6.072   9.632   6.328
 4423WAT      O13510   9.775   0.867   1.190
 4423WAT     H113511   9.782   0.814   1.105
 4423WAT     H213512   9.784   0.964   1.169
 4424WAT      O13513   2.615   4.665   7.018
 4424WAT     H113514   2.682   4.671   6.943
 4424WAT     H213515   2.632   4.737   7.084
 4425WAT      O13516   0.361   4.914   3.595
 4425WAT     H113517   0.325   4.896   3.686
 4425WAT     H213518   0.383   4.828   3.550
 4426WAT      O13519   7.704   8.373   6.071
 4426WAT     H113520   7.690   8.455   6.126
 4426WAT     H213521   7.747   8.302   6.127
 4427WAT      O13522   1.638   7.989   1.607
 4427WAT     H113523   1.575   8.043   1.664
 4427WAT     H213524   1.691   8.051   1.549
 4428WAT      O13525   8.091   6.353   4.073
 4428WAT     H113526   8.121   6.328   4.165
 4428WAT     H213527   7.992   6.365   4.072
 4429WAT      O13528   8.619   3.623   2.886
 4429WAT     H113529   8.699   3.619   2.826
 4429WAT     H213530   8.587   3.530   2.904
 4430WAT      O13531   2.590   6.547   8.667
 4430WAT     H113532   2.606   6.645   8.656
 4430WAT     H213533   2.591   6.524   8.764
 4431WAT      O13534   3.312   1.276   5.232
 4431WAT     H113535   3.322   1.218   5.313
 4431WAT     H213536   3.225   1.326   5.237
 4432WAT      O13537   5.549   0.769   1.818
 4432WAT     H113538   5.610   0.706   1.866
 4432WAT     H213539   5.486   0.810   1.884
 4433WAT      O13540   0.687   2.908   1.069
 4433WAT     H113541   0.736   2.906   0.982
 4433WAT     H213542   0.593   2.938   1.055
 4434WAT      O13543   1.301   1.299   6.883
 4434WAT     H113544   1.221   1.357   6.901
 4434WAT     H213545   1.319   1.297   6.785
 4435WAT      O13546   8.641   6.288   2.072
 4435WAT     H113547   8.586   6.227   2.014
 4435WAT     H213548   8.734   6.295   2.036
 4436WAT      O13549   5.372   8.682   2.756
 4436WAT     H113550   5.343   8.601   2.706
 4436WAT     H213551   5.299   8.712   2.818
 4437WAT      O13552   7.600   2.135   0.463
 4437WAT     H113553   7.602   2.120   0.365
 4437WAT     H213554   7.597   2.233   0.482
 4438WAT      O13555   3.832   7.008   2.659
 4438WAT     H113556   3.875   7.077   2.716
 4438WAT     H213557   3.902   6.951   2.616
 4439WAT      O13558   0.138   4.691   8.031
 4439WAT     H113559   0.159   4.593   8.027
 4439WAT     H213560   0.114   4.724   7.940
 4440WAT      O13561   4.970   6.758   4.475
 4440WAT     H113562   5.054   6.703   4.482
 4440WAT     H213563   4.928   6.768   4.565
 4441WAT      O13564   7.799   0.963   0.162
 4441WAT     H113565   7.840   1.053   0.149
 4441WAT     H213566   7.854   0.911   0.228
 4442WAT      O13567   8.282   6.866   0.235
 4442WAT     H113568   8.204   6.919   0.269
 4442WAT     H213569   8.363   6.886   0.290
 4443WAT      O13570   2.865   8.879   9.451
 4443WAT     H113571   2.765   8.880   9.463
 4443WAT     H213572   2.894   8.967   9.414
 4444WAT      O13573   1.305   0.646   2.224
 4444WAT     H113574   1.333   0.723   2.282
 4444WAT     H213575   1.238   0.678   2.157
 4445WAT      O13576   0.029   2.612   3.669
 4445WAT     H113577  -0.007   2.532   3.717
 4445WAT     H213578  -0.047   2.666   3.632
 4446WAT      O13579   8.267   1.210   7.909
 4446WAT     H113580   8.184   1.267   7.909
 4446WAT     H213581   8.332   1.246   7.976
 4447WAT      O13582   0.680   3.780   8.745
 4447WAT     H113583   0.667   3.879   8.751
 4447WAT     H213584   0.694   3.743   8.837
 4448WAT      O13585   1.476   7.987   9.358
 4448WAT     H113586   1.509   7.987   9.264
 4448WAT     H213587   1.377   7.971   9.358
 4449WAT      O13588   5.750   8.362   5.759
 4449WAT     H113589   5.771   8.370   5.661
 4449WAT     H213590   5.788   8.277   5.795
 4450WAT      O13591   2.021   5.958   2.340
 4450WAT     H113592   1.992   5.947   2.435
 4450WAT     H213593   2.029   5.868   2.298
 4451WAT      O13594   7.315   1.602   2.913
 4451WAT     H113595   7.259   1.664   2.967
 4451WAT     H213596   7.394   1.651   2.876
 4452WAT      O13597   8.130   1.059   0.044
 4452WAT     H113598   8.181   1.142   0.065
 4452WAT     H213599   8.159   0.986   0.106
 4453WAT      O13600   4.735   6.897   8.647
 4453WAT     H113601   4.714   6.919   8.551
 4453WAT     H213602   4.680   6.819   8.676
 4454WAT      O13603   9.173   6.265   8.763
 4454WAT     H113604   9.261   6.241   8.722
 4454WAT     H213605   9.158   6.363   8.755
 4455WAT      O13606   4.418   5.379   7.983
 4455WAT     H113607   4.402   5.364   7.886
 4455WAT     H213608   4.505   5.338   8.009
 4456WAT      O13609   2.522   4.599   2.246
 4456WAT     H113610   2.567   4.593   2.157
 4456WAT     H213611   2.527   4.509   2.291
 4457WAT      O13612   4.486   7.047   0.080
 4457WAT     H113613   4.476   7.029   0.178
 4457WAT     H213614   4.580   7.075   0.061
 4458WAT      O13615   2.745   5.730   9.883
 4458WAT     H113616   2.748   5.692   9.975
 4458WAT     H213617   2.838   5.746   9.850
 4459WAT      O13618   2.264   4.294   1.187
 4459WAT     H113619   2.215   4.358   1.246
 4459WAT     H213620   2.280   4.338   1.098
 4460WAT      O13621   3.320   1.687   3.322
 4460WAT     H113622   3.352   1.768   3.372
 4460WAT     H213623   3.368   1.606   3.356
 4461WAT      O13624   1.494   5.466   6.240
 4461WAT     H113625   1.495   5.433   6.146
 4461WAT     H213626   1.403   5.501   6.262
 4462WAT      O13627   8.764   8.598   5.341
 4462WAT     H113628   8.688   8.539   5.371
 4462WAT     H213629   8.750   8.690   5.376
 4463WAT      O13630   1.530   4.337   3.534
 4463WAT     H113631   1.559   4.250   3.573
 4463WAT     H213632   1.608   4.398   3.526
 4464WAT      O13633   0.953   0.921   3.961
 4464WAT     H113634   1.052   0.908   3.947
 4464WAT     H213635   0.932   0.912   4.058
 4465WAT      O13636   8.921   3.575   5.789
 4465WAT     H113637   8.933   3.658   5.734
 4465WAT     H213638   8.864   3.510   5.739
 4466WAT      O13639   4.379   8.882   7.699
 4466WAT     H113640   4.377   8.894   7.798
 4466WAT     H213641   4.467   8.913   7.663
 4467WAT      O13642   3.646   7.630   6.978
 4467WAT     H113643   3.568   7.675   7.021
 4467WAT     H213644   3.631   7.531   6.977
 4468WAT      O13645   7.395   9.837   1.816
 4468WAT     H113646   7.317   9.869   1.761
 4468WAT     H213647   7.365   9.763   1.876
 4469WAT      O13648   4.731   3.664   9.263
 4469WAT     H113649   4.827   3.641   9.280
 4469WAT     H213650   4.716   3.760   9.283
 4470WAT      O13651   3.995   0.779   8.634
 4470WAT     H113652   3.966   0.800   8.541
 4470WAT     H213653   4.075   0.835   8.657
 4471WAT      O13654   1.647   3.267   6.418
 4471WAT     H113655   1.655   3.286   6.320
 4471WAT     H213656   1.554   3.234   6.438
 4472WAT      O13657   1.353   0.184   8.406
 4472WAT     H113658   1.357   0.188   8.306
 4472WAT     H213659   1.398   0.101   8.439
 4473WAT      O13660   4.894   3.154   4.514
 4473WAT     H113661   4.925   3.232   4.459
 4473WAT     H213662   4.971   3.093   4.533
 4474WAT      O13663   3.850   3.799   0.542
 4474WAT     H113664   3.785   3.751   0.482
 4474WAT     H213665   3.815   3.891   0.561
 4475WAT      O13666   4.814   0.658   4.448
 4475WAT     H113667   4.791   0.749   4.413
 4475WAT     H213668   4.783   0.650   4.543
 4476WAT      O13669   6.342   2.326   7.483
 4476WAT     H113670   6.365   2.365   7.393
 4476WAT     H213671   6.288   2.392   7.535
 4477WAT      O13672   7.727   5.082   6.908
 4477WAT     H113673   7.816   5.052   6.873
 4477WAT     H213674   7.728   5.078   7.008
 4478WAT      O13675   7.597   9.171   1.358
 4478WAT     H113676   7.658   9.248   1.378
 4478WAT     H213677   7.503   9.196   1.379
 4479WAT      O13678   2.240   2.974   8.735
 4479WAT     H113679   2.147   2.981   8.700
 4479WAT     H213680   2.258   3.048   8.799
 4480WAT      O13681   3.641   5.393   8.854
 4480WAT     H113682   3.692   5.431   8.930
 4480WAT     H213683   3.596   5.467   8.804
 4481WAT      O13684   4.295   0.725   3.183
 4481WAT     H113685   4.301   0.740   3.084
 4481WAT     H213686   4.378   0.679   3.215
 4482WAT      O13687   1.326   1.231   1.823
 4482WAT     H113688   1.351   1.294   1.749
 4482WAT     H213689   1.260   1.164   1.789
 4483WAT      O13690   4.379   7.655   9.552
 4483WAT     H113691   4.449   7.584   9.540
 4483WAT     H213692   4.409   7.719   9.623
 4484WAT      O13693   9.829   9.832   2.566
 4484WAT     H113694   9.817   9.773   2.487
 4484WAT     H213695   9.757   9.813   2.633
 4485WAT      O13696   5.124   0.073   4.028
 4485WAT     H113697   5.044   0.036   4.076
 4485WAT     H213698   5.130   0.031   3.937
 4486WAT      O13699   7.261   4.568   0.498
 4486WAT     H113700   7.329   4.640   0.495
 4486WAT     H213701   7.239   4.539   0.405
 4487WAT      O13702   5.035   0.777   7.528
 4487WAT     H113703   5.088   0.692   7.525
 4487WAT     H213704   5.088   0.847   7.576
 4488WAT      O13705   5.003   7.363   2.516
 4488WAT     H113706   4.988   7.370   2.615
 4488WAT     H213707   5.093   7.399   2.493
 4489WAT      O13708   0.234   2.428   7.430
 4489WAT     H113709   0.188   2.514   7.455
 4489WAT     H213710   0.299   2.404   7.502
 4490WAT      O13711   5.903   9.709   2.686
 4490WAT     H113712   5.826   9.765   2.717
 4490WAT     H213713   5.987   9.740   2.730
 4491WAT      O13714   2.518   4.566   2.948
 4491WAT     H113715   2.428   4.529   2.972
 4491WAT     H213716   2.569   4.498   2.894
 4492WAT      O13717   5.269   1.066   5.467
 4492WAT     H113718   5.209   0.994   5.499
 4492WAT     H213719   5.293   1.050   5.371
 4493WAT      O13720   2.795   9.240   7.947
 4493WAT     H113721   2.696   9.241   7.955
 4493WAT     H213722   2.828   9.146   7.958
 4494WAT      O13723   0.407   3.814   4.400
 4494WAT     H113724   0.351   3.889   4.365
 4494WAT     H213725   0.365   3.777   4.483
 4495WAT      O13726   3.613   7.597   6.293
 4495WAT     H113727   3.648   7.643   6.212
 4495WAT     H213728   3.607   7.662   6.369
 4496WAT      O13729   1.602   6.832   5.369
 4496WAT     H113730   1.572   6.918   5.412
 4496WAT     H213731   1.551   6.818   5.284
 4497WAT      O13732   1.562   6.840   7.601
 4497WAT     H113733   1.520   6.802   7.519
 4497WAT     H213734   1.536   6.785   7.680
 4498WAT      O13735   6.309   1.984   5.361
 4498WAT     H113736   6.224   1.932   5.351
 4498WAT     H213737   6.353   1.960   5.448
 4499WAT      O13738   2.032   0.181   2.823
 4499WAT     H113739   2.061   0.118   2.750
 4499WAT     H213740   2.064   0.147   2.911
 4500WAT      O13741   1.484   8.982   9.637
 4500WAT     H113742   1.576   8.950   9.616
 4500WAT     H213743   1.417   8.926   9.588
 4501WAT      O13744   1.111   5.976   6.892
 4501WAT     H113745   1.126   5.990   6.794
 4501WAT     H213746   1.151   5.888   6.919
 4502WAT      O13747   5.690   2.814   5.768
 4502WAT     H113748   5.659   2.725   5.801
 4502WAT     H213749   5.611   2.873   5.752
 4503WAT      O13750   6.382   7.204   0.102
 4503WAT     H113751   6.314   7.177   0.170
 4503WAT     H213752   6.344   7.276   0.044
 4504WAT      O13753   5.637   7.881   3.797
 4504WAT     H113754   5.709   7.867   3.865
 4504WAT     H213755   5.631   7.800   3.739
 4505WAT      O13756   4.298   8.665   7.177
 4505WAT     H113757   4.199   8.656   7.191
 4505WAT     H213758   4.326   8.759   7.198
 4506WAT      O13759   4.240   5.628   0.313
 4506WAT     H113760   4.274   5.555   0.372
 4506WAT     H213761   4.300   5.636   0.233
 4507WAT      O13762   8.680   2.882   7.928
 4507WAT     H113763   8.690   2.783   7.936
 4507WAT     H213764   8.739   2.916   7.854
 4508WAT      O13765   7.950   4.476   2.515
 4508WAT     H113766   7.997   4.542   2.458
 4508WAT     H213767   7.852   4.476   2.494
 4509WAT      O13768   4.881   3.434   6.794
 4509WAT     H113769   4.909   3.368   6.724
 4509WAT     H213770   4.802   3.398   6.844
 4510WAT      O13771   4.190   4.463   1.562
 4510WAT     H113772   4.161   4.454   1.658
 4510WAT     H213773   4.192   4.373   1.519
 4511WAT      O13774   2.473   9.236   9.188
 4511WAT     H113775   2.462   9.247   9.089
 4511WAT     H213776   2.443   9.319   9.234
 4512WAT      O13777   8.661   9.126   8.654
 4512WAT     H113778   8.681   9.031   8.631
 4512WAT     H213779   8.721   9.186   8.601
 4513WAT      O13780   0.150   0.302   4.209
 4513WAT     H113781   0.217   0.370   4.179
 4513WAT     H213782   0.190   0.247   4.283
 4514WAT      O13783   1.681   8.544   8.047
 4514WAT     H113784   1.655   8.515   8.140
 4514WAT     H213785   1.693   8.464   7.989
 4515WAT      O13786   4.455   7.104   1.243
 4515WAT     H113787   4.428   7.069   1.153
 4515WAT     H213788   4.405   7.054   1.314
 4516WAT      O13789   3.811   0.837   9.760
 4516WAT     H113790   3.788   0.747   9.799
 4516WAT     H213791   3.736   0.868   9.702
 4517WAT      O13792   3.588   5.438   0.219
 4517WAT     H113793   3.674   5.476   0.185
 4517WAT     H213794   3.602   5.396   0.309
 4518WAT      O13795   5.897   0.584   4.190
 4518WAT     H113796   5.886   0.523   4.269
 4518WAT     H213797   5.903   0.679   4.221
 4519WAT      O13798   3.407   8.219   5.338
 4519WAT     H113799   3.311   8.243   5.355
 4519WAT     H213800   3.441   8.163   5.414
 4520WAT      O13801   8.215   7.358   1.948
 4520WAT     H113802   8.189   7.420   1.874
 4520WAT     H213803   8.263   7.409   2.019
 4521WAT      O13804   8.331   0.804   7.619
 4521WAT     H113805   8.294   0.892   7.649
 4521WAT     H213806   8.297   0.783   7.528
 4522WAT      O13807   2.493   4.257   0.739
 4522WAT     H113808   2.570   4.213   0.694
 4522WAT     H213809   2.456   4.329   0.680
 4523WAT      O13810   6.480   3.924   4.451
 4523WAT     H113811   6.397   3.963   4.411
 4523WAT     H213812   6.458   3.841   4.502
 4524WAT      O13813   4.850   2.115   4.318
 4524WAT     H113814   4.751   2.131   4.320
 4524WAT     H213815   4.870   2.024   4.354
 4525WAT      O13816   5.131   2.337   6.766
 4525WAT     H113817   5.118   2.385   6.679
 4525WAT     H213818   5.173   2.399   6.832
 4526WAT      O13819   3.178   8.594   8.091
 4526WAT     H113820   3.172   8.577   8.190
 4526WAT     H213821   3.269   8.569   8.058
 4527WAT      O13822   7.510   6.645   8.649
 4527WAT     H113823   7.427   6.591   8.641
 4527WAT     H213824   7.535   6.681   8.559
 4528WAT      O13825   7.748   2.012   2.356
 4528WAT     H113826   7.649   1.997   2.357
 4528WAT     H213827   7.794   1.931   2.394
 4529WAT      O13828   1.915   1.286   3.697
 4529WAT     H113829   1.969   1.246   3.623
 4529WAT     H213830   1.973   1.347   3.752
 4530WAT      O13831   0.689   2.263   8.672
 4530WAT     H113832   0.730   2.283   8.583
 4530WAT     H213833   0.756   2.217   8.731
 4531WAT      O13834   9.706   1.546   6.838
 4531WAT     H113835   9.662   1.555   6.927
 4531WAT     H213836   9.646   1.582   6.767
 4532WAT      O13837   9.385   1.988   8.627
 4532WAT     H113838   9.357   2.022   8.717
 4532WAT     H213839   9.480   2.012   8.610
 4533WAT      O13840   1.074   2.117   4.724
 4533WAT     H113841   1.166   2.155   4.712
 4533WAT     H213842   1.073   2.054   4.802
 4534WAT      O13843   2.491   4.643   5.450
 4534WAT     H113844   2.547   4.671   5.372
 4534WAT     H213845   2.502   4.709   5.525
 4535WAT      O13846   1.759   1.512   2.749
 4535WAT     H113847   1.725   1.578   2.682
 4535WAT     H213848   1.714   1.424   2.733
 4536WAT      O13849   2.434   1.874   1.158
 4536WAT     H113850   2.454   1.807   1.228
 4536WAT     H213851   2.378   1.833   1.086
 4537WAT      O13852   0.559   4.549   2.264
 4537WAT     H113853   0.506   4.629   2.239
 4537WAT     H213854   0.532   4.471   2.208
 4538WAT      O13855   7.217   0.398   0.700
 4538WAT     H113856   7.304   0.361   0.668
 4538WAT     H213857   7.213   0.392   0.800
 4539WAT      O13858   5.484   9.079   4.695
 4539WAT     H113859   5.434   9.104   4.612
 4539WAT     H213860   5.517   8.985   4.686
 4540WAT      O13861   2.897   7.794   2.840
 4540WAT     H113862   2.836   7.721   2.873
 4540WAT     H213863   2.880   7.878   2.891
 4541WAT      O13864   9.425   4.799   0.719
 4541WAT     H113865   9.353   4.739   0.685
 4541WAT     H213866   9.431   4.793   0.818
 4542WAT      O13867   2.020   0.389   3.150
 4542WAT     H113868   2.111   0.423   3.126
 4542WAT     H213869   1.993   0.425   3.239
 4543WAT      O13870   9.792   3.509   7.024
 4543WAT     H113871   9.692   3.507   7.025
 4543WAT     H213872   9.823   3.603   7.013
 4544WAT      O13873   7.860   3.382   2.112
 4544WAT     H113874   7.898   3.423   2.029
 4544WAT     H213875   7.760   3.378   2.105
 4545WAT      O13876   6.913   9.338   6.706
 4545WAT     H113877   6.889   9.324   6.610
 4545WAT     H213878   7.012   9.347   6.716
 4546WAT      O13879   8.728   8.165   9.339
 4546WAT     H113880   8.809   8.216   9.311
 4546WAT     H213881   8.647   8.223   9.332
 4547WAT      O13882   7.678   9.407   0.770
 4547WAT     H113883   7.593   9.458   0.758
 4547WAT     H213884   7.750   9.469   0.801
 4548WAT      O13885   9.764   2.917   7.241
 4548WAT     H113886   9.709   2.994   7.273
 4548WAT     H213887   9.709   2.834   7.244
 4549WAT      O13888   8.911   1.442   5.175
 4549WAT     H113889   8.874   1.391   5.098
 4549WAT     H213890   8.960   1.380   5.236
 4550WAT      O13891   4.955   0.464   3.355
 4550WAT     H113892   4.918   0.464   3.448
 4550WAT     H213893   4.925   0.547   3.307
 4551WAT      O13894   8.220   1.713   4.413
 4551WAT     H113895   8.218   1.811   4.433
 4551WAT     H213896   8.241   1.662   4.497
 4552WAT      O13897   4.061   1.662   2.569
 4552WAT     H113898   4.090   1.655   2.474
 4552WAT     H213899   3.995   1.737   2.579
 4553WAT      O13900   0.746   2.124   3.584
 4553WAT     H113901   0.782   2.057   3.519
 4553WAT     H213902   0.808   2.130   3.663
 4554WAT      O13903   1.224   3.318   2.646
 4554WAT     H113904   1.155   3.253   2.680
 4554WAT     H213905   1.216   3.404   2.697
 4555WAT      O13906   7.343   8.673   1.706
 4555WAT     H113907   7.346   8.667   1.806
 4555WAT     H213908   7.248   8.683   1.676
 4556WAT      O13909   3.316   3.051   8.615
 4556WAT     H113910   3.255   2.993   8.560
 4556WAT     H213911   3.383   2.993   8.662
 4557WAT      O13912   3.510   1.844   5.003
 4557WAT     H113913   3.414   1.873   5.006
 4557WAT     H213914   3.556   1.885   4.925
 4558WAT      O13915   3.159   4.535   7.358
 4558WAT     H113916   3.204   4.612   7.403
 4558WAT     H213917   3.103   4.486   7.425
 4559WAT      O13918   9.627   0.245   1.670
 4559WAT     H113919   9.642   0.154   1.632
 4559WAT     H213920   9.688   0.310   1.625
 4560WAT      O13921   5.038   6.343   4.591
 4560WAT     H113922   5.013   6.293   4.508
 4560WAT     H213923   5.109   6.293   4.640
 4561WAT      O13924   8.515   5.161   8.882
 4561WAT     H113925   8.569   5.203   8.809
 4561WAT     H213926   8.535   5.206   8.969
 4562WAT      O13927   3.958   3.542   6.979
 4562WAT     H113928   3.914   3.610   7.038
 4562WAT     H213929   3.989   3.587   6.895
 4563WAT      O13930   1.848   7.911   3.064
 4563WAT     H113931   1.771   7.849   3.082
 4563WAT     H213932   1.858   7.924   2.966
 4564WAT      O13933   4.484   7.656   6.843
 4564WAT     H113934   4.464   7.661   6.941
 4564WAT     H213935   4.478   7.748   6.803
 4565WAT      O13936   9.408   5.243   5.770
 4565WAT     H113937   9.411   5.185   5.851
 4565WAT     H213938   9.373   5.191   5.692
 4566WAT      O13939   9.450   9.757   8.983
 4566WAT     H113940   9.425   9.758   8.886
 4566WAT     H213941   9.369   9.739   9.038
 4567WAT      O13942   4.384   2.849   8.854
 4567WAT     H113943   4.465   2.798   8.883
 4567WAT     H213944   4.304   2.790   8.860
 4568WAT      O13945   0.124   1.340   0.981
 4568WAT     H113946   0.138   1.286   0.897
 4568WAT     H213947   0.213   1.373   1.014
 4569WAT      O13948   5.095   3.980   9.370
 4569WAT     H113949   5.015   3.922   9.384
 4569WAT     H213950   5.170   3.926   9.331
 4570WAT      O13951   1.392   2.497   9.545
 4570WAT     H113952   1.389   2.532   9.452
 4570WAT     H213953   1.303   2.510   9.589
 4571WAT      O13954   9.103   7.792   8.232
 4571WAT     H113955   9.108   7.701   8.273
 4571WAT     H213956   9.185   7.844   8.256
 4572WAT      O13957   3.207   6.387   8.133
 4572WAT     H113958   3.282   6.446   8.163
 4572WAT     H213959   3.122   6.441   8.129
 4573WAT      O13960   2.462   9.706   9.479
 4573WAT     H113961   2.364   9.709   9.497
 4573WAT     H213962   2.510   9.679   9.562
 4574WAT      O13963   0.957   2.197   1.915
 4574WAT     H113964   0.913   2.270   1.967
 4574WAT     H213965   1.011   2.139   1.976
 4575WAT      O13966   6.598   3.422   1.496
 4575WAT     H113967   6.623   3.513   1.463
 4575WAT     H213968   6.502   3.405   1.475
 4576WAT      O13969   9.834   3.296   3.466
 4576WAT     H113970   9.740   3.295   3.498
 4576WAT     H213971   9.852   3.214   3.412
 4577WAT      O13972   5.512   3.810   4.018
 4577WAT     H113973   5.610   3.820   4.032
 4577WAT     H213974   5.463   3.860   4.090
 4578WAT      O13975   9.189   2.993   4.195
 4578WAT     H113976   9.195   2.894   4.177
 4578WAT     H213977   9.279   3.034   4.182
 4579WAT      O13978   8.819   8.432   8.511
 4579WAT     H113979   8.799   8.526   8.482
 4579WAT     H213980   8.745   8.372   8.483
 4580WAT      O13981   1.792   0.977   9.581
 4580WAT     H113982   1.702   0.933   9.574
 4580WAT     H213983   1.851   0.945   9.508
 4581WAT      O13984   7.417   6.976   8.206
 4581WAT     H113985   7.328   7.006   8.173
 4581WAT     H213986   7.434   7.017   8.296
 4582WAT      O13987   6.129   6.299   1.561
 4582WAT     H113988   6.185   6.217   1.557
 4582WAT     H213989   6.104   6.327   1.468
 4583WAT      O13990   7.443   7.652   2.113
 4583WAT     H113991   7.449   7.746   2.081
 4583WAT     H213992   7.430   7.650   2.212
 4584WAT      O13993   4.173   7.391   3.601
 4584WAT     H113994   4.108   7.450   3.648
 4584WAT     H213995   4.128   7.348   3.522
 4585WAT      O13996   3.920   9.383   0.229
 4585WAT     H113997   3.865   9.459   0.263
 4585WAT     H213998   4.001   9.372   0.286
 4586WAT      O13999   6.243   2.076   7.576
 4586WAT     H114000   6.147   2.064   7.551
 4586WAT     H214001   6.278   2.161   7.536
 4587WAT      O14002   4.045   5.106   0.835
 4587WAT     H114003   3.949   5.077   0.827
 4587WAT     H214004   4.096   5.077   0.754
 4588WAT      O14005   4.211   9.090   9.775
 4588WAT     H114006   4.201   9.001   9.730
 4588WAT     H214007   4.144   9.097   9.850
 4589WAT      O14008   2.782   8.743   0.274
 4589WAT     H114009   2.837   8.663   0.298
 4589WAT     H214010   2.784   8.808   0.350
 4590WAT      O14011   2.941   2.348   2.124
 4590WAT     H114012   3.030   2.330   2.081
 4590WAT     H214013   2.943   2.318   2.219
 4591WAT      O14014   6.307   6.615   6.696
 4591WAT     H114015   6.400   6.584   6.715
 4591WAT     H214016   6.301   6.714   6.708
 4592WAT      O14017   7.722   8.419   7.954
 4592WAT     H114018   7.685   8.508   7.926
 4592WAT     H214019   7.771   8.378   7.877
 4593WAT      O14020   7.705   1.529   8.433
 4593WAT     H114021   7.652   1.480   8.364
 4593WAT     H214022   7.643   1.567   8.502
 4594WAT      O14023   7.180   5.755   1.025
 4594WAT     H114024   7.275   5.780   1.044
 4594WAT     H214025   7.161   5.770   0.928
 4595WAT      O14026   0.509   5.275   9.749
 4595WAT     H114027   0.417   5.237   9.754
 4595WAT     H214028   0.575   5.207   9.781
 4596WAT      O14029   8.774  -0.002   4.563
 4596WAT     H114030   8.683   0.033   4.585
 4596WAT     H214031   8.843   0.066   4.589
 4597WAT      O14032   7.594   6.872   5.011
 4597WAT     H114033   7.636   6.961   5.030
 4597WAT     H214034   7.665   6.803   5.002
 4598WAT      O14035   4.087   7.895   4.277
 4598WAT     H114036   4.069   7.934   4.187
 4598WAT     H214037   4.003   7.852   4.312
 4599WAT      O14038   9.056   5.360   5.015
 4599WAT     H114039   9.055   5.329   5.110
 4599WAT     H214040   8.999   5.300   4.960
 4600WAT      O14041   5.256   2.120   3.754
 4600WAT     H114042   5.323   2.132   3.681
 4600WAT     H214043   5.295   2.061   3.825
 4601WAT      O14044   6.686   0.028   8.039
 4601WAT     H114045   6.593  -0.011   8.040
 4601WAT     H214046   6.681   0.126   8.056
 4602WAT      O14047   8.657   1.156   6.779
 4602WAT     H114048   8.751   1.123   6.781
 4602WAT     H214049   8.633   1.196   6.868
 4603WAT      O14050   6.230   8.925   6.126
 4603WAT     H114051   6.143   8.970   6.107
 4603WAT     H214052   6.244   8.850   6.061
 4604WAT      O14053   6.948   7.097   8.641
 4604WAT     H114054   7.033   7.104   8.589
 4604WAT     H214055   6.950   7.015   8.698
 4605WAT      O14056   1.128   1.559   3.474
 4605WAT     H114057   1.075   1.475   3.488
 4605WAT     H214058   1.090   1.609   3.396
 4606WAT      O14059   2.541   8.544   5.030
 4606WAT     H114060   2.527   8.643   5.035
 4606WAT     H214061   2.494   8.500   5.107
 4607WAT      O14062   9.683   7.036   9.107
 4607WAT     H114063   9.615   6.983   9.159
 4607WAT     H214064   9.673   7.014   9.010
 4608WAT      O14065   2.256   1.358   2.608
 4608WAT     H114066   2.179   1.404   2.653
 4608WAT     H214067   2.222   1.278   2.558
 4609WAT      O14068   1.968   5.540   8.017
 4609WAT     H114069   2.053   5.494   7.990
 4609WAT     H214070   1.890   5.479   8.000
 4610WAT      O14071   1.856   2.829   4.364
 4610WAT     H114072   1.783   2.806   4.299
 4610WAT     H214073   1.817   2.881   4.439
 4611WAT      O14074   0.150   0.071   2.748
 4611WAT     H114075   0.077   0.060   2.681
 4611WAT     H214076   0.236   0.037   2.710
 4612WAT      O14077   9.298   1.476   0.034
 4612WAT     H114078   9.364   1.548   0.056
 4612WAT     H214079   9.343   1.386   0.040
 4613WAT      O14080   8.735   0.416   9.870
 4613WAT     H114081   8.810   0.359   9.836
 4613WAT     H214082   8.655   0.403   9.811
 4614WAT      O14083   4.581   6.086   3.800
 4614WAT     H114084   4.646   6.149   3.758
 4614WAT     H214085   4.488   6.120   3.788
 4615WAT      O14086   8.215   6.240   5.617
 4615WAT     H114087   8.131   6.198   5.583
 4615WAT     H214088   8.199   6.281   5.707
 4616WAT      O14089   1.088   2.001   2.719
 4616WAT     H114090   1.038   1.919   2.691
 4616WAT     H214091   1.171   1.974   2.768
 4617WAT      O14092   2.468   8.744   4.695
 4617WAT     H114093   2.537   8.782   4.633
 4617WAT     H214094   2.475   8.789   4.784
 4618WAT      O14095   8.815   9.658   9.175
 4618WAT     H114096   8.718   9.635   9.179
 4618WAT     H214097   8.865   9.583   9.130
 4619WAT      O14098   3.691   8.001   7.424
 4619WAT     H114099   3.705   8.075   7.359
 4619WAT     H214100   3.778   7.955   7.441
 4620WAT      O14101   9.349   3.096   3.255
 4620WAT     H114102   9.429   3.045   3.226
 4620WAT     H214103   9.289   3.037   3.309
 4621WAT      O14104   5.443   5.705   0.354
 4621WAT     H114105   5.356   5.672   0.391
 4621WAT     H214106   5.427   5.788   0.300
 4622WAT      O14107   6.512   9.081   3.728
 4622WAT     H114108   6.416   9.100   3.710
 4622WAT     H214109   6.535   8.989   3.697
 4623WAT      O14110   7.754   1.648   0.118
 4623WAT     H114111   7.762   1.580   0.191
 4623WAT     H214112   7.658   1.666   0.099
 4624WAT      O14113   0.353   4.059   7.885
 4624WAT     H114114   0.263   4.020   7.904
 4624WAT     H214115   0.419   4.027   7.953
 4625WAT      O14116   7.669   7.741   3.581
 4625WAT     H114117   7.628   7.676   3.646
 4625WAT     H214118   7.768   7.723   3.574
 4626WAT      O14119   5.930   5.031   6.862
 4626WAT     H114120   5.967   4.938   6.857
 4626WAT     H214121   5.978   5.090   6.797
 4627WAT      O14122   1.445   5.732   3.445
 4627WAT     H114123   1.397   5.680   3.515
 4627WAT     H214124   1.517   5.787   3.488
 4628WAT      O14125   6.789   9.089   3.649
 4628WAT     H114126   6.816   8.994   3.668
 4628WAT     H214127   6.693   9.092   3.624
 4629WAT      O14128   6.704   6.508   8.408
 4629WAT     H114129   6.616   6.460   8.416
 4629WAT     H214130   6.727   6.521   8.312
 4630WAT      O14131   4.040   3.986   8.313
 4630WAT     H114132   3.976   4.043   8.364
 4630WAT     H214133   4.059   3.902   8.363
 4631WAT      O14134   3.288   1.745   9.563
 4631WAT     H114135   3.253   1.695   9.484
 4631WAT     H214136   3.231   1.825   9.579
 4632WAT      O14137   2.509   7.061   3.317
 4632WAT     H114138   2.477   7.103   3.402
 4632WAT     H214139   2.450   7.089   3.241
 4633WAT      O14140   7.706   5.871   2.739
 4633WAT     H114141   7.672   5.862   2.646
 4633WAT     H214142   7.796   5.828   2.747
 4634WAT      O14143   1.277   4.662   5.735
 4634WAT     H114144   1.367   4.620   5.726
 4634WAT     H214145   1.284   4.743   5.793
 4635WAT      O14146   5.004   7.299   0.045
 4635WAT     H114147   5.053   7.367   0.100
 4635WAT     H214148   5.068   7.227   0.017
 4636WAT      O14149   1.408   1.247   0.651
 4636WAT     H114150   1.424   1.187   0.572
 4636WAT     H214151   1.363   1.331   0.620
 4637WAT      O14152   2.066   0.333   1.667
 4637WAT     H114153   2.141   0.373   1.614
 4637WAT     H214154   2.032   0.252   1.620
 4638WAT      O14155   3.179   8.544   6.712
 4638WAT     H114156   3.101   8.515   6.656
 4638WAT     H214157   3.155   8.534   6.809
 4639WAT      O14158   2.359   8.771   8.118
 4639WAT     H114159   2.448   8.801   8.153
 4639WAT     H214160   2.365   8.756   8.019
 4640WAT      O14161   1.104   4.543   7.955
 4640WAT     H114162   1.050   4.611   8.004
 4640WAT     H214163   1.134   4.581   7.867
 4641WAT      O14164   2.390   8.754   4.432
 4641WAT     H114165   2.293   8.777   4.427
 4641WAT     H214166   2.410   8.713   4.521
 4642WAT      O14167   8.680   1.581   5.948
 4642WAT     H114168   8.730   1.541   6.026
 4642WAT     H214169   8.745   1.601   5.875
 4643WAT      O14170   2.889   4.673   3.749
 4643WAT     H114171   2.946   4.754   3.762
 4643WAT     H214172   2.947   4.591   3.750
 4644WAT      O14173   8.487   2.054   3.615
 4644WAT     H114174   8.536   1.974   3.581
 4644WAT     H214175   8.429   2.027   3.692
 4645WAT      O14176   1.204   9.230   6.313
 4645WAT     H114177   1.205   9.262   6.408
 4645WAT     H214178   1.212   9.131   6.311
 4646WAT      O14179   2.601   6.123   8.537
 4646WAT     H114180   2.653   6.114   8.621
 4646WAT     H214181   2.508   6.090   8.551
 4647WAT      O14182   2.260   2.467   9.051
 4647WAT     H114183   2.235   2.520   8.970
 4647WAT     H214184   2.211   2.503   9.131
 4648WAT      O14185   4.055   0.774   2.352
 4648WAT     H114186   4.045   0.689   2.404
 4648WAT     H214187   4.051   0.852   2.415
 4649WAT      O14188   0.641   3.389   8.394
 4649WAT     H114189   0.667   3.461   8.459
 4649WAT     H214190   0.715   3.375   8.328
 4650WAT      O14191   5.271   9.378   0.876
 4650WAT     H114192   5.266   9.472   0.844
 4650WAT     H214193   5.340   9.329   0.823
 4651WAT      O14194   0.420   0.344   3.672
 4651WAT     H114195   0.324   0.372   3.680
 4651WAT     H214196   0.455   0.372   3.583
 4652WAT      O14197   3.755   0.696   5.969
 4652WAT     H114198   3.666   0.666   6.002
 4652WAT     H214199   3.752   0.708   5.870
 4653WAT      O14200   8.759   4.858   1.521
 4653WAT     H114201   8.779   4.824   1.613
 4653WAT     H214202   8.682   4.922   1.525
 4654WAT      O14203   7.785   0.319   2.246
 4654WAT     H114204   7.805   0.417   2.247
 4654WAT     H214205   7.797   0.283   2.154
 4655WAT      O14206   6.580   3.239   5.587
 4655WAT     H114207   6.618   3.330   5.603
 4655WAT     H214208   6.490   3.233   5.631
 4656WAT      O14209   7.640   8.138   2.972
 4656WAT     H114210   7.561   8.190   2.941
 4656WAT     H214211   7.681   8.182   3.051
 4657WAT      O14212   7.043   5.255   8.351
 4657WAT     H114213   7.080   5.314   8.279
 4657WAT     H214214   6.955   5.219   8.323
 4658WAT      O14215   1.963   8.754   7.900
 4658WAT     H114216   1.882   8.807   7.877
 4658WAT     H214217   1.964   8.670   7.846
 4659WAT      O14218   8.703   4.121   2.349
 4659WAT     H114219   8.673   4.193   2.411
 4659WAT     H214220   8.664   4.135   2.259
 4660WAT      O14221   7.164   6.384   4.647
 4660WAT     H114222   7.226   6.397   4.570
 4660WAT     H214223   7.084   6.331   4.617
 4661WAT      O14224   5.173   9.595   4.042
 4661WAT     H114225   5.143   9.563   3.952
 4661WAT     H214226   5.099   9.581   4.109
 4662WAT      O14227   7.702   4.337   6.922
 4662WAT     H114228   7.727   4.243   6.896
 4662WAT     H214229   7.606   4.339   6.949
 4663WAT      O14230   0.537   9.699   2.039
 4663WAT     H114231   0.614   9.700   1.975
 4663WAT     H214232   0.503   9.606   2.050
 4664WAT      O14233   0.620   9.548   0.785
 4664WAT     H114234   0.614   9.482   0.861
 4664WAT     H214235   0.573   9.510   0.705
 4665WAT      O14236   0.356   4.228   8.228
 4665WAT     H114237   0.353   4.214   8.327
 4665WAT     H214238   0.449   4.213   8.194
 4666WAT      O14239   0.941   8.085   1.450
 4666WAT     H114240   0.910   8.178   1.468
 4666WAT     H214241   0.862   8.024   1.449
 4667WAT      O14242   2.711   4.426   5.868
 4667WAT     H114243   2.739   4.505   5.923
 4667WAT     H214244   2.769   4.419   5.787
 4668WAT      O14245   4.150   5.877   6.933
 4668WAT     H114246   4.212   5.834   6.867
 4668WAT     H214247   4.177   5.852   7.025
 4669WAT      O14248   0.300   8.109   0.341
 4669WAT     H114249   0.400   8.098   0.337
 4669WAT     H214250   0.260   8.085   0.252
 4670WAT      O14251   5.175   5.717   1.038
 4670WAT     H114252   5.086   5.703   1.080
 4670WAT     H214253   5.188   5.815   1.020
 4671WAT      O14254   7.819   4.527   7.558
 4671WAT     H114255   7.919   4.522   7.551
 4671WAT     H214256   7.779   4.525   7.467
 4672WAT      O14257   7.583   7.707   6.312
 4672WAT     H114258   7.510   7.720   6.245
 4672WAT     H214259   7.615   7.797   6.345
 4673WAT      O14260   2.162   5.911   4.377
 4673WAT     H114261   2.151   5.848   4.454
 4673WAT     H214262   2.255   5.946   4.376
 4674WAT      O14263   0.917   7.011   3.958
 4674WAT     H114264   0.982   6.945   3.995
 4674WAT     H214265   0.964   7.097   3.937
 4675WAT      O14266   1.378   8.992   6.210
 4675WAT     H114267   1.402   9.084   6.239
 4675WAT     H214268   1.428   8.925   6.265
 4676WAT      O14269   6.392   3.080   3.141
 4676WAT     H114270   6.397   3.147   3.215
 4676WAT     H214271   6.384   2.988   3.179
 4677WAT      O14272   1.140   6.518   1.871
 4677WAT     H114273   1.073   6.450   1.840
 4677WAT     H214274   1.168   6.497   1.965
 4678WAT      O14275   7.665   7.544   8.837
 4678WAT     H114276   7.686   7.630   8.790
 4678WAT     H214277   7.746   7.512   8.886
 4679WAT      O14278   1.525   1.046   7.809
 4679WAT     H114279   1.463   0.988   7.756
 4679WAT     H214280   1.556   0.997   7.891
 4680WAT      O14281   2.516   8.879   4.981
 4680WAT     H114282   2.604   8.866   5.026
 4680WAT     H214283   2.507   8.974   4.953
 4681WAT      O14284   0.716   9.114   7.792
 4681WAT     H114285   0.733   9.098   7.695
 4681WAT     H214286   0.804   9.127   7.839
 4682WAT      O14287   0.448   5.307   6.128
 4682WAT     H114288   0.409   5.338   6.041
 4682WAT     H214289   0.421   5.212   6.144
 4683WAT      O14290   9.533   4.819   4.085
 4683WAT     H114291   9.520   4.915   4.110
 4683WAT     H214292   9.602   4.778   4.144
 4684WAT      O14293   3.375   2.998   7.211
 4684WAT     H114294   3.307   3.001   7.284
 4684WAT     H214295   3.427   3.083   7.211
 4685WAT      O14296   8.456   2.817   5.659
 4685WAT     H114297   8.475   2.848   5.566
 4685WAT     H214298   8.533   2.763   5.693
 4686WAT      O14299   2.890   0.759   7.443
 4686WAT     H114300   2.819   0.820   7.408
 4686WAT     H214301   2.865   0.664   7.424
 4687WAT      O14302   1.316   2.867   5.270
 4687WAT     H114303   1.300   2.929   5.347
 4687WAT     H214304   1.376   2.910   5.203
 4688WAT      O14305   6.524   1.868   9.221
 4688WAT     H114306   6.426   1.887   9.216
 4688WAT     H214307   6.544   1.818   9.306
 4689WAT      O14308   1.611   9.588   0.309
 4689WAT     H114309   1.694   9.595   0.365
 4689WAT     H214310   1.536   9.554   0.366
 4690WAT      O14311   0.152   8.254   9.705
 4690WAT     H114312   0.065   8.236   9.751
 4690WAT     H214313   0.165   8.188   9.631
 4691WAT      O14314   0.281   2.645   2.009
 4691WAT     H114315   0.332   2.620   1.927
 4691WAT     H214316   0.213   2.575   2.029
 4692WAT      O14317   0.041   1.889   1.033
 4692WAT     H114318   0.036   1.817   0.963
 4692WAT     H214319   0.118   1.950   1.013
 4693WAT      O14320   9.748   0.674   2.803
 4693WAT     H114321   9.828   0.646   2.750
 4693WAT     H214322   9.665   0.641   2.758
 4694WAT      O14323   3.786   0.062   0.181
 4694WAT     H114324   3.782   0.088   0.084
 4694WAT     H214325   3.703   0.012   0.205
 4695WAT      O14326   5.189   0.651   2.049
 4695WAT     H114327   5.192   0.558   2.084
 4695WAT     H214328   5.102   0.693   2.073
 4696WAT      O14329   2.297   8.177   3.804
 4696WAT     H114330   2.253   8.237   3.737
 4696WAT     H214331   2.394   8.200   3.809
 4697WAT      O14332   5.422   7.048   9.612
 4697WAT     H114333   5.392   6.983   9.682
 4697WAT     H214334   5.416   7.006   9.522
 4698WAT      O14335   1.584   5.395   5.006
 4698WAT     H114336   1.486   5.405   5.021
 4698WAT     H214337   1.606   5.298   4.997
 4699WAT      O14338   9.572   3.899   7.841
 4699WAT     H114339   9.483   3.868   7.807
 4699WAT     H214340   9.559   3.955   7.922
 4700WAT      O14341   8.212   8.553   7.346
 4700WAT     H114342   8.270   8.632   7.327
 4700WAT     H214343   8.266   8.481   7.389
 4701WAT      O14344   9.258   5.310   2.472
 4701WAT     H114345   9.288   5.254   2.550
 4701WAT     H214346   9.330   5.310   2.402
 4702WAT      O14347   8.526   0.833   8.014
 4702WAT     H114348   8.445   0.891   8.023
 4702WAT     H214349   8.590   0.852   8.088
 4703WAT      O14350   3.754   6.956   6.886
 4703WAT     H114351   3.682   6.892   6.862
 4703WAT     H214352   3.784   7.006   6.804
 4704WAT      O14353   4.912   3.713   0.319
 4704WAT     H114354   4.943   3.725   0.224
 4704WAT     H214355   4.813   3.709   0.321
 4705WAT      O14356   0.164   3.333   1.649
 4705WAT     H114357   0.251   3.319   1.697
 4705WAT     H214358   0.183   3.359   1.554
 4706WAT      O14359   2.942   6.542   9.033
 4706WAT     H114360   2.855   6.578   9.066
 4706WAT     H214361   2.972   6.468   9.093
 4707WAT      O14362   3.791   1.620   8.835
 4707WAT     H114363   3.751   1.692   8.892
 4707WAT     H214364   3.796   1.535   8.887
 4708WAT      O14365   6.448   3.273   9.874
 4708WAT     H114366   6.380   3.203   9.851
 4708WAT     H214367   6.469   3.268   9.972
 4709WAT      O14368   8.013   5.637   2.080
 4709WAT     H114369   8.100   5.667   2.119
 4709WAT     H214370   8.030   5.590   1.993
 4710WAT      O14371   7.525   6.089   9.182
 4710WAT     H114372   7.616   6.130   9.192
 4710WAT     H214373   7.529   5.993   9.207
 4711WAT      O14374   6.697   2.988   2.836
 4711WAT     H114375   6.780   2.975   2.890
 4711WAT     H214376   6.695   2.922   2.761
 4712WAT      O14377   3.423   9.600   5.733
 4712WAT     H114378   3.336   9.551   5.726
 4712WAT     H214379   3.497   9.541   5.702
 4713WAT      O14380   6.629   9.095   0.699
 4713WAT     H114381   6.654   9.000   0.714
 4713WAT     H214382   6.632   9.116   0.601
 4714WAT      O14383   4.536   9.843   0.430
 4714WAT     H114384   4.453   9.885   0.467
 4714WAT     H214385   4.517   9.749   0.402
 4715WAT      O14386   1.601   7.028   9.690
 4715WAT     H114387   1.539   7.106   9.697
 4715WAT     H214388   1.694   7.057   9.711
 4716WAT      O14389   1.924   0.439   6.970
 4716WAT     H114390   1.857   0.484   6.911
 4716WAT     H214391   1.958   0.357   6.924
 4717WAT      O14392   0.847   4.468   9.202
 4717WAT     H114393   0.841   4.406   9.280
 4717WAT     H214394   0.919   4.536   9.218
 4718WAT      O14395   4.218   4.094   8.538
 4718WAT     H114396   4.216   4.023   8.608
 4718WAT     H214397   4.124   4.121   8.514
 4719WAT      O14398   5.470   7.178   8.947
 4719WAT     H114399   5.373   7.181   8.971
 4719WAT     H214400   5.480   7.187   8.848
 4720WAT      O14401   4.666   0.452   2.856
 4720WAT     H114402   4.700   0.360   2.832
 4720WAT     H214403   4.685   0.515   2.781
 4721WAT      O14404   7.418   2.481   0.252
 4721WAT     H114405   7.425   2.577   0.226
 4721WAT     H214406   7.323   2.459   0.275
 4722WAT      O14407   2.904   7.461   2.759
 4722WAT     H114408   2.961   7.533   2.719
 4722WAT     H214409   2.923   7.374   2.713
 4723WAT      O14410   6.474   0.363   5.759
 4723WAT     H114411   6.543   0.374   5.831
 4723WAT     H214412   6.439   0.453   5.733
 4724WAT      O14413   9.466   3.892   4.107
 4724WAT     H114414   9.425   3.870   4.018
 4724WAT     H214415   9.559   3.857   4.110
 4725WAT      O14416   7.962   1.542   4.035
 4725WAT     H114417   7.890   1.511   3.973
 4725WAT     H214418   7.972   1.475   4.109
 4726WAT      O14419   1.710   2.061   8.883
 4726WAT     H114420   1.634   2.116   8.918
 4726WAT     H214421   1.757   2.111   8.811
 4727WAT      O14422   3.514   6.031   5.320
 4727WAT     H114423   3.443   6.047   5.389
 4727WAT     H214424   3.488   6.076   5.235
 4728WAT      O14425   7.350   8.162   1.151
 4728WAT     H114426   7.445   8.175   1.122
 4728WAT     H214427   7.309   8.251   1.171
 4729WAT      O14428   1.154   0.878   3.142
 4729WAT     H114429   1.146   0.919   3.051
 4729WAT     H214430   1.078   0.907   3.200
 4730WAT      O14431   6.779   9.307   2.187
 4730WAT     H114432   6.754   9.220   2.230
 4730WAT     H214433   6.827   9.364   2.253
 4731WAT      O14434   7.812   0.439   6.289
 4731WAT     H114435   7.789   0.378   6.365
 4731WAT     H214436   7.728   0.478   6.252
 4732WAT      O14437   7.534   2.933   4.078
 4732WAT     H114438   7.576   2.932   4.169
 4732WAT     H214439   7.573   3.008   4.024
 4733WAT      O14440   5.878   7.992   0.965
 4733WAT     H114441   5.933   8.042   1.032
 4733WAT     H214442   5.904   7.895   0.967
 4734WAT      O14443   7.822   3.819   0.213
 4734WAT     H114444   7.881   3.823   0.133
 4734WAT     H214445   7.754   3.747   0.201
 4735WAT      O14446   2.220   9.279   7.655
 4735WAT     H114447   2.193   9.286   7.751
 4735WAT     H214448   2.315   9.309   7.645
 4736WAT      O14449   6.162   3.458   1.779
 4736WAT     H114450   6.109   3.543   1.773
 4736WAT     H214451   6.259   3.480   1.792
 4737WAT      O14452   9.721   3.359   7.755
 4737WAT     H114453   9.684   3.312   7.675
 4737WAT     H214454   9.646   3.403   7.805
 4738WAT      O14455   5.628   1.597   4.397
 4738WAT     H114456   5.625   1.690   4.434
 4738WAT     H214457   5.693   1.543   4.450
 4739WAT      O14458   4.492   5.434   6.449
 4739WAT     H114459   4.404   5.388   6.465
 4739WAT     H214460   4.476   5.529   6.424
 4740WAT      O14461   5.063   2.751   5.510
 4740WAT     H114462   5.027   2.707   5.428
 4740WAT     H214463   5.026   2.843   5.517
 4741WAT      O14464   6.811   5.726   0.866
 4741WAT     H114465   6.731   5.782   0.885
 4741WAT     H214466   6.783   5.637   0.830
 4742WAT      O14467   8.019   8.530   0.617
 4742WAT     H114468   8.040   8.485   0.531
 4742WAT     H214469   7.933   8.580   0.608
 4743WAT      O14470   0.548   8.547   4.811
 4743WAT     H114471   0.467   8.490   4.794
 4743WAT     H214472   0.630   8.491   4.806
 4744WAT      O14473   6.684   8.188   3.976
 4744WAT     H114474   6.704   8.257   4.046
 4744WAT     H214475   6.646   8.106   4.020
 4745WAT      O14476   3.116   8.352   3.973
 4745WAT     H114477   3.151   8.426   4.031
 4745WAT     H214478   3.089   8.274   4.031
 4746WAT      O14479   6.876   6.317   1.989
 4746WAT     H114480   6.855   6.339   1.894
 4746WAT     H214481   6.846   6.393   2.047
 4747WAT      O14482   9.309   6.545   2.051
 4747WAT     H114483   9.332   6.642   2.064
 4747WAT     H214484   9.343   6.514   1.962
 4748WAT      O14485   7.244   3.388   4.925
 4748WAT     H114486   7.228   3.472   4.873
 4748WAT     H214487   7.291   3.410   5.010
 4749WAT      O14488   6.511   6.465   8.105
 4749WAT     H114489   6.454   6.518   8.043
 4749WAT     H214490   6.594   6.518   8.127
 4750WAT      O14491   8.416   9.305   7.592
 4750WAT     H114492   8.454   9.227   7.543
 4750WAT     H214493   8.371   9.273   7.676
 4751WAT      O14494   3.217   3.795   3.119
 4751WAT     H114495   3.240   3.726   3.187
 4751WAT     H214496   3.271   3.780   3.036
 4752WAT      O14497   3.605   5.317   4.135
 4752WAT     H114498   3.686   5.261   4.152
 4752WAT     H214499   3.525   5.259   4.123
 4753WAT      O14500   2.616   8.143   9.289
 4753WAT     H114501   2.707   8.182   9.304
 4753WAT     H214502   2.623   8.044   9.285
 4754WAT      O14503   9.694   0.747   8.673
 4754WAT     H114504   9.748   0.697   8.604
 4754WAT     H214505   9.627   0.685   8.714
 4755WAT      O14506   5.910   4.141   3.739
 4755WAT     H114507   5.978   4.183   3.678
 4755WAT     H214508   5.918   4.042   3.733
 4756WAT      O14509   0.518   2.987   8.424
 4756WAT     H114510   0.533   3.056   8.353
 4756WAT     H214511   0.445   3.016   8.485
 4757WAT      O14512   8.789   3.063   4.790
 4757WAT     H114513   8.854   2.987   4.795
 4757WAT     H214514   8.827   3.136   4.733
 4758WAT      O14515   4.654   7.169   3.785
 4758WAT     H114516   4.558   7.191   3.770
 4758WAT     H214517   4.669   7.152   3.883
 4759WAT      O14518   0.887   5.741   3.130
 4759WAT     H114519   0.807   5.796   3.104
 4759WAT     H214520   0.923   5.774   3.217
 4760WAT      O14521   5.295   7.039   3.562
 4760WAT     H114522   5.354   7.054   3.641
 4760WAT     H214523   5.213   6.989   3.591
 4761WAT      O14524   6.889   2.040   4.336
 4761WAT     H114525   6.925   2.133   4.332
 4761WAT     H214526   6.930   1.991   4.413
 4762WAT      O14527   2.460   8.692   5.687
 4762WAT     H114528   2.437   8.678   5.783
 4762WAT     H214529   2.553   8.727   5.679
 4763WAT      O14530   3.693   2.019   6.830
 4763WAT     H114531   3.703   2.062   6.920
 4763WAT     H214532   3.599   1.988   6.819
 4764WAT      O14533   9.544   6.399   8.391
 4764WAT     H114534   9.539   6.318   8.332
 4764WAT     H214535   9.625   6.452   8.368
 4765WAT      O14536   9.742   8.301   0.348
 4765WAT     H114537   9.706   8.296   0.441
 4765WAT     H214538   9.738   8.210   0.306
 4766WAT      O14539   9.061   0.983   0.295
 4766WAT     H114540   9.025   0.928   0.219
 4766WAT     H214541   8.986   1.035   0.336
 4767WAT      O14542   6.552   4.864   3.634
 4767WAT     H114543   6.598   4.834   3.718
 4767WAT     H214544   6.618   4.911   3.575
 4768WAT      O14545   5.605   1.826   1.307
 4768WAT     H114546   5.521   1.880   1.310
 4768WAT     H214547   5.677   1.874   1.356
 4769WAT      O14548   5.703   0.959   6.861
 4769WAT     H114549   5.665   0.901   6.933
 4769WAT     H214550   5.643   1.039   6.849
 4770WAT      O14551   1.379   2.916   3.044
 4770WAT     H114552   1.469   2.942   3.081
 4770WAT     H214553   1.312   2.916   3.117
 4771WAT      O14554   5.393   0.254   8.310
 4771WAT     H114555   5.415   0.348   8.334
 4771WAT     H214556   5.356   0.206   8.390
 4772WAT      O14557   6.128   5.221   3.605
 4772WAT     H114558   6.070   5.190   3.530
 4772WAT     H214559   6.120   5.320   3.614
 4773WAT      O14560   6.236   7.257   5.124
 4773WAT     H114561   6.153   7.251   5.180
 4773WAT     H214562   6.316   7.242   5.183
 4774WAT      O14563   6.131   1.344   3.179
 4774WAT     H114564   6.211   1.289   3.203
 4774WAT     H214565   6.147   1.391   3.092
 4775WAT      O14566   2.784   4.997   1.442
 4775WAT     H114567   2.691   4.977   1.474
 4775WAT     H214568   2.839   5.028   1.520
 4776WAT      O14569   3.427   4.551   9.887
 4776WAT     H114570   3.405   4.634   9.835
 4776WAT     H214571   3.447   4.576   9.982
 4777WAT      O14572   8.107   0.176   5.977
 4777WAT     H114573   8.132   0.271   5.997
 4777WAT     H214574   8.073   0.132   6.061
 4778WAT      O14575   0.346   3.145   1.336
 4778WAT     H114576   0.306   3.235   1.355
 4778WAT     H214577   0.284   3.074   1.367
 4779WAT      O14578   9.273   1.304   2.784
 4779WAT     H114579   9.328   1.383   2.757
 4779WAT     H214580   9.309   1.265   2.869
 4780WAT      O14581   7.460   1.517   4.812
 4780WAT     H114582   7.391   1.547   4.877
 4780WAT     H214583   7.462   1.580   4.734
 4781WAT      O14584   5.748   9.300   6.546
 4781WAT     H114585   5.671   9.237   6.554
 4781WAT     H214586   5.828   9.251   6.509
 4782WAT      O14587   3.393   3.277   7.635
 4782WAT     H114588   3.343   3.358   7.605
 4782WAT     H214589   3.339   3.229   7.704
 4783WAT      O14590   8.936   5.996   1.223
 4783WAT     H114591   9.029   6.002   1.261
 4783WAT     H214592   8.938   6.025   1.127
 4784WAT      O14593   7.112   6.809   4.929
 4784WAT     H114594   7.139   6.901   4.902
 4784WAT     H214595   7.040   6.814   4.998
 4785WAT      O14596   6.230   0.805   0.463
 4785WAT     H114597   6.201   0.721   0.509
 4785WAT     H214598   6.265   0.782   0.372
 4786WAT      O14599   3.086   8.912   0.579
 4786WAT     H114600   3.164   8.915   0.641
 4786WAT     H214601   3.043   9.002   0.575
 4787WAT      O14602   5.124   9.256   0.593
 4787WAT     H114603   5.095   9.326   0.658
 4787WAT     H214604   5.175   9.185   0.641
 4788WAT      O14605   3.951   6.335   3.973
 4788WAT     H114606   3.930   6.256   3.916
 4788WAT     H214607   3.970   6.304   4.067
 4789WAT      O14608   4.817   4.929   7.601
 4789WAT     H114609   4.797   4.902   7.695
 4789WAT     H214610   4.796   4.853   7.539
 4790WAT      O14611   8.163   5.484   1.640
 4790WAT     H114612   8.125   5.515   1.553
 4790WAT     H214613   8.240   5.423   1.623
 4791WAT      O14614   3.324   8.093   1.825
 4791WAT     H114615   3.368   8.171   1.780
 4791WAT     H214616   3.382   8.012   1.817
 4792WAT      O14617   4.832   3.879   1.419
 4792WAT     H114618   4.740   3.842   1.408
 4792WAT     H214619   4.897   3.823   1.368
 4793WAT      O14620   4.980   5.128   9.232
 4793WAT     H114621   5.065   5.100   9.277
 4793WAT     H214622   4.952   5.217   9.266
 4794WAT      O14623   8.173   8.265   1.873
 4794WAT     H114624   8.272   8.259   1.884
 4794WAT     H214625   8.135   8.322   1.946
 4795WAT      O14626   2.960   5.423   0.189
 4795WAT     H114627   2.909   5.398   0.106
 4795WAT     H214628   2.963   5.345   0.251
 4796WAT      O14629   1.232   2.070   7.646
 4796WAT     H114630   1.155   2.074   7.711
 4796WAT     H214631   1.198   2.038   7.558
 4797WAT      O14632   3.064   8.439   4.363
 4797WAT     H114633   3.039   8.352   4.405
 4797WAT     H214634   2.986   8.502   4.369
 4798WAT      O14635   3.160   2.891   8.462
 4798WAT     H114636   3.188   2.926   8.373
 4798WAT     H214637   3.061   2.877   8.463
 4799WAT      O14638   4.469   7.170   9.093
 4799WAT     H114639   4.508   7.247   9.043
 4799WAT     H214640   4.406   7.120   9.033
 4800WAT      O14641   3.981   8.535   5.857
 4800WAT     H114642   3.911   8.548   5.927
 4800WAT     H214643   4.071   8.528   5.900
 4801WAT      O14644   3.383   0.825   5.525
 4801WAT     H114645   3.374   0.792   5.619
 4801WAT     H214646   3.479   0.843   5.505
 4802WAT      O14647   6.443   7.247   3.176
 4802WAT     H114648   6.468   7.151   3.167
 4802WAT     H214649   6.476   7.282   3.263
 4803WAT      O14650   1.166   4.918   8.180
 4803WAT     H114651   1.209   4.988   8.237
 4803WAT     H214652   1.119   4.852   8.239
 4804WAT      O14653   0.925   5.842   3.382
 4804WAT     H114654   0.942   5.812   3.475
 4804WAT     H214655   0.948   5.939   3.373
 4805WAT      O14656   2.614   5.025   2.423
 4805WAT     H114657   2.555   5.021   2.504
 4805WAT     H214658   2.558   5.041   2.341
 4806WAT      O14659   2.666   3.493   2.866
 4806WAT     H114660   2.660   3.471   2.769
 4806WAT     H214661   2.754   3.535   2.886
 4807WAT      O14662   5.454   5.573   9.511
 4807WAT     H114663   5.511   5.604   9.435
 4807WAT     H214664   5.476   5.479   9.533
 4808WAT      O14665   7.570   5.470   3.047
 4808WAT     H114666   7.532   5.424   2.967
 4808WAT     H214667   7.589   5.566   3.024
 4809WAT      O14668   8.250   1.743   1.067
 4809WAT     H114669   8.159   1.782   1.081
 4809WAT     H214670   8.256   1.706   0.974
 4810WAT      O14671   1.599   8.634   6.860
 4810WAT     H114672   1.649   8.695   6.798
 4810WAT     H214673   1.660   8.603   6.933
 4811WAT      O14674   2.482   1.476   0.813
 4811WAT     H114675   2.484   1.570   0.779
 4811WAT     H214676   2.562   1.460   0.870
 4812WAT      O14677   4.906   8.716   9.125
 4812WAT     H114678   4.983   8.652   9.128
 4812WAT     H214679   4.849   8.694   9.046
 4813WAT      O14680   6.388   0.907   2.159
 4813WAT     H114681   6.399   0.955   2.246
 4813WAT     H214682   6.432   0.817   2.165
 4814WAT      O14683   7.073   0.923   8.224
 4814WAT     H114684   7.088   0.913   8.126
 4814WAT     H214685   7.012   0.850   8.257
 4815WAT      O14686   6.998   2.858   1.308
 4815WAT     H114687   7.050   2.831   1.227
 4815WAT     H214688   6.973   2.954   1.301
 4816WAT      O14689   6.311   9.015   4.005
 4816WAT     H114690   6.311   9.115   3.996
 4816WAT     H214691   6.219   8.980   3.991
 4817WAT      O14692   6.744   2.616   5.722
 4817WAT     H114693   6.656   2.615   5.770
 4817WAT     H214694   6.786   2.706   5.731
 4818WAT      O14695   9.133   6.765   3.257
 4818WAT     H114696   9.091   6.717   3.334
 4818WAT     H214697   9.091   6.736   3.171
 4819WAT      O14698   9.358   9.637   5.653
 4819WAT     H114699   9.320   9.566   5.594
 4819WAT     H214700   9.336   9.727   5.615
 4820WAT      O14701   2.298   5.791   6.405
 4820WAT     H114702   2.302   5.721   6.334
 4820WAT     H214703   2.283   5.747   6.494
 4821WAT      O14704   6.767   6.518   2.148
 4821WAT     H114705   6.819   6.561   2.222
 4821WAT     H214706   6.669   6.528   2.166
 4822WAT      O14707   7.135   7.022   7.318
 4822WAT     H114708   7.214   6.964   7.335
 4822WAT     H214709   7.107   7.066   7.404
 4823WAT      O14710   1.132   2.072   3.889
 4823WAT     H114711   1.083   2.134   3.827
 4823WAT     H214712   1.172   1.997   3.836
 4824WAT      O14713   4.359   0.063   8.742
 4824WAT     H114714   4.411  -0.015   8.709
 4824WAT     H214715   4.361   0.065   8.842
 4825WAT      O14716   3.433   1.151   7.768
 4825WAT     H114717   3.385   1.082   7.715
 4825WAT     H214718   3.464   1.111   7.855
 4826WAT      O14719   3.595   6.677   3.195
 4826WAT     H114720   3.545   6.595   3.166
 4826WAT     H214721   3.565   6.703   3.287
 4827WAT      O14722   6.119   0.172   0.269
 4827WAT     H114723   6.135   0.182   0.171
 4827WAT     H214724   6.046   0.105   0.285
 4828WAT      O14725   5.605   7.930   0.871
 4828WAT     H114726   5.698   7.934   0.908
 4828WAT     H214727   5.539   7.936   0.946
 4829WAT      O14728   4.459   7.677   1.722
 4829WAT     H114729   4.401   7.654   1.800
 4829WAT     H214730   4.492   7.593   1.679
 4830WAT      O14731   9.695   4.292   5.793
 4830WAT     H114732   9.676   4.388   5.772
 4830WAT     H214733   9.649   4.266   5.878
 4831WAT      O14734   7.681   7.891   3.932
 4831WAT     H114735   7.705   7.944   4.013
 4831WAT     H214736   7.582   7.892   3.919
 4832WAT      O14737   6.250   0.970   5.880
 4832WAT     H114738   6.165   0.932   5.845
 4832WAT     H214739   6.303   0.897   5.924
 4833WAT      O14740   6.279   6.899   6.689
 4833WAT     H114741   6.336   6.969   6.732
 4833WAT     H214742   6.191   6.938   6.663
 4834WAT      O14743   1.603   6.535   8.782
 4834WAT     H114744   1.513   6.558   8.820
 4834WAT     H214745   1.644   6.617   8.743
 4835WAT      O14746   6.625   9.749   0.265
 4835WAT     H114747   6.621   9.655   0.299
 4835WAT     H214748   6.616   9.748   0.166
 4836WAT      O14749   8.618   4.089   7.767
 4836WAT     H114750   8.687   4.052   7.830
 4836WAT     H214751   8.655   4.090   7.674
 4837WAT      O14752   1.731   3.872   2.184
 4837WAT     H114753   1.829   3.869   2.164
 4837WAT     H214754   1.708   3.800   2.249
 4838WAT      O14755   4.780   3.968   9.696
 4838WAT     H114756   4.831   3.886   9.671
 4838WAT     H214757   4.733   4.005   9.616
 4839WAT      O14758   0.842   5.383   1.604
 4839WAT     H114759   0.913   5.396   1.673
 4839WAT     H214760   0.761   5.436   1.629
 4840WAT      O14761   0.731   7.103   8.122
 4840WAT     H114762   0.700   7.190   8.082
 4840WAT     H214763   0.744   7.115   8.220
 4841WAT      O14764   9.341   7.939   6.806
 4841WAT     H114765   9.354   7.989   6.720
 4841WAT     H214766   9.328   8.005   6.880
 4842WAT      O14767   4.860   4.090   5.157
 4842WAT     H114768   4.813   4.129   5.078
 4842WAT     H214769   4.959   4.092   5.141
 4843WAT      O14770   8.658   2.648   4.082
 4843WAT     H114771   8.697   2.736   4.107
 4843WAT     H214772   8.662   2.586   4.160
 4844WAT      O14773   2.088   0.666   0.095
 4844WAT     H114774   2.030   0.736   0.138
 4844WAT     H214775   2.029   0.601   0.046
 4845WAT      O14776   2.314   2.192   9.617
 4845WAT     H114777   2.401   2.233   9.643
 4845WAT     H214778   2.262   2.257   9.561
 4846WAT      O14779   0.066   7.555   0.146
 4846WAT     H114780   0.102   7.474   0.098
 4846WAT     H214781   0.142   7.609   0.181
 4847WAT      O14782   0.649   1.215   2.354
 4847WAT     H114783   0.674   1.305   2.390
 4847WAT     H214784   0.569   1.181   2.403
 4848WAT      O14785   4.105   7.725   9.483
 4848WAT     H114786   4.197   7.719   9.523
 4848WAT     H214787   4.039   7.682   9.545
 4849WAT      O14788   0.806   8.627   4.406
 4849WAT     H114789   0.884   8.687   4.388
 4849WAT     H214790   0.832   8.558   4.473
 4850WAT      O14791   6.250   6.804   8.228
 4850WAT     H114792   6.269   6.862   8.307
 4850WAT     H214793   6.152   6.802   8.211
 4851WAT      O14794   0.387   5.889   8.731
 4851WAT     H114795   0.365   5.954   8.804
 4851WAT     H214796   0.335   5.911   8.649
 4852WAT      O14797   4.246   3.713   7.274
 4852WAT     H114798   4.331   3.686   7.319
 4852WAT     H214799   4.202   3.631   7.235
 4853WAT      O14800   2.260   3.604   6.288
 4853WAT     H114801   2.301   3.616   6.197
 4853WAT     H214802   2.245   3.507   6.305
 4854WAT      O14803   8.801   9.130   7.759
 4854WAT     H114804   8.896   9.155   7.738
 4854WAT     H214805   8.794   9.107   7.856
 4855WAT      O14806   7.338   7.305   1.155
 4855WAT     H114807   7.425   7.258   1.166
 4855WAT     H214808   7.303   7.290   1.063
 4856WAT      O14809   1.896   4.924   1.148
 4856WAT     H114810   1.901   4.872   1.233
 4856WAT     H214811   1.985   4.964   1.128
 4857WAT      O14812   6.931   5.883   7.706
 4857WAT     H114813   6.947   5.867   7.608
 4857WAT     H214814   6.920   5.981   7.722
 4858WAT      O14815   1.096   4.699   5.499
 4858WAT     H114816   1.136   4.702   5.591
 4858WAT     H214817   1.155   4.645   5.438
 4859WAT      O14818   7.731   1.169   2.363
 4859WAT     H114819   7.729   1.193   2.461
 4859WAT     H214820   7.751   1.072   2.353
 4860WAT      O14821   1.238   1.341   4.292
 4860WAT     H114822   1.221   1.286   4.374
 4860WAT     H214823   1.212   1.436   4.310
 4861WAT      O14824   3.847   6.689   6.382
 4861WAT     H114825   3.854   6.709   6.479
 4861WAT     H214826   3.765   6.633   6.365
 4862WAT      O14827   8.444   0.095   7.641
 4862WAT     H114828   8.511   0.136   7.703
 4862WAT     H214829   8.434  -0.002   7.660
 4863WAT      O14830   0.413   4.606   0.608
 4863WAT     H114831   0.494   4.663   0.598
 4863WAT     H214832   0.426   4.543   0.684
 4864WAT      O14833   4.875   5.211   8.427
 4864WAT     H114834   4.917   5.147   8.363
 4864WAT     H214835   4.849   5.163   8.511
 4865WAT      O14836   0.388   0.086   3.462
 4865WAT     H114837   0.409   0.041   3.549
 4865WAT     H214838   0.312   0.149   3.475
 4866WAT      O14839   6.770   4.658   1.278
 4866WAT     H114840   6.860   4.654   1.322
 4866WAT     H214841   6.752   4.571   1.231
 4867WAT      O14842   7.046   2.519   1.122
 4867WAT     H114843   6.983   2.445   1.103
 4867WAT     H214844   7.097   2.498   1.206
 4868WAT      O14845   2.375   6.418   3.150
 4868WAT     H114846   2.403   6.509   3.120
 4868WAT     H214847   2.437   6.386   3.221
 4869WAT      O14848   5.489   6.616   8.794
 4869WAT     H114849   5.452   6.705   8.769
 4869WAT     H214850   5.569   6.595   8.737
 4870WAT      O14851   6.801   4.569   5.779
 4870WAT     H114852   6.713   4.616   5.775
 4870WAT     H214853   6.862   4.607   5.710
 4871WAT      O14854   7.223   0.891   5.686
 4871WAT     H114855   7.228   0.917   5.590
 4871WAT     H214856   7.222   0.973   5.743
 4872WAT      O14857   8.699   7.356   7.381
 4872WAT     H114858   8.773   7.393   7.324
 4872WAT     H214859   8.622   7.330   7.323
 4873WAT      O14860   5.668   3.351   1.247
 4873WAT     H114861   5.767   3.352   1.236
 4873WAT     H214862   5.640   3.266   1.291
 4874WAT      O14863   7.422   2.510   1.168
 4874WAT     H114864   7.390   2.550   1.082
 4874WAT     H214865   7.380   2.420   1.180
 4875WAT      O14866   5.666   0.363   3.075
 4875WAT     H114867   5.722   0.291   3.115
 4875WAT     H214868   5.709   0.396   2.990
 4876WAT      O14869   9.892   1.486   2.196
 4876WAT     H114870   9.896   1.562   2.261
 4876WAT     H214871   9.800   1.481   2.156
 4877WAT      O14872   0.656   4.848   4.803
 4877WAT     H114873   0.708   4.836   4.887
 4877WAT     H214874   0.695   4.924   4.750
 4878WAT      O14875   2.320   8.021   5.375
 4878WAT     H114876   2.321   7.958   5.453
 4878WAT     H214877   2.383   8.096   5.392
 4879WAT      O14878   5.862   9.718   6.762
 4879WAT     H114879   5.848   9.795   6.824
 4879WAT     H214880   5.875   9.752   6.668
 4880WAT      O14881   9.376   6.094   6.356
 4880WAT     H114882   9.461   6.146   6.362
 4880WAT     H214883   9.396   5.996   6.355
 4881WAT      O14884   0.684   7.533   8.654
 4881WAT     H114885   0.646   7.484   8.576
 4881WAT     H214886   0.784   7.524   8.653
 4882WAT      O14887   0.777   3.036   0.533
 4882WAT     H114888   0.681   3.035   0.561
 4882WAT     H214889   0.791   3.107   0.464
 4883WAT      O14890   5.795   9.202   1.252
 4883WAT     H114891   5.835   9.114   1.278
 4883WAT     H214892   5.825   9.273   1.316
 4884WAT      O14893   3.621   1.477   9.477
 4884WAT     H114894   3.600   1.575   9.468
 4884WAT     H214895   3.647   1.456   9.571
 4885WAT      O14896   7.596   8.667   3.529
 4885WAT     H114897   7.523   8.689   3.594
 4885WAT     H214898   7.603   8.567   3.521
 4886WAT      O14899   9.326   9.706   6.249
 4886WAT     H114900   9.348   9.733   6.343
 4886WAT     H214901   9.259   9.770   6.210
 4887WAT      O14902   4.542   4.715   3.432
 4887WAT     H114903   4.447   4.699   3.461
 4887WAT     H214904   4.580   4.631   3.395
 4888WAT      O14905   9.173   5.445   6.793
 4888WAT     H114906   9.136   5.378   6.856
 4888WAT     H214907   9.226   5.513   6.844
 4889WAT      O14908   0.778   5.574   8.067
 4889WAT     H114909   0.753   5.520   7.987
 4889WAT     H214910   0.719   5.654   8.073
 4890WAT      O14911   2.448   8.242   3.531
 4890WAT     H114912   2.499   8.162   3.499
 4890WAT     H214913   2.431   8.234   3.629
 4891WAT      O14914   5.364   5.594   8.210
 4891WAT     H114915   5.311   5.513   8.233
 4891WAT     H214916   5.367   5.606   8.111
 4892WAT      O14917   7.091   3.723   7.231
 4892WAT     H114918   7.050   3.644   7.276
 4892WAT     H214919   7.180   3.742   7.272
 4893WAT      O14920   9.064   8.652   0.464
 4893WAT     H114921   8.974   8.614   0.441
 4893WAT     H214922   9.131   8.622   0.396
 4894WAT      O14923   8.383   8.599   6.674
 4894WAT     H114924   8.377   8.647   6.761
 4894WAT     H214925   8.476   8.607   6.638
 4895WAT      O14926   0.824   6.838   5.099
 4895WAT     H114927   0.784   6.790   5.177
 4895WAT     H214928   0.780   6.927   5.089
 4896WAT      O14929   1.776   5.130   9.766
 4896WAT     H114930   1.829   5.212   9.785
 4896WAT     H214931   1.732   5.098   9.850
 4897WAT      O14932   5.535   5.248   9.216
 4897WAT     H114933   5.538   5.320   9.147
 4897WAT     H214934   5.626   5.235   9.255
 4898WAT      O14935   0.578   1.673   9.513
 4898WAT     H114936   0.561   1.668   9.612
 4898WAT     H214937   0.671   1.709   9.497
 4899WAT      O14938   4.858   9.141   7.006
 4899WAT     H114939   4.900   9.214   6.952
 4899WAT     H214940   4.890   9.052   6.973
 4900WAT      O14941   0.136   7.682   7.659
 4900WAT     H114942   0.102   7.653   7.749
 4900WAT     H214943   0.062   7.678   7.592
 4901WAT      O14944   3.212   5.358   9.790
 4901WAT     H114945   3.261   5.271   9.778
 4901WAT     H214946   3.266   5.419   9.848
 4902WAT      O14947   4.832   2.695   7.647
 4902WAT     H114948   4.917   2.738   7.616
 4902WAT     H214949   4.756   2.724   7.590
 4903WAT      O14950   5.347   7.937   2.210
 4903WAT     H114951   5.414   7.962   2.141
 4903WAT     H214952   5.381   7.964   2.300
 4904WAT      O14953   2.434   4.463   2.586
 4904WAT     H114954   2.338   4.451   2.560
 4904WAT     H214955   2.452   4.413   2.671
 4905WAT      O14956   7.710   2.058   9.183
 4905WAT     H114957   7.755   1.989   9.240
 4905WAT     H214958   7.735   2.149   9.215
 4906WAT      O14959   7.351   8.319   4.520
 4906WAT     H114960   7.439   8.290   4.482
 4906WAT     H214961   7.296   8.361   4.448
 4907WAT      O14962   8.119   6.111   7.928
 4907WAT     H114963   8.037   6.058   7.949
 4907WAT     H214964   8.187   6.098   8.000
 4908WAT      O14965   6.847   8.119   8.870
 4908WAT     H114966   6.911   8.194   8.854
 4908WAT     H214967   6.892   8.048   8.925
 4909WAT      O14968   0.909   1.690   5.390
 4909WAT     H114969   0.967   1.768   5.367
 4909WAT     H214970   0.964   1.621   5.438
 4910WAT      O14971   1.958   4.070   1.605
 4910WAT     H114972   1.919   4.061   1.513
 4910WAT     H214973   2.021   4.147   1.607
 4911WAT      O14974   4.388   2.196   9.831
 4911WAT     H114975   4.348   2.105   9.822
 4911WAT     H214976   4.333   2.250   9.895
 4912WAT      O14977   9.621   6.474   5.009
 4912WAT     H114978   9.532   6.432   5.029
 4912WAT     H214979   9.686   6.449   5.080
 4913WAT      O14980   5.641   5.031   2.465
 4913WAT     H114981   5.698   4.957   2.429
 4913WAT     H214982   5.576   5.060   2.395
 4914WAT      O14983   3.225   9.289   2.004
 4914WAT     H114984   3.184   9.379   1.994
 4914WAT     H214985   3.311   9.296   2.054
 4915WAT      O14986   1.586   6.596   1.276
 4915WAT     H114987   1.655   6.620   1.207
 4915WAT     H214988   1.582   6.669   1.345
 4916WAT      O14989   4.904   4.962   1.500
 4916WAT     H114990   4.875   5.053   1.530
 4916WAT     H214991   4.979   4.972   1.434
 4917WAT      O14992   3.349   2.880   5.801
 4917WAT     H114993   3.341   2.795   5.853
 4917WAT     H214994   3.257   2.916   5.782
 4918WAT      O14995   5.904   8.367   3.570
 4918WAT     H114996   5.831   8.435   3.577
 4918WAT     H214997   5.977   8.389   3.634
 4919WAT      O14998   0.674   3.373   9.543
 4919WAT     H114999   0.604   3.319   9.496
 4919WAT     H215000   0.630   3.433   9.610
 4920WAT      O15001   0.433   6.254   0.010
 4920WAT     H115002   0.337   6.258  -0.018
 4920WAT     H215003   0.462   6.159   0.018
 4921WAT      O15004   3.991   2.812   3.592
 4921WAT     H115005   3.986   2.739   3.524
 4921WAT     H215006   4.068   2.872   3.570
 4922WAT      O15007   2.215   8.644   1.506
 4922WAT     H115008   2.152   8.715   1.476
 4922WAT     H215009   2.285   8.684   1.566
 4923WAT      O15010   4.190   8.708   1.781
 4923WAT     H115011   4.289   8.714   1.771
 4923WAT     H215012   4.149   8.798   1.768
 4924WAT      O15013   4.652   7.755   8.644
 4924WAT     H115014   4.609   7.679   8.694
 4924WAT     H215015   4.682   7.723   8.555
 4925WAT      O15016   3.729   5.432   3.132
 4925WAT     H115017   3.698   5.454   3.039
 4925WAT     H215018   3.770   5.514   3.173
 4926WAT      O15019   9.595   5.812   3.543
 4926WAT     H115020   9.559   5.771   3.627
 4926WAT     H215021   9.520   5.857   3.494
 4927WAT      O15022   5.455   9.007   2.142
 4927WAT     H115023   5.419   9.024   2.051
 4927WAT     H215024   5.542   8.958   2.136
 4928WAT      O15025   9.030   3.671   0.038
 4928WAT     H115026   9.051   3.762   0.003
 4928WAT     H215027   9.047   3.668   0.136
 4929WAT      O15028   9.735   7.167   2.878
 4929WAT     H115029   9.815   7.223   2.898
 4929WAT     H215030   9.699   7.129   2.963
 4930WAT      O15031   9.000   8.532   9.091
 4930WAT     H115032   9.035   8.624   9.106
 4930WAT     H215033   8.923   8.535   9.027
 4931WAT      O15034   0.810   7.835   7.640
 4931WAT     H115035   0.804   7.752   7.584
 4931WAT     H215036   0.729   7.891   7.625
 4932WAT      O15037   5.860   3.259   3.900
 4932WAT     H115038   5.831   3.318   3.825
 4932WAT     H215039   5.958   3.272   3.918
 4933WAT      O15040   8.640   5.449   6.392
 4933WAT     H115041   8.715   5.442   6.326
 4933WAT     H215042   8.554   5.464   6.343
 4934WAT      O15043   3.392   5.153   9.781
 4934WAT     H115044   3.441   5.223   9.729
 4934WAT     H215045   3.446   5.128   9.862
 4935WAT      O15046   5.664   7.681   2.854
 4935WAT     H115047   5.582   7.720   2.811
 4935WAT     H215048   5.705   7.613   2.793
 4936WAT      O15049   0.139   0.351   3.702
 4936WAT     H115050   0.094   0.351   3.791
 4936WAT     H215051   0.111   0.270   3.650
 4937WAT      O15052   1.516   7.035   3.100
 4937WAT     H115053   1.532   7.110   3.163
 4937WAT     H215054   1.584   7.038   3.026
 4938WAT      O15055   7.902   1.198   0.043
 4938WAT     H115056   7.969   1.131   0.011
 4938WAT     H215057   7.940   1.290   0.034
 4939WAT      O15058   4.386   1.387   9.276
 4939WAT     H115059   4.288   1.369   9.290
 4939WAT     H215060   4.431   1.302   9.246
 4940WAT      O15061   0.097   5.457   8.736
 4940WAT     H115062   0.187   5.422   8.762
 4940WAT     H215063   0.086   5.550   8.771
 4941WAT      O15064   3.375   5.496   1.489
 4941WAT     H115065   3.287   5.471   1.448
 4941WAT     H215066   3.445   5.430   1.461
 4942WAT      O15067   5.912   5.913   2.223
 4942WAT     H115068   5.995   5.877   2.265
 4942WAT     H215069   5.883   5.996   2.271
 4943WAT      O15070   8.395   5.328   0.842
 4943WAT     H115071   8.391   5.336   0.743
 4943WAT     H215072   8.403   5.420   0.882
 4944WAT      O15073   3.068   9.784   8.141
 4944WAT     H115074   3.105   9.704   8.188
 4944WAT     H215075   3.001   9.754   8.072
 4945WAT      O15076   3.985   2.768   1.750
 4945WAT     H115077   3.992   2.683   1.802
 4945WAT     H215078   3.988   2.748   1.652
 4946WAT      O15079   8.581   6.427   8.611
 4946WAT     H115080   8.552   6.402   8.519
 4946WAT     H215081   8.506   6.474   8.658
 4947WAT      O15082   0.382   3.614   5.590
 4947WAT     H115083   0.294   3.572   5.613
 4947WAT     H215084   0.374   3.662   5.503
 4948WAT      O15085   6.657   1.655   1.609
 4948WAT     H115086   6.574   1.669   1.662
 4948WAT     H215087   6.709   1.579   1.648
 4949WAT      O15088   6.813   7.975   1.512
 4949WAT     H115089   6.886   8.024   1.464
 4949WAT     H215090   6.831   7.877   1.508
 4950WAT      O15091   2.361   2.558   8.601
 4950WAT     H115092   2.261   2.567   8.607
 4950WAT     H215093   2.394   2.504   8.678
 4951WAT      O15094   5.339   0.961   6.624
 4951WAT     H115095   5.394   1.034   6.583
 4951WAT     H215096   5.362   0.874   6.580
 4952WAT      O15097   9.654   6.946   5.677
 4952WAT     H115098   9.618   6.877   5.614
 4952WAT     H215099   9.600   7.029   5.669
 4953WAT      O15100   2.351   6.572   4.338
 4953WAT     H115101   2.259   6.538   4.320
 4953WAT     H215102   2.347   6.669   4.364
 4954WAT      O15103   7.668   9.144   3.942
 4954WAT     H115104   7.665   9.085   3.861
 4954WAT     H215105   7.745   9.208   3.934
 4955WAT      O15106   2.096   3.707   0.124
 4955WAT     H115107   2.066   3.750   0.209
 4955WAT     H215108   2.104   3.609   0.138
 4956WAT      O15109   9.541   5.864   5.790
 4956WAT     H115110   9.489   5.881   5.874
 4956WAT     H215111   9.552   5.950   5.740
 4957WAT      O15112   7.042   2.297   2.883
 4957WAT     H115113   7.134   2.324   2.910
 4957WAT     H215114   7.035   2.297   2.783
 4958WAT      O15115   7.284   4.915   8.353
 4958WAT     H115116   7.263   4.913   8.256
 4958WAT     H215117   7.286   5.010   8.385
 4959WAT      O15118   6.001   3.094   4.880
 4959WAT     H115119   5.939   3.083   4.958
 4959WAT     H215120   5.952   3.076   4.795
 4960WAT      O15121   8.141   3.579   1.626
 4960WAT     H115122   8.211   3.608   1.561
 4960WAT     H215123   8.178   3.584   1.719
 4961WAT      O15124   6.198   4.534   1.393
 4961WAT     H115125   6.183   4.471   1.317
 4961WAT     H215126   6.149   4.501   1.474
 4962WAT      O15127   1.392   3.885   7.791
 4962WAT     H115128   1.306   3.882   7.742
 4962WAT     H215129   1.415   3.980   7.814
 4963WAT      O15130   9.596   8.006   6.335
 4963WAT     H115131   9.676   8.050   6.376
 4963WAT     H215132   9.594   7.909   6.362
 4964WAT      O15133   7.165   5.911   4.679
 4964WAT     H115134   7.091   5.917   4.746
 4964WAT     H215135   7.128   5.924   4.587
 4965WAT      O15136   7.736   5.072   1.472
 4965WAT     H115137   7.660   5.137   1.481
 4965WAT     H215138   7.700   4.982   1.447
 4966WAT      O15139   5.986   8.346   0.716
 4966WAT     H115140   5.932   8.406   0.656
 4966WAT     H215141   5.956   8.252   0.704
 4967WAT      O15142   1.446   6.686   5.699
 4967WAT     H115143   1.519   6.665   5.763
 4967WAT     H215144   1.480   6.680   5.605
 4968WAT      O15145   8.320   0.526   9.474
 4968WAT     H115146   8.306   0.590   9.550
 4968WAT     H215147   8.248   0.538   9.406
 4969WAT      O15148   7.339   5.216   5.815
 4969WAT     H115149   7.244   5.186   5.826
 4969WAT     H215150   7.400   5.143   5.846
 4970WAT      O15151   4.162   1.408   7.907
 4970WAT     H115152   4.134   1.416   7.812
 4970WAT     H215153   4.091   1.447   7.966
 4971WAT      O15154   1.701   3.508   0.253
 4971WAT     H115155   1.742   3.599   0.249
 4971WAT     H215156   1.759   3.443   0.204
 4972WAT      O15157   8.323   7.062   7.377
 4972WAT     H115158   8.346   7.073   7.474
 4972WAT     H215159   8.242   7.115   7.355
 4973WAT      O15160   5.266   4.221   4.117
 4973WAT     H115161   5.252   4.212   4.018
 4973WAT     H215162   5.178   4.231   4.163
 4974WAT      O15163   0.710   5.137   4.192
 4974WAT     H115164   0.647   5.060   4.183
 4974WAT     H215165   0.693   5.184   4.278
 4975WAT      O15166   7.800   7.023   9.049
 4975WAT     H115167   7.735   7.054   9.118
 4975WAT     H215168   7.829   6.930   9.070
 4976WAT      O15169   8.941   1.949   0.113
 4976WAT     H115170   8.880   1.984   0.183
 4976WAT     H215171   8.892   1.940   0.026
 4977WAT      O15172   3.592   5.514   2.156
 4977WAT     H115173   3.688   5.505   2.180
 4977WAT     H215174   3.583   5.568   2.072
 4978WAT      O15175   2.271   3.741   0.389
 4978WAT     H115176   2.193   3.765   0.447
 4978WAT     H215177   2.309   3.653   0.419
 4979WAT      O15178   0.687   3.739   9.023
 4979WAT     H115179   0.639   3.795   9.092
 4979WAT     H215180   0.781   3.724   9.052
 4980WAT      O15181   3.507   5.728   9.334
 4980WAT     H115182   3.520   5.791   9.258
 4980WAT     H215183   3.421   5.749   9.380
 4981WAT      O15184   4.845   5.674   2.400
 4981WAT     H115185   4.912   5.734   2.444
 4981WAT     H215186   4.841   5.694   2.302
 4982WAT      O15187   5.412   8.209   3.593
 4982WAT     H115188   5.353   8.135   3.560
 4982WAT     H215189   5.394   8.225   3.690
 4983WAT      O15190   5.593   8.772   7.139
 4983WAT     H115191   5.616   8.862   7.177
 4983WAT     H215192   5.661   8.705   7.167
 4984WAT      O15193   7.797   0.908   8.929
 4984WAT     H115194   7.806   0.845   9.006
 4984WAT     H215195   7.878   0.966   8.923
 4985WAT      O15196   7.075   9.287   4.928
 4985WAT     H115197   7.132   9.257   5.005
 4985WAT     H215198   6.997   9.225   4.918
 4986WAT      O15199   1.755   3.414   3.360
 4986WAT     H115200   1.828   3.405   3.292
 4986WAT     H215201   1.795   3.435   3.449
 4987WAT      O15202   0.854   1.358   7.496
 4987WAT     H115203   0.949   1.360   7.527
 4987WAT     H215204   0.847   1.303   7.413
 4988WAT      O15205   4.366   3.779   8.883
 4988WAT     H115206   4.334   3.772   8.977
 4988WAT     H215207   4.463   3.802   8.882
 4989WAT      O15208   8.292   4.317   6.737
 4989WAT     H115209   8.247   4.246   6.791
 4989WAT     H215210   8.391   4.314   6.752
 4990WAT      O15211   7.261   9.337   5.871
 4990WAT     H115212   7.300   9.412   5.818
 4990WAT     H215213   7.246   9.258   5.812
 4991WAT      O15214   7.902   4.258   8.196
 4991WAT     H115215   7.919   4.187   8.128
 4991WAT     H215216   7.970   4.252   8.269
 4992WAT      O15217   6.245   7.110   8.002
 4992WAT     H115218   6.316   7.081   8.067
 4992WAT     H215219   6.192   7.031   7.974
 4993WAT      O15220   0.469   7.494   0.350
 4993WAT     H115221   0.559   7.466   0.385
 4993WAT     H215222   0.401   7.484   0.422
 4994WAT      O15223   7.406   4.527   2.557
 4994WAT     H115224   7.379   4.600   2.493
 4994WAT     H215225   7.448   4.452   2.506
 4995WAT      O15226   7.924   3.566   5.121
 4995WAT     H115227   8.020   3.587   5.137
 4995WAT     H215228   7.893   3.612   5.038
 4996WAT      O15229   1.946   8.943   0.004
 4996WAT     H115230   1.946   9.035  -0.034
 4996WAT     H215231   2.040   8.911   0.016
 4997WAT      O15232   7.958   1.178   9.523
 4997WAT     H115233   7.878   1.123   9.545
 4997WAT     H215234   7.934   1.275   9.525
 4998WAT      O15235   6.042   2.467   4.526
 4998WAT     H115236   6.042   2.485   4.625
 4998WAT     H215237   5.948   2.470   4.492
 4999WAT      O15238   2.930   5.628   1.685
 4999WAT     H115239   2.903   5.652   1.592
 4999WAT     H215240   2.952   5.530   1.689
 5000WAT      O15241   0.041   0.616   3.653
 5000WAT     H115242   0.089   0.529   3.647
 5000WAT     H215243   0.103   0.691   3.630
 5001WAT      O15244   8.928   0.579   3.686
 5001WAT     H115245   8.918   0.643   3.762
 5001WAT     H215246   9.004   0.516   3.705
 5002WAT      O15247   3.580   0.010   6.708
 5002WAT     H115248   3.521  -0.069   6.690
 5002WAT     H215249   3.530   0.094   6.687
 5003WAT      O15250   3.344   2.467   1.047
 5003WAT     H115251   3.263   2.410   1.062
 5003WAT     H215252   3.316   2.555   1.009
 5004WAT      O15253   2.125   7.633   6.618
 5004WAT     H115254   2.103   7.569   6.545
 5004WAT     H215255   2.216   7.612   6.654
 5005WAT      O15256   8.462   8.697   6.939
 5005WAT     H115257   8.519   8.769   6.899
 5005WAT     H215258   8.519   8.636   6.995
 5006WAT      O15259   9.503   5.588   9.790
 5006WAT     H115260   9.437   5.535   9.843
 5006WAT     H215261   9.552   5.651   9.851
 5007WAT      O15262   6.179   1.054   2.598
 5007WAT     H115263   6.258   0.995   2.584
 5007WAT     H215264   6.098   1.011   2.560
 5008WAT      O15265   6.853   5.225   5.809
 5008WAT     H115266   6.768   5.180   5.784
 5008WAT     H215267   6.844   5.324   5.793
 5009WAT      O15268   1.890   8.243   5.339
 5009WAT     H115269   1.910   8.146   5.330
 5009WAT     H215270   1.916   8.290   5.254
 5010WAT      O15271   1.555   4.219   8.472
 5010WAT     H115272   1.506   4.277   8.537
 5010WAT     H215273   1.640   4.187   8.514
 5011WAT      O15274   1.432   2.674   5.563
 5011WAT     H115275   1.442   2.737   5.641
 5011WAT     H215276   1.504   2.693   5.496
 5012WAT      O15277   9.862   3.982   2.288
 5012WAT     H115278   9.928   4.018   2.355
 5012WAT     H215279   9.889   4.010   2.196
 5013WAT      O15280   0.975   7.487   3.218
 5013WAT     H115281   0.981   7.583   3.245
 5013WAT     H215282   1.041   7.468   3.146
 5014WAT      O15283   1.642   7.205   1.312
 5014WAT     H115284   1.634   7.163   1.402
 5014WAT     H215285   1.735   7.240   1.300
 5015WAT      O15286   3.214   6.380   0.101
 5015WAT     H115287   3.255   6.422   0.020
 5015WAT     H215288   3.275   6.309   0.136
 5016WAT      O15289   5.490   8.988   5.291
 5016WAT     H115290   5.412   9.009   5.232
 5016WAT     H215291   5.473   9.025   5.383
 5017WAT      O15292   4.886   2.138   8.236
 5017WAT     H115293   4.898   2.155   8.138
 5017WAT     H215294   4.975   2.122   8.278
 5018WAT      O15295   6.240   3.964   3.193
 5018WAT     H115296   6.208   3.929   3.281
 5018WAT     H215297   6.235   4.064   3.193
 5019WAT      O15298   5.495   9.286   3.948
 5019WAT     H115299   5.560   9.216   3.920
 5019WAT     H215300   5.440   9.252   4.024
 5020WAT      O15301   2.659   2.978   8.791
 5020WAT     H115302   2.618   2.925   8.717
 5020WAT     H215303   2.714   2.918   8.849
 5021WAT      O15304   3.232   0.624   4.952
 5021WAT     H115305   3.151   0.646   5.006
 5021WAT     H215306   3.240   0.687   4.875
 5022WAT      O15307   9.001   5.820   1.680
 5022WAT     H115308   9.032   5.788   1.769
 5022WAT     H215309   8.933   5.756   1.643
 5023WAT      O15310   8.998   0.996   3.247
 5023WAT     H115311   9.017   0.929   3.318
 5023WAT     H215312   8.899   1.001   3.231
 5024WAT      O15313   3.912   0.750   3.561
 5024WAT     H115314   3.846   0.677   3.579
 5024WAT     H215315   3.994   0.710   3.518
 5025WAT      O15316   5.318   1.878   9.110
 5025WAT     H115317   5.334   1.816   9.187
 5025WAT     H215318   5.228   1.860   9.070
 5026WAT      O15319   0.334   9.137   0.971
 5026WAT     H115320   0.405   9.101   1.033
 5026WAT     H215321   0.250   9.153   1.023
 5027WAT      O15322   4.086   0.832   3.788
 5027WAT     H115323   4.008   0.864   3.842
 5027WAT     H215324   4.054   0.804   3.697
 5028WAT      O15325   1.693   1.259   4.792
 5028WAT     H115326   1.640   1.202   4.854
 5028WAT     H215327   1.708   1.349   4.833
 5029WAT      O15328   4.061   7.305   5.350
 5029WAT     H115329   4.110   7.388   5.323
 5029WAT     H215330   4.051   7.245   5.270
 5030WAT      O15331   7.268   0.526   4.766
 5030WAT     H115332   7.189   0.548   4.824
 5030WAT     H215333   7.244   0.541   4.670
 5031WAT      O15334   7.427   7.717   7.676
 5031WAT     H115335   7.377   7.724   7.589
 5031WAT     H215336   7.485   7.636   7.675
 5032WAT      O15337   7.294   5.793   2.235
 5032WAT     H115338   7.264   5.744   2.153
 5032WAT     H215339   7.352   5.871   2.209
 5033WAT      O15340   9.565   0.271   7.764
 5033WAT     H115341   9.513   0.272   7.850
 5033WAT     H215342   9.598   0.363   7.743
 5034WAT      O15343   8.097   5.510   8.611
 5034WAT     H115344   8.053   5.591   8.650
 5034WAT     H215345   8.177   5.486   8.666
 5035WAT      O15346   6.107   5.941   9.858
 5035WAT     H115347   6.127   5.909   9.951
 5035WAT     H215348   6.031   6.006   9.862
 5036WAT      O15349   6.867   5.829   2.344
 5036WAT     H115350   6.829   5.765   2.277
 5036WAT     H215351   6.836   5.922   2.322
 5037WAT      O15352   1.352   7.610   9.173
 5037WAT     H115353   1.312   7.663   9.098
 5037WAT     H215354   1.279   7.574   9.232
 5038WAT      O15355   3.300   6.202   8.892
 5038WAT     H115356   3.278   6.249   8.807
 5038WAT     H215357   3.397   6.213   8.912
 5039WAT      O15358   1.999   8.404   0.714
 5039WAT     H115359   1.957   8.475   0.771
 5039WAT     H215360   2.065   8.353   0.769
 5040WAT      O15361   7.993   8.082   1.115
 5040WAT     H115362   7.918   8.026   1.079
 5040WAT     H215363   8.077   8.028   1.115
 5041WAT      O15364   9.202   1.968   4.454
 5041WAT     H115365   9.148   1.948   4.536
 5041WAT     H215366   9.277   2.029   4.477
 5042WAT      O15367   5.551   8.121   2.521
 5042WAT     H115368   5.574   8.145   2.616
 5042WAT     H215369   5.613   8.168   2.459
 5043WAT      O15370   7.139   8.902   4.912
 5043WAT     H115371   7.090   8.952   4.840
 5043WAT     H215372   7.227   8.872   4.878
 5044WAT      O15373   5.017   7.490   9.352
 5044WAT     H115374   4.955   7.485   9.273
 5044WAT     H215375   4.974   7.448   9.431
 5045WAT      O15376   6.623   2.631   5.125
 5045WAT     H115377   6.539   2.606   5.076
 5045WAT     H215378   6.631   2.731   5.127
 5046WAT      O15379   1.073   5.248   7.857
 5046WAT     H115380   1.060   5.153   7.884
 5046WAT     H215381   1.129   5.252   7.775
 5047WAT      O15382   5.500   8.938   6.914
 5047WAT     H115383   5.515   8.878   6.992
 5047WAT     H215384   5.448   8.889   6.843
 5048WAT      O15385   0.524   1.521   0.530
 5048WAT     H115386   0.584   1.535   0.609
 5048WAT     H215387   0.579   1.496   0.450
 5049WAT      O15388   1.858   3.077   6.642
 5049WAT     H115389   1.822   3.043   6.556
 5049WAT     H215390   1.839   3.175   6.651
 5050WAT      O15391   1.224   4.443   4.030
 5050WAT     H115392   1.129   4.466   4.052
 5050WAT     H215393   1.229   4.409   3.936
 5051WAT      O15394   3.143   8.010   3.816
 5051WAT     H115395   3.211   8.032   3.746
 5051WAT     H215396   3.174   8.045   3.904
 5052WAT      O15397   6.631   1.711   2.849
 5052WAT     H115398   6.621   1.688   2.946
 5052WAT     H215399   6.593   1.637   2.793
 5053WAT      O15400   3.043   2.688   0.010
 5053WAT     H115401   2.961   2.655   0.055
 5053WAT     H215402   3.119   2.626   0.030
 5054WAT      O15403   0.438   6.947   6.944
 5054WAT     H115404   0.466   6.877   7.010
 5054WAT     H215405   0.350   6.920   6.903
 5055WAT      O15406   7.710   3.812   4.499
 5055WAT     H115407   7.728   3.747   4.574
 5055WAT     H215408   7.619   3.795   4.462
 5056WAT      O15409   9.516   0.372   7.426
 5056WAT     H115410   9.588   0.434   7.456
 5056WAT     H215411   9.428   0.403   7.462
 5057WAT      O15412   6.547   0.471   1.226
 5057WAT     H115413   6.557   0.568   1.251
 5057WAT     H215414   6.609   0.416   1.282
 5058WAT      O15415   3.679   4.045   6.040
 5058WAT     H115416   3.722   3.968   5.993
 5058WAT     H215417   3.645   4.111   5.973
 5059WAT      O15418   1.416   7.778   0.360
 5059WAT     H115419   1.339   7.725   0.395
 5059WAT     H215420   1.473   7.808   0.437
 5060WAT      O15421   3.574   2.403   9.658
 5060WAT     H115422   3.637   2.459   9.711
 5060WAT     H215423   3.480   2.421   9.689
 5061WAT      O15424   2.035   3.450   1.287
 5061WAT     H115425   2.077   3.361   1.269
 5061WAT     H215426   2.043   3.507   1.205
 5062WAT      O15427   2.275   4.160   9.242
 5062WAT     H115428   2.286   4.253   9.207
 5062WAT     H215429   2.336   4.099   9.192
 5063WAT      O15430   5.360   1.841   5.801
 5063WAT     H115431   5.420   1.859   5.879
 5063WAT     H215432   5.273   1.803   5.834
 5064WAT      O15433   3.861   8.593   9.401
 5064WAT     H115434   3.900   8.544   9.323
 5064WAT     H215435   3.890   8.549   9.486
 5065WAT      O15436   9.444   8.820   0.541
 5065WAT     H115437   9.402   8.888   0.481
 5065WAT     H215438   9.446   8.732   0.494
 5066WAT      O15439   2.545   2.150   4.076
 5066WAT     H115440   2.493   2.118   4.156
 5066WAT     H215441   2.524   2.246   4.059
 5067WAT      O15442   1.786   6.049   7.696
 5067WAT     H115443   1.855   6.054   7.624
 5067WAT     H215444   1.697   6.076   7.659
 5068WAT      O15445   2.953   8.591   7.180
 5068WAT     H115446   2.918   8.643   7.102
 5068WAT     H215447   2.891   8.602   7.258
 5069WAT      O15448   5.294   7.439   6.855
 5069WAT     H115449   5.217   7.381   6.829
 5069WAT     H215450   5.293   7.452   6.954
 5070WAT      O15451   4.746   2.488   9.596
 5070WAT     H115452   4.787   2.487   9.504
 5070WAT     H215453   4.683   2.412   9.606
 5071WAT      O15454   7.312   2.019   4.104
 5071WAT     H115455   7.350   2.031   4.013
 5071WAT     H215456   7.312   1.921   4.128
 5072WAT      O15457   9.018   0.871   5.474
 5072WAT     H115458   9.082   0.803   5.438
 5072WAT     H215459   8.997   0.850   5.570
 5073WAT      O15460   8.531   0.495   6.800
 5073WAT     H115461   8.485   0.562   6.741
 5073WAT     H215462   8.629   0.494   6.779
 5074WAT      O15463   9.857   6.403   5.931
 5074WAT     H115464   9.927   6.411   6.002
 5074WAT     H215465   9.769   6.384   5.974
 5075WAT      O15466   2.142   8.661   8.698
 5075WAT     H115467   2.211   8.598   8.733
 5075WAT     H215468   2.074   8.610   8.646
 5076WAT      O15469   0.671   1.676   0.223
 5076WAT     H115470   0.677   1.576   0.216
 5076WAT     H215471   0.580   1.702   0.254
 5077WAT      O15472   7.550   5.033   9.648
 5077WAT     H115473   7.584   4.950   9.692
 5077WAT     H215474   7.627   5.093   9.625
 5078WAT      O15475   9.492   4.318   9.381
 5078WAT     H115476   9.584   4.335   9.414
 5078WAT     H215477   9.494   4.245   9.313
 5079WAT      O15478   6.317   1.845   3.923
 5079WAT     H115479   6.309   1.928   3.978
 5079WAT     H215480   6.401   1.849   3.868
 5080WAT      O15481   5.465   5.830   6.315
 5080WAT     H115482   5.547   5.792   6.272
 5080WAT     H215483   5.429   5.765   6.382
 5081WAT      O15484   4.607   1.541   6.381
 5081WAT     H115485   4.684   1.602   6.360
 5081WAT     H215486   4.572   1.562   6.472
 5082WAT      O15487   5.377   3.214   2.475
 5082WAT     H115488   5.409   3.175   2.389
 5082WAT     H215489   5.299   3.161   2.508
 5083WAT      O15490   1.410   6.616   4.498
 5083WAT     H115491   1.433   6.528   4.456
 5083WAT     H215492   1.315   6.639   4.477
 5084WAT      O15493   2.222   9.775   4.459
 5084WAT     H115494   2.315   9.747   4.436
 5084WAT     H215495   2.221   9.814   4.551
 5085WAT      O15496   6.412   6.561   3.254
 5085WAT     H115497   6.421   6.576   3.353
 5085WAT     H215498   6.502   6.571   3.211
 5086WAT      O15499   3.472   8.954   4.222
 5086WAT     H115500   3.401   8.956   4.293
 5086WAT     H215501   3.472   8.866   4.176
 5087WAT      O15502   3.639   4.426   1.691
 5087WAT     H115503   3.638   4.495   1.763
 5087WAT     H215504   3.550   4.423   1.646
 5088WAT      O15505   8.409   7.706   2.769
 5088WAT     H115506   8.412   7.606   2.766
 5088WAT     H215507   8.482   7.739   2.829
 5089WAT      O15508   9.365   9.364   7.806
 5089WAT     H115509   9.450   9.406   7.774
 5089WAT     H215510   9.386   9.281   7.857
 5090WAT      O15511   8.332   3.984   9.730
 5090WAT     H115512   8.361   3.978   9.634
 5090WAT     H215513   8.378   3.912   9.783
 5091WAT      O15514   0.814   0.449   1.694
 5091WAT     H115515   0.817   0.373   1.759
 5091WAT     H215516   0.818   0.536   1.744
 5092WAT      O15517   7.961   7.559   9.379
 5092WAT     H115518   8.001   7.624   9.444
 5092WAT     H215519   7.915   7.486   9.430
 5093WAT      O15520   4.443   3.645   1.873
 5093WAT     H115521   4.477   3.570   1.929
 5093WAT     H215522   4.510   3.665   1.801
 5094WAT      O15523   5.598   9.790   6.441
 5094WAT     H115524   5.502   9.819   6.442
 5094WAT     H215525   5.653   9.854   6.494
 5095WAT      O15526   9.094   3.738   5.434
 5095WAT     H115527   9.056   3.757   5.525
 5095WAT     H215528   9.168   3.671   5.443
 5096WAT      O15529   0.614   7.219   0.668
 5096WAT     H115530   0.613   7.160   0.588
 5096WAT     H215531   0.644   7.311   0.642
 5097WAT      O15532   9.439   2.464   0.548
 5097WAT     H115533   9.413   2.368   0.558
 5097WAT     H215534   9.398   2.500   0.464
 5098WAT      O15535   9.874   3.838   9.041
 5098WAT     H115536   9.855   3.817   9.137
 5098WAT     H215537   9.817   3.915   9.012
 5099WAT      O15538   7.309   8.697   6.987
 5099WAT     H115539   7.213   8.709   6.965
 5099WAT     H215540   7.321   8.695   7.086
 5100WAT      O15541   8.079   1.360   3.383
 5100WAT     H115542   8.072   1.413   3.467
 5100WAT     H215543   8.145   1.403   3.321
 5101WAT      O15544   3.357   5.005   7.583
 5101WAT     H115545   3.373   5.034   7.677
 5101WAT     H215546   3.378   5.080   7.520
 5102WAT      O15547   6.392   9.771   2.739
 5102WAT     H115548   6.341   9.730   2.663
 5102WAT     H215549   6.441   9.852   2.707
 5103WAT      O15550   2.713   7.436   3.179
 5103WAT     H115551   2.658   7.484   3.248
 5103WAT     H215552   2.724   7.494   3.099
 5104WAT      O15553   1.562   6.373   7.518
 5104WAT     H115554   1.641   6.336   7.470
 5104WAT     H215555   1.590   6.406   7.608
 5105WAT      O15556   0.702   3.549   8.599
 5105WAT     H115557   0.674   3.630   8.650
 5105WAT     H215558   0.765   3.495   8.653
 5106WAT      O15559   7.599   2.410   0.456
 5106WAT     H115560   7.658   2.487   0.429
 5106WAT     H215561   7.508   2.422   0.416
 5107WAT      O15562   4.955   6.381   0.645
 5107WAT     H115563   5.014   6.455   0.612
 5107WAT     H215564   4.978   6.362   0.741
 5108WAT      O15565   6.326   6.077   0.471
 5108WAT     H115566   6.335   6.086   0.571
 5108WAT     H215567   6.417   6.060   0.432
 5109WAT      O15568   2.007   2.539   1.824
 5109WAT     H115569   2.004   2.492   1.912
 5109WAT     H215570   1.996   2.638   1.838
 5110WAT      O15571   2.662   6.690   3.649
 5110WAT     H115572   2.701   6.661   3.562
 5110WAT     H215573   2.683   6.787   3.665
 5111WAT      O15574   7.444   8.384   0.720
 5111WAT     H115575   7.433   8.430   0.808
 5111WAT     H215576   7.473   8.451   0.652
 5112WAT      O15577   7.064   6.618   7.253
 5112WAT     H115578   7.025   6.539   7.205
 5112WAT     H215579   6.993   6.686   7.271
 5113WAT      O15580   0.058   3.952   5.446
 5113WAT     H115581   0.079   4.037   5.493
 5113WAT     H215582  -0.027   3.913   5.483
 5114WAT      O15583   1.170   8.878   7.976
 5114WAT     H115584   1.134   8.918   7.891
 5114WAT     H215585   1.186   8.780   7.962
 5115WAT      O15586   5.191   5.715   5.736
 5115WAT     H115587   5.093   5.728   5.750
 5115WAT     H215588   5.206   5.667   5.650
 5116WAT      O15589   3.465   3.347   2.287
 5116WAT     H115590   3.427   3.383   2.201
 5116WAT     H215591   3.555   3.388   2.303
 5117WAT      O15592   2.427   9.709   6.049
 5117WAT     H115593   2.409   9.686   6.145
 5117WAT     H215594   2.345   9.748   6.008
 5118WAT      O15595   8.606   1.449   7.252
 5118WAT     H115596   8.518   1.494   7.267
 5118WAT     H215597   8.643   1.418   7.340
 5119WAT      O15598   5.215   8.708   1.539
 5119WAT     H115599   5.146   8.741   1.474
 5119WAT     H215600   5.257   8.625   1.503
 5120WAT      O15601   9.343   5.880   8.271
 5120WAT     H115602   9.363   5.973   8.300
 5120WAT     H215603   9.422   5.821   8.288
 5121WAT      O15604   6.155   5.081   4.126
 5121WAT     H115605   6.253   5.063   4.119
 5121WAT     H215606   6.131   5.160   4.068
 5122WAT      O15607   1.897   1.742   5.500
 5122WAT     H115608   1.973   1.736   5.564
 5122WAT     H215609   1.833   1.812   5.530
 5123WAT      O15610   9.021   6.724   0.153
 5123WAT     H115611   9.091   6.663   0.190
 5123WAT     H215612   9.064   6.808   0.120
 5124WAT      O15613   1.811   3.460   7.511
 5124WAT     H115614   1.870   3.391   7.553
 5124WAT     H215615   1.756   3.417   7.439
 5125WAT      O15616   1.035   1.309   8.046
 5125WAT     H115617   0.938   1.310   8.072
 5125WAT     H215618   1.058   1.394   7.998
 5126WAT      O15619   9.871   2.274   9.816
 5126WAT     H115620   9.831   2.183   9.808
 5126WAT     H215621   9.879   2.299   9.913
 5127WAT      O15622   2.144   7.847   4.032
 5127WAT     H115623   2.057   7.895   4.021
 5127WAT     H215624   2.126   7.749   4.044
 5128WAT      O15625   9.159   9.584   6.610
 5128WAT     H115626   9.200   9.528   6.681
 5128WAT     H215627   9.220   9.660   6.587
 5129WAT      O15628   1.801   6.283   7.406
 5129WAT     H115629   1.875   6.221   7.431
 5129WAT     H215630   1.834   6.377   7.408
 5130WAT      O15631   3.956   6.026   8.188
 5130WAT     H115632   4.039   5.973   8.198
 5130WAT     H215633   3.947   6.055   8.092
 5131WAT      O15634   7.616   2.835   8.347
 5131WAT     H115635   7.703   2.848   8.396
 5131WAT     H215636   7.632   2.840   8.249
 5132WAT      O15637   4.490   3.128   2.530
 5132WAT     H115638   4.451   3.220   2.541
 5132WAT     H215639   4.541   3.105   2.613
 5133WAT      O15640   2.237   2.076   4.388
 5133WAT     H115641   2.152   2.086   4.439
 5133WAT     H215642   2.240   1.986   4.344
 5134WAT      O15643   2.096   9.121   1.213
 5134WAT     H115644   2.126   9.149   1.121
 5134WAT     H215645   2.084   9.203   1.270
 5135WAT      O15646   9.598   7.729   6.358
 5135WAT     H115647   9.689   7.759   6.383
 5135WAT     H215648   9.603   7.663   6.283
 5136WAT      O15649   4.964   1.986   9.194
 5136WAT     H115650   5.023   1.992   9.276
 5136WAT     H215651   4.914   1.900   9.196
 5137WAT      O15652   5.230   9.453   2.617
 5137WAT     H115653   5.282   9.442   2.701
 5137WAT     H215654   5.138   9.417   2.629
 5138WAT      O15655   2.363   9.593   0.937
 5138WAT     H115656   2.275   9.578   0.982
 5138WAT     H215657   2.393   9.687   0.953
 5139WAT      O15658   2.085   1.153   3.302
 5139WAT     H115659   2.084   1.152   3.402
 5139WAT     H215660   2.130   1.237   3.271
 5140WAT      O15661   3.429   9.706   5.367
 5140WAT     H115662   3.456   9.736   5.276
 5140WAT     H215663   3.354   9.640   5.359
 5141WAT      O15664   7.381   3.689   3.267
 5141WAT     H115665   7.433   3.766   3.232
 5141WAT     H215666   7.437   3.606   3.265
 5142WAT      O15667   6.377   3.028   6.703
 5142WAT     H115668   6.291   3.078   6.702
 5142WAT     H215669   6.393   2.987   6.613
 5143WAT      O15670   0.401   2.305   4.364
 5143WAT     H115671   0.383   2.315   4.462
 5143WAT     H215672   0.498   2.324   4.347
 5144WAT      O15673   4.115   5.330   0.249
 5144WAT     H115674   4.054   5.277   0.307
 5144WAT     H215675   4.185   5.374   0.306
 5145WAT      O15676   5.518   5.781   9.676
 5145WAT     H115677   5.537   5.837   9.596
 5145WAT     H215678   5.480   5.693   9.647
 5146WAT      O15679   8.613   7.115   7.035
 5146WAT     H115680   8.571   7.030   7.005
 5146WAT     H215681   8.672   7.150   6.962
 5147WAT      O15682   0.134   2.030   4.184
 5147WAT     H115683   0.136   1.935   4.154
 5147WAT     H215684   0.228   2.063   4.199
 5148WAT      O15685   3.239   4.093   3.166
 5148WAT     H115686   3.248   3.997   3.191
 5148WAT     H215687   3.196   4.101   3.077
 5149WAT      O15688   8.359   4.980   2.803
 5149WAT     H115689   8.301   5.014   2.728
 5149WAT     H215690   8.440   4.935   2.764
 5150WAT      O15691   0.623   9.715   3.230
 5150WAT     H115692   0.629   9.663   3.315
 5150WAT     H215693   0.527   9.727   3.204
 5151WAT      O15694   8.908   4.100   4.859
 5151WAT     H115695   8.883   4.019   4.806
 5151WAT     H215696   8.872   4.181   4.814
 5152WAT      O15697   7.358   7.947   8.496
 5152WAT     H115698   7.389   7.868   8.443
 5152WAT     H215699   7.270   7.926   8.539
 5153WAT      O15700   5.121   4.097   7.231
 5153WAT     H115701   5.056   4.167   7.202
 5153WAT     H215702   5.180   4.071   7.155
 5154WAT      O15703   0.642   4.231   1.044
 5154WAT     H115704   0.645   4.331   1.049
 5154WAT     H215705   0.554   4.202   1.006
 5155WAT      O15706   8.417   5.099   3.803
 5155WAT     H115707   8.371   5.139   3.723
 5155WAT     H215708   8.356   5.033   3.846
 5156WAT      O15709   2.423   3.298   1.053
 5156WAT     H115710   2.456   3.354   1.128
 5156WAT     H215711   2.464   3.207   1.059
 5157WAT      O15712   7.574   6.841   3.091
 5157WAT     H115713   7.628   6.915   3.132
 5157WAT     H215714   7.548   6.776   3.162
 5158WAT      O15715   5.708   0.379   1.111
 5158WAT     H115716   5.620   0.379   1.159
 5158WAT     H215717   5.729   0.287   1.080
 5159WAT      O15718   9.179   8.717   1.268
 5159WAT     H115719   9.085   8.737   1.243
 5159WAT     H215720   9.209   8.634   1.221
 5160WAT      O15721   5.150   1.838   6.876
 5160WAT     H115722   5.112   1.860   6.965
 5160WAT     H215723   5.133   1.914   6.813
 5161WAT      O15724   1.400   5.604   7.722
 5161WAT     H115725   1.348   5.540   7.779
 5161WAT     H215726   1.416   5.688   7.774
 5162WAT      O15727   0.870   1.510   9.103
 5162WAT     H115728   0.936   1.521   9.029
 5162WAT     H215729   0.902   1.440   9.167
 5163WAT      O15730   4.304   2.698   1.877
 5163WAT     H115731   4.230   2.755   1.912
 5163WAT     H215732   4.305   2.611   1.926
 5164WAT      O15733   1.487   6.241   6.144
 5164WAT     H115734   1.524   6.186   6.068
 5164WAT     H215735   1.510   6.198   6.231
 5165WAT      O15736   7.014   3.040   7.882
 5165WAT     H115737   7.055   3.126   7.851
 5165WAT     H215738   7.085   2.971   7.892
 5166WAT      O15739   0.009   6.594   2.512
 5166WAT     H115740   0.072   6.614   2.437
 5166WAT     H215741  -0.084   6.589   2.477
 5167WAT      O15742   5.945   4.399   7.804
 5167WAT     H115743   5.854   4.414   7.841
 5167WAT     H215744   5.938   4.362   7.711
 5168WAT      O15745   3.641   7.235   0.760
 5168WAT     H115746   3.662   7.141   0.786
 5168WAT     H215747   3.690   7.257   0.675
 5169WAT      O15748   3.331   0.091   6.579
 5169WAT     H115749   3.251   0.106   6.637
 5169WAT     H215750   3.323   0.003   6.533
 5170WAT      O15751   0.661   8.056   7.265
 5170WAT     H115752   0.602   8.040   7.343
 5170WAT     H215753   0.753   8.079   7.296
 5171WAT      O15754   5.427   8.959   2.737
 5171WAT     H115755   5.405   8.862   2.723
 5171WAT     H215756   5.515   8.978   2.694
 5172WAT      O15757   0.543   8.322   0.964
 5172WAT     H115758   0.619   8.338   1.027
 5172WAT     H215759   0.503   8.232   0.981
 5173WAT      O15760   8.532   3.721   6.852
 5173WAT     H115761   8.588   3.736   6.933
 5173WAT     H215762   8.504   3.809   6.814
 5174WAT      O15763   1.938   3.662   5.712
 5174WAT     H115764   1.855   3.608   5.697
 5174WAT     H215765   1.950   3.676   5.810
 5175WAT      O15766   6.619   6.808   3.392
 5175WAT     H115767   6.702   6.765   3.357
 5175WAT     H215768   6.570   6.742   3.450
 5176WAT      O15769   1.169   4.231   5.227
 5176WAT     H115770   1.223   4.313   5.208
 5176WAT     H215771   1.072   4.251   5.212
 5177WAT      O15772   9.745   4.289   2.224
 5177WAT     H115773   9.758   4.298   2.323
 5177WAT     H215774   9.807   4.219   2.188
 5178WAT      O15775   6.988   1.347   5.778
 5178WAT     H115776   7.058   1.418   5.774
 5178WAT     H215777   6.924   1.358   5.701
 5179WAT      O15778   2.127   2.706   5.812
 5179WAT     H115779   2.202   2.770   5.798
 5179WAT     H215780   2.117   2.648   5.731
 5180WAT      O15781   8.882   6.967   0.601
 5180WAT     H115782   8.975   6.960   0.638
 5180WAT     H215783   8.864   6.889   0.542
 5181WAT      O15784   1.340   0.857   2.574
 5181WAT     H115785   1.286   0.930   2.614
 5181WAT     H215786   1.386   0.806   2.646
 5182WAT      O15787   2.756   4.445   8.083
 5182WAT     H115788   2.828   4.399   8.136
 5182WAT     H215789   2.754   4.408   7.990
 5183WAT      O15790   2.875   8.911   7.319
 5183WAT     H115791   2.864   8.949   7.411
 5183WAT     H215792   2.959   8.945   7.279
 5184WAT      O15793   6.429   5.792   3.130
 5184WAT     H115794   6.361   5.807   3.059
 5184WAT     H215795   6.491   5.870   3.134
 5185WAT      O15796   5.013   4.447   7.412
 5185WAT     H115797   5.073   4.367   7.417
 5185WAT     H215798   4.980   4.458   7.319
 5186WAT      O15799   0.209   3.423   6.141
 5186WAT     H115800   0.306   3.425   6.162
 5186WAT     H215801   0.195   3.424   6.042
 5187WAT      O15802   8.126   7.283   6.571
 5187WAT     H115803   8.060   7.353   6.543
 5187WAT     H215804   8.190   7.323   6.637
 5188WAT      O15805   9.584   9.131   2.807
 5188WAT     H115806   9.605   9.114   2.903
 5188WAT     H215807   9.576   9.230   2.792
 5189WAT      O15808   7.163   6.946   2.490
 5189WAT     H115809   7.226   7.009   2.445
 5189WAT     H215810   7.075   6.992   2.505
 5190WAT      O15811   8.563   1.777   4.518
 5190WAT     H115812   8.554   1.678   4.507
 5190WAT     H215813   8.521   1.805   4.604
 5191WAT      O15814   1.736   6.376   7.116
 5191WAT     H115815   1.741   6.326   7.030
 5191WAT     H215816   1.643   6.369   7.153
 5192WAT      O15817   4.999   5.558   9.669
 5192WAT     H115818   5.054   5.632   9.707
 5192WAT     H215819   4.978   5.492   9.742
 5193WAT      O15820   5.168   7.933   1.349
 5193WAT     H115821   5.237   7.864   1.325
 5193WAT     H215822   5.151   7.991   1.270
 5194WAT      O15823   4.090   5.133   4.110
 5194WAT     H115824   4.086   5.217   4.056
 5194WAT     H215825   4.167   5.136   4.173
 5195WAT      O15826   1.146   2.340   5.984
 5195WAT     H115827   1.233   2.303   6.019
 5195WAT     H215828   1.126   2.426   6.030
 5196WAT      O15829   9.293   4.368   6.311
 5196WAT     H115830   9.248   4.280   6.293
 5196WAT     H215831   9.223   4.438   6.329
 5197WAT      O15832   7.948   2.422   6.925
 5197WAT     H115833   7.891   2.415   7.007
 5197WAT     H215834   7.906   2.487   6.861
 5198WAT      O15835   0.263   8.575   7.493
 5198WAT     H115836   0.174   8.593   7.535
 5198WAT     H215837   0.316   8.660   7.490
 5199WAT      O15838   3.757   1.274   5.427
 5199WAT     H115839   3.837   1.328   5.456
 5199WAT     H215840   3.730   1.213   5.502
 5200WAT      O15841   6.542   8.506   6.193
 5200WAT     H115842   6.462   8.526   6.249
 5200WAT     H215843   6.540   8.410   6.165
 5201WAT      O15844   1.478   1.917   9.035
 5201WAT     H115845   1.379   1.905   9.037
 5201WAT     H215846   1.502   2.012   9.056
 5202WAT      O15847   4.000   5.670   7.153
 5202WAT     H115848   4.096   5.656   7.178
 5202WAT     H215849   3.951   5.711   7.229
 5203WAT      O15850   2.865   0.423   0.424
 5203WAT     H115851   2.855   0.523   0.427
 5203WAT     H215852   2.914   0.392   0.505
 5204WAT      O15853   6.110   4.708   2.174
 5204WAT     H115854   6.149   4.727   2.084
 5204WAT     H215855   6.172   4.647   2.224
 5205WAT      O15856   1.385   2.632   6.495
 5205WAT     H115857   1.398   2.589   6.584
 5205WAT     H215858   1.298   2.602   6.456
 5206WAT      O15859   5.977   8.690   7.071
 5206WAT     H115860   5.982   8.754   7.148
 5206WAT     H215861   6.054   8.627   7.074
 5207WAT      O15862   0.748   7.157   5.695
 5207WAT     H115863   0.674   7.098   5.728
 5207WAT     H215864   0.794   7.199   5.774
 5208WAT      O15865   3.077   1.806   0.356
 5208WAT     H115866   3.065   1.712   0.322
 5208WAT     H215867   3.051   1.870   0.284
 5209WAT      O15868   0.203   4.950   1.881
 5209WAT     H115869   0.193   4.964   1.979
 5209WAT     H215870   0.298   4.965   1.854
 5210WAT      O15871   9.603   7.847   1.222
 5210WAT     H115872   9.567   7.838   1.315
 5210WAT     H215873   9.633   7.941   1.206
 5211WAT      O15874   2.907   8.847   1.751
 5211WAT     H115875   2.995   8.883   1.721
 5211WAT     H215876   2.874   8.900   1.829
 5212WAT      O15877   8.205   2.906   0.267
 5212WAT     H115878   8.285   2.851   0.293
 5212WAT     H215879   8.141   2.850   0.215
 5213WAT      O15880   9.316   0.406   5.015
 5213WAT     H115881   9.353   0.324   4.971
 5213WAT     H215882   9.248   0.448   4.954
 5214WAT      O15883   1.763   9.322   3.421
 5214WAT     H115884   1.684   9.360   3.468
 5214WAT     H215885   1.760   9.222   3.426
 5215WAT      O15886   9.618   4.687   9.556
 5215WAT     H115887   9.556   4.682   9.477
 5215WAT     H215888   9.594   4.615   9.621
 5216WAT      O15889   4.861   7.948   4.124
 5216WAT     H115890   4.940   7.926   4.066
 5216WAT     H215891   4.880   7.920   4.218
 5217WAT      O15892   4.965   0.974   8.153
 5217WAT     H115893   4.955   0.875   8.150
 5217WAT     H215894   4.916   1.011   8.232
 5218WAT      O15895   3.982   5.534   9.284
 5218WAT     H115896   3.985   5.489   9.374
 5218WAT     H215897   4.060   5.504   9.230
 5219WAT      O15898   8.076   0.498   6.338
 5219WAT     H115899   8.106   0.462   6.250
 5219WAT     H215900   7.980   0.472   6.354
 5220WAT      O15901   1.643   2.496   7.530
 5220WAT     H115902   1.685   2.568   7.475
 5220WAT     H215903   1.647   2.522   7.627
 5221WAT      O15904   7.441   1.652   6.306
 5221WAT     H115905   7.512   1.714   6.339
 5221WAT     H215906   7.355   1.672   6.353
 5222WAT      O15907   1.389   9.784   2.643
 5222WAT     H115908   1.348   9.859   2.590
 5222WAT     H215909   1.325   9.708   2.649
 5223WAT      O15910   8.494   1.638   8.779
 5223WAT     H115911   8.576   1.592   8.743
 5223WAT     H215912   8.506   1.658   8.876
 5224WAT      O15913   0.871   9.738   6.730
 5224WAT     H115914   0.917   9.777   6.650
 5224WAT     H215915   0.794   9.795   6.755
 5225WAT      O15916   2.178   4.099   5.262
 5225WAT     H115917   2.137   4.124   5.350
 5225WAT     H215918   2.273   4.071   5.277
 5226WAT      O15919   2.156   1.151   6.120
 5226WAT     H115920   2.131   1.198   6.205
 5226WAT     H215921   2.211   1.211   6.063
 5227WAT      O15922   7.558   4.821   5.538
 5227WAT     H115923   7.497   4.744   5.516
 5227WAT     H215924   7.629   4.790   5.601
 5228WAT      O15925   8.836   1.249   4.623
 5228WAT     H115926   8.775   1.171   4.607
 5228WAT     H215927   8.891   1.232   4.705
 5229WAT      O15928   8.981   6.605   4.583
 5229WAT     H115929   8.924   6.557   4.650
 5229WAT     H215930   9.072   6.564   4.582
 5230WAT      O15931   4.488   7.751   1.282
 5230WAT     H115932   4.536   7.835   1.306
 5230WAT     H215933   4.398   7.773   1.245
 5231WAT      O15934   1.990   2.738   1.470
 5231WAT     H115935   2.082   2.769   1.495
 5231WAT     H215936   1.995   2.643   1.439
 5232WAT      O15937   0.253   1.946   8.234
 5232WAT     H115938   0.307   1.924   8.152
 5232WAT     H215939   0.180   1.879   8.245
 5233WAT      O15940   4.270   3.163   2.287
 5233WAT     H115941   4.273   3.214   2.201
 5233WAT     H215942   4.351   3.104   2.294
 5234WAT      O15943   1.847   1.325   3.249
 5234WAT     H115944   1.928   1.383   3.245
 5234WAT     H215945   1.873   1.230   3.229
 5235WAT      O15946   2.651   3.348   6.799
 5235WAT     H115947   2.628   3.383   6.708
 5235WAT     H215948   2.592   3.390   6.867
 5236WAT      O15949   3.689   9.342   2.546
 5236WAT     H115950   3.788   9.335   2.535
 5236WAT     H215951   3.644   9.287   2.475
 5237WAT      O15952   2.956   7.684   8.677
 5237WAT     H115953   2.912   7.763   8.720
 5237WAT     H215954   2.893   7.607   8.679
 5238WAT      O15955   2.684   7.384   5.855
 5238WAT     H115956   2.721   7.315   5.917
 5238WAT     H215957   2.726   7.472   5.874
 5239WAT      O15958   6.913   3.783   3.271
 5239WAT     H115959   6.972   3.859   3.244
 5239WAT     H215960   6.819   3.801   3.243
 5240WAT      O15961   9.875   1.931   9.374
 5240WAT     H115962   9.869   1.964   9.280
 5240WAT     H215963   9.869   2.008   9.437
 5241WAT      O15964   6.052   1.185   1.679
 5241WAT     H115965   6.108   1.102   1.684
 5241WAT     H215966   5.966   1.170   1.728
 5242WAT      O15967   7.605   2.070   6.026
 5242WAT     H115968   7.563   2.134   5.962
 5242WAT     H215969   7.550   2.065   6.109
 5243WAT      O15970   1.510   1.061   5.363
 5243WAT     H115971   1.554   1.009   5.290
 5243WAT     H215972   1.577   1.121   5.407
 5244WAT      O15973   5.619   7.539   6.453
 5244WAT     H115974   5.544   7.486   6.492
 5244WAT     H215975   5.685   7.562   6.525
 5245WAT      O15976   7.564   3.995   3.555
 5245WAT     H115977   7.560   3.897   3.570
 5245WAT     H215978   7.568   4.013   3.456
 5246WAT      O15979   8.162   6.570   1.140
 5246WAT     H115980   8.079   6.514   1.138
 5246WAT     H215981   8.138   6.665   1.160
 5247WAT      O15982   5.630   4.099   2.909
 5247WAT     H115983   5.692   4.022   2.920
 5247WAT     H215984   5.582   4.117   2.995
 5248WAT      O15985   2.827   8.804   0.011
 5248WAT     H115986   2.814   8.805   0.111
 5248WAT     H215987   2.772   8.730  -0.029
 5249WAT      O15988   4.446   5.871   4.820
 5249WAT     H115989   4.524   5.864   4.757
 5249WAT     H215990   4.467   5.940   4.889
 5250WAT      O15991   2.808   2.810   8.961
 5250WAT     H115992   2.865   2.892   8.969
 5250WAT     H215993   2.774   2.784   9.052
 5251WAT      O15994   7.620   1.154   5.744
 5251WAT     H115995   7.576   1.191   5.825
 5251WAT     H215996   7.716   1.133   5.765
 5252WAT      O15997   0.800   4.005   5.868
 5252WAT     H115998   0.735   3.958   5.808
 5252WAT     H215999   0.826   3.943   5.942
 5253WAT      O16000   9.547   7.564   1.730
 5253WAT     H116001   9.646   7.548   1.732
 5253WAT     H216002   9.506   7.526   1.812
 5254WAT      O16003   8.663   9.362   0.032
 5254WAT     H116004   8.571   9.385   0.000
 5254WAT     H216005   8.675   9.263   0.032
 5255WAT      O16006   1.282   2.052   1.064
 5255WAT     H116007   1.292   2.069   1.162
 5255WAT     H216008   1.224   1.972   1.050
 5256WAT      O16009   3.792   3.589   3.011
 5256WAT     H116010   3.773   3.497   3.046
 5256WAT     H216011   3.865   3.583   2.942
 5257WAT      O16012   3.974   0.263   2.659
 5257WAT     H116013   3.941   0.344   2.708
 5257WAT     H216014   3.916   0.185   2.680
 5258WAT      O16015   6.329   2.006   7.830
 5258WAT     H116016   6.307   2.055   7.745
 5258WAT     H216017   6.330   1.908   7.811
 5259WAT      O16018   9.685   9.557   1.864
 5259WAT     H116019   9.639   9.603   1.788
 5259WAT     H216020   9.784   9.567   1.854
 5260WAT      O16021   6.592   3.490   6.336
 5260WAT     H116022   6.666   3.549   6.305
 5260WAT     H216023   6.593   3.405   6.283
 5261WAT      O16024   2.381   5.586   6.238
 5261WAT     H116025   2.478   5.612   6.237
 5261WAT     H216026   2.343   5.595   6.146
 5262WAT      O16027   6.164   0.734   5.145
 5262WAT     H116028   6.200   0.810   5.200
 5262WAT     H216029   6.232   0.661   5.141
 5263WAT      O16030   8.564   6.032   6.977
 5263WAT     H116031   8.652   6.043   7.022
 5263WAT     H216032   8.521   6.122   6.967
 5264WAT      O16033   7.335   4.712   5.872
 5264WAT     H116034   7.330   4.771   5.952
 5264WAT     H216035   7.302   4.762   5.792
 5265WAT      O16036   9.651   8.286   0.607
 5265WAT     H116037   9.595   8.343   0.667
 5265WAT     H216038   9.743   8.278   0.645
 5266WAT      O16039   5.710   3.697   7.606
 5266WAT     H116040   5.737   3.713   7.701
 5266WAT     H216041   5.634   3.756   7.582
 5267WAT      O16042   8.120   7.872   9.065
 5267WAT     H116043   8.073   7.866   8.977
 5267WAT     H216044   8.126   7.781   9.106
 5268WAT      O16045   0.977   6.680   5.647
 5268WAT     H116046   0.990   6.779   5.633
 5268WAT     H216047   1.061   6.639   5.681
 5269WAT      O16048   3.033   3.912   3.935
 5269WAT     H116049   3.125   3.883   3.910
 5269WAT     H216050   3.036   4.005   3.971
 5270WAT      O16051   1.918   6.355   4.530
 5270WAT     H116052   1.940   6.261   4.502
 5270WAT     H216053   1.869   6.401   4.456
 5271WAT      O16054   6.205   2.999   4.458
 5271WAT     H116055   6.257   2.914   4.472
 5271WAT     H216056   6.127   3.001   4.521
 5272WAT      O16057   9.807   7.692   9.257
 5272WAT     H116058   9.804   7.593   9.267
 5272WAT     H216059   9.714   7.727   9.245
 5273WAT      O16060   1.916   4.512   9.434
 5273WAT     H116061   1.868   4.425   9.420
 5273WAT     H216062   1.894   4.575   9.359
 5274WAT      O16063   0.788   0.514   7.655
 5274WAT     H116064   0.880   0.495   7.623
 5274WAT     H216065   0.775   0.474   7.746
 5275WAT      O16066   4.584   5.656   1.385
 5275WAT     H116067   4.650   5.710   1.438
 5275WAT     H216068   4.564   5.704   1.300
 5276WAT      O16069   6.545   7.931   4.019
 5276WAT     H116070   6.618   7.865   4.003
 5276WAT     H216071   6.472   7.917   3.952
 5277WAT      O16072   6.478   1.342   7.199
 5277WAT     H116073   6.380   1.325   7.191
 5277WAT     H216074   6.513   1.296   7.280
 5278WAT      O16075   9.733   4.020   6.773
 5278WAT     H116076   9.681   4.104   6.786
 5278WAT     H216077   9.670   3.944   6.755
 5279WAT      O16078   4.526   4.291   9.635
 5279WAT     H116079   4.486   4.199   9.638
 5279WAT     H216080   4.477   4.351   9.698
 5280WAT      O16081   3.793   3.076   8.804
 5280WAT     H116082   3.735   3.135   8.860
 5280WAT     H216083   3.735   3.021   8.744
 5281WAT      O16084   9.022   5.643   2.437
 5281WAT     H116085   8.995   5.658   2.342
 5281WAT     H216086   9.086   5.714   2.465
 5282WAT      O16087   9.519   3.936   5.062
 5282WAT     H116088   9.530   4.030   5.095
 5282WAT     H216089   9.534   3.873   5.138
 5283WAT      O16090   1.969   8.293   6.826
 5283WAT     H116091   2.011   8.202   6.824
 5283WAT     H216092   1.872   8.285   6.848
 5284WAT      O16093   8.594   6.688   3.722
 5284WAT     H116094   8.518   6.727   3.774
 5284WAT     H216095   8.611   6.744   3.641
 5285WAT      O16096   0.734   4.217   4.609
 5285WAT     H116097   0.695   4.309   4.596
 5285WAT     H216098   0.660   4.150   4.615
 5286WAT      O16099   4.888   1.192   1.732
 5286WAT     H116100   4.854   1.235   1.649
 5286WAT     H216101   4.908   1.262   1.800
 5287WAT      O16102   6.743   5.445   5.015
 5287WAT     H116103   6.767   5.529   5.062
 5287WAT     H216104   6.768   5.366   5.071
 5288WAT      O16105   6.832   7.326   9.159
 5288WAT     H116106   6.756   7.263   9.178
 5288WAT     H216107   6.888   7.336   9.241
 5289WAT      O16108   7.983   7.975   5.842
 5289WAT     H116109   7.980   7.941   5.748
 5289WAT     H216110   7.954   8.071   5.844
 5290WAT      O16111   4.045   8.789   8.395
 5290WAT     H116112   4.027   8.874   8.346
 5290WAT     H216113   4.139   8.759   8.376
 5291WAT      O16114   7.244   4.966   5.035
 5291WAT     H116115   7.184   4.965   5.115
 5291WAT     H216116   7.291   4.879   5.027
 5292WAT      O16117   9.226   2.408   8.442
 5292WAT     H116118   9.308   2.466   8.438
 5292WAT     H216119   9.165   2.442   8.513
 5293WAT      O16120   7.377   0.965   9.649
 5293WAT     H116121   7.369   0.999   9.743
 5293WAT     H216122   7.421   0.876   9.649
 5294WAT      O16123   4.066   8.285   6.501
 5294WAT     H116124   4.113   8.285   6.413
 5294WAT     H216125   4.002   8.209   6.505
 5295WAT      O16126   4.433   2.956   7.502
 5295WAT     H116127   4.384   2.948   7.416
 5295WAT     H216128   4.471   3.048   7.511
 5296WAT      O16129   7.553   8.028   6.225
 5296WAT     H116130   7.638   8.004   6.179
 5296WAT     H216131   7.555   7.994   6.320
 5297WAT      O16132   1.373   0.238   3.744
 5297WAT     H116133   1.423   0.164   3.789
 5297WAT     H216134   1.435   0.290   3.685
 5298WAT      O16135   1.767   9.803   8.288
 5298WAT     H116136   1.823   9.767   8.363
 5298WAT     H216137   1.680   9.754   8.286
 5299WAT      O16138   7.696   0.814   7.819
 5299WAT     H116139   7.674   0.735   7.877
 5299WAT     H216140   7.718   0.782   7.727
 5300WAT      O16141   4.369   2.548   9.683
 5300WAT     H116142   4.403   2.457   9.657
 5300WAT     H216143   4.432   2.589   9.748
 5301WAT      O16144   0.683   2.941   4.523
 5301WAT     H116145   0.759   2.989   4.480
 5301WAT     H216146   0.602   2.999   4.522
 5302WAT      O16147   1.876   7.977   4.139
 5302WAT     H116148   1.928   8.057   4.110
 5302WAT     H216149   1.814   7.949   4.065
 5303WAT      O16150   7.915   1.632   0.886
 5303WAT     H116151   7.931   1.701   0.956
 5303WAT     H216152   7.847   1.566   0.918
 5304WAT      O16153   5.549   0.433   6.121
 5304WAT     H116154   5.602   0.516   6.136
 5304WAT     H216155   5.573   0.393   6.032
 5305WAT      O16156   6.037   3.133   7.423
 5305WAT     H116157   5.991   3.088   7.347
 5305WAT     H216158   6.113   3.188   7.388
 5306WAT      O16159   0.691   0.156   2.897
 5306WAT     H116160   0.688   0.192   2.804
 5306WAT     H216161   0.601   0.168   2.940
 5307WAT      O16162   1.645   3.026   0.349
 5307WAT     H116163   1.610   3.061   0.436
 5307WAT     H216164   1.576   3.038   0.278
 5308WAT      O16165   4.152   3.849   2.759
 5308WAT     H116166   4.111   3.777   2.702
 5308WAT     H216167   4.109   3.848   2.850
 5309WAT      O16168   6.146   4.894   0.203
 5309WAT     H116169   6.132   4.992   0.187
 5309WAT     H216170   6.061   4.854   0.238
 5310WAT      O16171   8.429   4.335   9.576
 5310WAT     H116172   8.521   4.345   9.612
 5310WAT     H216173   8.363   4.340   9.652
 5311WAT      O16174   8.900   9.490   5.344
 5311WAT     H116175   8.986   9.503   5.296
 5311WAT     H216176   8.915   9.437   5.427
 5312WAT      O16177   8.983   6.276   6.468
 5312WAT     H116178   9.025   6.185   6.479
 5312WAT     H216179   9.052   6.340   6.434
 5313WAT      O16180   0.875   6.760   2.412
 5313WAT     H116181   0.802   6.808   2.364
 5313WAT     H216182   0.893   6.806   2.500
 5314WAT      O16183   0.834   2.702   5.628
 5314WAT     H116184   0.881   2.788   5.608
 5314WAT     H216185   0.889   2.646   5.689
 5315WAT      O16186   2.418   1.241   9.085
 5315WAT     H116187   2.365   1.324   9.101
 5315WAT     H216188   2.508   1.251   9.128
 5316WAT      O16189   2.571   7.484   3.407
 5316WAT     H116190   2.563   7.577   3.443
 5316WAT     H216191   2.642   7.435   3.458
 5317WAT      O16192   4.610   9.692   8.419
 5317WAT     H116193   4.614   9.707   8.518
 5317WAT     H216194   4.533   9.743   8.380
 5318WAT      O16195   7.901   4.195   7.631
 5318WAT     H116196   7.963   4.233   7.563
 5318WAT     H216197   7.879   4.265   7.699
 5319WAT      O16198   8.567   4.043   6.160
 5319WAT     H116199   8.618   4.051   6.246
 5319WAT     H216200   8.622   3.993   6.093
 5320WAT      O16201   6.818   3.281   2.943
 5320WAT     H116202   6.743   3.310   2.883
 5320WAT     H216203   6.781   3.245   3.028
 5321WAT      O16204   5.260   9.652   0.817
 5321WAT     H116205   5.229   9.694   0.902
 5321WAT     H216206   5.338   9.703   0.781
 5322WAT      O16207   9.057   7.551   2.935
 5322WAT     H116208   9.092   7.502   2.855
 5322WAT     H216209   8.957   7.549   2.935
 5323WAT      O16210   3.959   3.921   3.645
 5323WAT     H116211   3.875   3.888   3.687
 5323WAT     H216212   3.963   3.888   3.550
 5324WAT      O16213   9.290   9.241   1.868
 5324WAT     H116214   9.369   9.285   1.910
 5324WAT     H216215   9.223   9.218   1.938
 5325WAT      O16216   4.463   6.932   6.857
 5325WAT     H116217   4.503   6.936   6.949
 5325WAT     H216218   4.365   6.913   6.864
 5326WAT      O16219   8.444   1.392   9.779
 5326WAT     H116220   8.507   1.337   9.725
 5326WAT     H216221   8.490   1.476   9.810
 5327WAT      O16222   9.790   8.587   5.437
 5327WAT     H116223   9.768   8.519   5.366
 5327WAT     H216224   9.725   8.663   5.430
 5328WAT      O16225   0.676   1.516   1.453
 5328WAT     H116226   0.731   1.474   1.381
 5328WAT     H216227   0.583   1.479   1.450
 5329WAT      O16228   2.185   1.013   0.142
 5329WAT     H116229   2.277   0.976   0.159
 5329WAT     H216230   2.138   0.955   0.076
 5330WAT      O16231   6.589   9.191   9.490
 5330WAT     H116232   6.667   9.227   9.541
 5330WAT     H216233   6.545   9.265   9.439
 5331WAT      O16234   0.334   1.180   0.396
 5331WAT     H116235   0.354   1.140   0.307
 5331WAT     H216236   0.420   1.195   0.445
 5332WAT      O16237   2.844   1.186   8.479
 5332WAT     H116238   2.796   1.272   8.461
 5332WAT     H216239   2.842   1.168   8.577
 5333WAT      O16240   3.880   4.484   4.861
 5333WAT     H116241   3.811   4.556   4.859
 5333WAT     H216242   3.941   4.498   4.939
 5334WAT      O16243   1.607   4.149   9.822
 5334WAT     H116244   1.639   4.188   9.736
 5334WAT     H216245   1.531   4.087   9.806
 5335WAT      O16246   6.009   3.280   9.091
 5335WAT     H116247   5.965   3.305   9.005
 5335WAT     H216248   5.940   3.252   9.158
 5336WAT      O16249   3.423   5.119   8.213
 5336WAT     H116250   3.420   5.060   8.294
 5336WAT     H216251   3.454   5.065   8.135
 5337WAT      O16252   0.270   5.389   6.837
 5337WAT     H116253   0.328   5.457   6.883
 5337WAT     H216254   0.230   5.430   6.755
 5338WAT      O16255   1.557   5.322   7.749
 5338WAT     H116256   1.544   5.224   7.742
 5338WAT     H216257   1.476   5.364   7.789
 5339WAT      O16258   8.302   1.017   5.055
 5339WAT     H116259   8.392   0.972   5.058
 5339WAT     H216260   8.282   1.046   4.961
 5340WAT      O16261   0.697   1.631   2.440
 5340WAT     H116262   0.674   1.721   2.477
 5340WAT     H216263   0.785   1.637   2.392
 5341WAT      O16264   0.393   1.353   3.333
 5341WAT     H116265   0.345   1.350   3.245
 5341WAT     H216266   0.348   1.292   3.398
 5342WAT      O16267   9.698   6.840   3.763
 5342WAT     H116268   9.775   6.788   3.800
 5342WAT     H216269   9.616   6.823   3.818
 5343WAT      O16270   1.843   3.152   7.451
 5343WAT     H116271   1.860   3.074   7.391
 5343WAT     H216272   1.930   3.195   7.475
 5344WAT      O16273   0.691   0.915   2.803
 5344WAT     H116274   0.648   0.999   2.838
 5344WAT     H216275   0.786   0.911   2.835
 5345WAT      O16276   6.506   3.696   2.550
 5345WAT     H116277   6.456   3.717   2.466
 5345WAT     H216278   6.515   3.778   2.605
 5346WAT      O16279   0.016   6.194   4.634
 5346WAT     H116280  -0.067   6.223   4.586
 5346WAT     H216281   0.001   6.103   4.673
 5347WAT      O16282   9.231   2.583   8.029
 5347WAT     H116283   9.204   2.613   8.121
 5347WAT     H216284   9.285   2.655   7.986
 5348WAT      O16285   7.142   8.683   9.507
 5348WAT     H116286   7.074   8.732   9.561
 5348WAT     H216287   7.175   8.743   9.433
 5349WAT      O16288   6.715   7.354   1.996
 5349WAT     H116289   6.721   7.426   2.065
 5349WAT     H216290   6.771   7.276   2.026
 5350WAT      O16291   9.623   4.942   1.938
 5350WAT     H116292   9.559   4.877   1.898
 5350WAT     H216293   9.710   4.940   1.887
 5351WAT      O16294   8.315   5.745   6.650
 5351WAT     H116295   8.375   5.810   6.696
 5351WAT     H216296   8.248   5.709   6.715
 5352WAT      O16297   6.381   6.370   2.692
 5352WAT     H116298   6.429   6.414   2.616
 5352WAT     H216299   6.425   6.283   2.713
 5353WAT      O16300   1.129   3.780   6.912
 5353WAT     H116301   1.059   3.708   6.909
 5353WAT     H216302   1.214   3.742   6.949
 5354WAT      O16303   7.923   6.637   7.251
 5354WAT     H116304   7.978   6.670   7.328
 5354WAT     H216305   7.882   6.714   7.203
 5355WAT      O16306   5.032   7.952   8.659
 5355WAT     H116307   5.097   7.997   8.721
 5355WAT     H216308   5.011   7.861   8.695
 5356WAT      O16309   3.580   9.397   0.575
 5356WAT     H116310   3.627   9.485   0.562
 5356WAT     H216311   3.588   9.343   0.491
 5357WAT      O16312   3.995   2.973   5.618
 5357WAT     H116313   4.060   2.925   5.559
 5357WAT     H216314   3.991   3.070   5.593
 5358WAT      O16315   7.837   0.197   7.877
 5358WAT     H116316   7.773   0.156   7.942
 5358WAT     H216317   7.786   0.243   7.805
 5359WAT      O16318   9.628   5.734   0.938
 5359WAT     H116319   9.658   5.640   0.952
 5359WAT     H216320   9.632   5.756   0.840
 5360WAT      O16321   1.561   4.861   7.187
 5360WAT     H116322   1.564   4.953   7.146
 5360WAT     H216323   1.644   4.845   7.239
 5361WAT      O16324   9.105   0.989   1.401
 5361WAT     H116325   9.049   0.915   1.364
 5361WAT     H216326   9.201   0.961   1.404
 5362WAT      O16327   2.538   2.690   7.053
 5362WAT     H116328   2.632   2.721   7.039
 5362WAT     H216329   2.534   2.631   7.134
 5363WAT      O16330   4.079   8.580   6.127
 5363WAT     H116331   3.980   8.581   6.119
 5363WAT     H216332   4.114   8.674   6.124
 5364WAT      O16333   5.639   9.050   0.085
 5364WAT     H116334   5.594   9.026  -0.002
 5364WAT     H216335   5.594   9.002   0.160
 5365WAT      O16336   7.028   5.836   5.638
 5365WAT     H116337   7.081   5.850   5.554
 5365WAT     H216338   7.038   5.741   5.668
 5366WAT      O16339   0.830   7.263   6.158
 5366WAT     H116340   0.898   7.305   6.218
 5366WAT     H216341   0.832   7.164   6.170
 5367WAT      O16342   0.922   5.052   9.100
 5367WAT     H116343   0.859   5.048   9.177
 5367WAT     H216344   0.918   4.966   9.049
 5368WAT      O16345   4.422   1.969   7.587
 5368WAT     H116346   4.335   2.004   7.620
 5368WAT     H216347   4.489   1.970   7.662
 5369WAT      O16348   8.588   3.626   8.837
 5369WAT     H116349   8.541   3.576   8.909
 5369WAT     H216350   8.547   3.716   8.825
 5370WAT      O16351   2.145   5.076   7.503
 5370WAT     H116352   2.084   5.012   7.456
 5370WAT     H216353   2.100   5.110   7.586
 5371WAT      O16354   7.750   1.497   5.721
 5371WAT     H116355   7.822   1.483   5.653
 5371WAT     H216356   7.720   1.408   5.756
 5372WAT      O16357   3.840   4.862   4.426
 5372WAT     H116358   3.764   4.797   4.431
 5372WAT     H216359   3.804   4.955   4.427
 5373WAT      O16360   7.487   6.009   2.100
 5373WAT     H116361   7.536   5.922   2.109
 5373WAT     H216362   7.548   6.084   2.126
 5374WAT      O16363   2.038   8.014   7.134
 5374WAT     H116364   2.100   7.974   7.202
 5374WAT     H216365   1.961   7.953   7.119
 5375WAT      O16366   5.475   2.183   9.421
 5375WAT     H116367   5.530   2.261   9.449
 5375WAT     H216368   5.432   2.201   9.332
 5376WAT      O16369   0.391   8.815   6.740
 5376WAT     H116370   0.323   8.766   6.686
 5376WAT     H216371   0.378   8.914   6.728
 5377WAT      O16372   3.938   8.428   4.184
 5377WAT     H116373   3.858   8.455   4.237
 5377WAT     H216374   4.017   8.481   4.213
 5378WAT      O16375   5.259   5.139   8.540
 5378WAT     H116376   5.202   5.186   8.608
 5378WAT     H216377   5.265   5.042   8.563
 5379WAT      O16378   8.930   6.480   5.426
 5379WAT     H116379   9.016   6.464   5.475
 5379WAT     H216380   8.927   6.422   5.345
 5380WAT      O16381   9.050   6.507   8.755
 5380WAT     H116382   9.066   6.549   8.666
 5380WAT     H216383   8.953   6.485   8.764
 5381WAT      O16384   5.917   3.112   5.327
 5381WAT     H116385   5.919   3.023   5.374
 5381WAT     H216386   6.010   3.144   5.314
 5382WAT      O16387   2.910   6.519   8.572
 5382WAT     H116388   2.882   6.518   8.476
 5382WAT     H216389   2.872   6.439   8.618
 5383WAT      O16390   8.154   0.996   9.662
 5383WAT     H116391   8.091   1.051   9.606
 5383WAT     H216392   8.142   1.020   9.758
 5384WAT      O16393   8.457   4.838   4.075
 5384WAT     H116394   8.545   4.797   4.095
 5384WAT     H216395   8.455   4.932   4.111
 5385WAT      O16396   8.392   1.771   0.698
 5385WAT     H116397   8.318   1.720   0.742
 5385WAT     H216398   8.465   1.707   0.672
 5386WAT      O16399   8.864   4.324   7.167
 5386WAT     H116400   8.870   4.382   7.249
 5386WAT     H216401   8.880   4.229   7.192
 5387WAT      O16402   8.726   0.014   3.071
 5387WAT     H116403   8.769   0.064   3.146
 5387WAT     H216404   8.719   0.073   2.991
 5388WAT      O16405   7.497   9.168   3.426
 5388WAT     H116406   7.539   9.077   3.426
 5388WAT     H216407   7.461   9.188   3.517
 5389WAT      O16408   5.095   6.194   3.599
 5389WAT     H116409   5.008   6.239   3.622
 5389WAT     H216410   5.165   6.224   3.664
 5390WAT      O16411   0.634   5.395   3.170
 5390WAT     H116412   0.598   5.426   3.082
 5390WAT     H216413   0.567   5.336   3.215
 5391WAT      O16414   0.538   4.794   5.230
 5391WAT     H116415   0.588   4.782   5.316
 5391WAT     H216416   0.448   4.751   5.238
 5392WAT      O16417   2.865   7.580   5.935
 5392WAT     H116418   2.928   7.559   6.010
 5392WAT     H216419   2.912   7.569   5.848
 5393WAT      O16420   0.525   0.290   0.913
 5393WAT     H116421   0.569   0.226   0.850
 5393WAT     H216422   0.428   0.265   0.922
 5394WAT      O16423   0.649   1.954   8.129
 5394WAT     H116424   0.564   1.964   8.079
 5394WAT     H216425   0.667   2.037   8.182
 5395WAT      O16426   7.482   5.042   2.618
 5395WAT     H116427   7.415   5.062   2.688
 5395WAT     H216428   7.545   5.119   2.608
 5396WAT      O16429   6.124   8.810   6.692
 5396WAT     H116430   6.167   8.733   6.741
 5396WAT     H216431   6.166   8.896   6.721
 5397WAT      O16432   0.652   9.422   3.304
 5397WAT     H116433   0.561   9.439   3.268
 5397WAT     H216434   0.666   9.475   3.388
 5398WAT      O16435   9.241   3.515   5.422
 5398WAT     H116436   9.260   3.423   5.456
 5398WAT     H216437   9.256   3.518   5.323
 5399WAT      O16438   5.513   7.504   1.527
 5399WAT     H116439   5.477   7.501   1.620
 5399WAT     H216440   5.446   7.465   1.464
 5400WAT      O16441   0.506   0.506   1.639
 5400WAT     H116442   0.595   0.486   1.681
 5400WAT     H216443   0.490   0.442   1.564
 5401WAT      O16444   0.191   9.088   8.060
 5401WAT     H116445   0.197   9.001   8.011
 5401WAT     H216446   0.142   9.154   8.003
 5402WAT      O16447   8.916   4.768   6.486
 5402WAT     H116448   8.921   4.824   6.568
 5402WAT     H216449   8.898   4.673   6.512
 5403WAT      O16450   0.132   7.415   5.869
 5403WAT     H116451   0.156   7.431   5.964
 5403WAT     H216452   0.034   7.395   5.862
 5404WAT      O16453   4.731   7.215   6.423
 5404WAT     H116454   4.666   7.274   6.471
 5404WAT     H216455   4.695   7.122   6.419
 5405WAT      O16456   4.985   8.772   2.871
 5405WAT     H116457   4.989   8.851   2.811
 5405WAT     H216458   4.924   8.703   2.832
 5406WAT      O16459   5.508   7.089   1.021
 5406WAT     H116460   5.574   7.149   1.066
 5406WAT     H216461   5.528   7.084   0.923
 5407WAT      O16462   5.437   7.163   4.691
 5407WAT     H116463   5.488   7.116   4.763
 5407WAT     H216464   5.488   7.243   4.661
 5408WAT      O16465   2.301   1.296   0.500
 5408WAT     H116466   2.262   1.355   0.430
 5408WAT     H216467   2.233   1.278   0.571
 5409WAT      O16468   5.495   6.296   6.197
 5409WAT     H116469   5.453   6.370   6.143
 5409WAT     H216470   5.586   6.277   6.161
 5410WAT      O16471   5.623   9.815   3.147
 5410WAT     H116472   5.527   9.842   3.135
 5410WAT     H216473   5.656   9.773   3.062
 5411WAT      O16474   9.665   2.708   3.381
 5411WAT     H116475   9.663   2.733   3.478
 5411WAT     H216476   9.612   2.775   3.329
 5412WAT      O16477   2.629   4.467   3.327
 5412WAT     H116478   2.632   4.567   3.327
 5412WAT     H216479   2.640   4.434   3.233
 5413WAT      O16480   8.861   2.589   1.790
 5413WAT     H116481   8.850   2.685   1.816
 5413WAT     H216482   8.772   2.544   1.789
 5414WAT      O16483   1.631   3.272   7.611
 5414WAT     H116484   1.580   3.313   7.535
 5414WAT     H216485   1.709   3.222   7.574
 5415WAT      O16486   3.848   2.994   1.687
 5415WAT     H116487   3.831   2.990   1.589
 5415WAT     H216488   3.887   2.908   1.718
 5416WAT      O16489   3.445   3.775   0.051
 5416WAT     H116490   3.446   3.871   0.026
 5416WAT     H216491   3.404   3.722  -0.023
 5417WAT      O16492   6.021   5.633   0.095
 5417WAT     H116493   6.054   5.632   0.001
 5417WAT     H216494   6.047   5.719   0.139
 5418WAT      O16495   4.201   6.042   5.969
 5418WAT     H116496   4.207   6.026   5.871
 5418WAT     H216497   4.112   6.082   5.991
 5419WAT      O16498   4.893   4.689   2.634
 5419WAT     H116499   4.823   4.689   2.563
 5419WAT     H216500   4.868   4.623   2.705
 5420WAT      O16501   0.476   8.165   8.739
 5420WAT     H116502   0.538   8.242   8.757
 5420WAT     H216503   0.447   8.167   8.643
 5421WAT      O16504   6.172   6.866   7.164
 5421WAT     H116505   6.110   6.788   7.158
 5421WAT     H216506   6.231   6.855   7.244
 5422WAT      O16507   3.435   7.867   1.029
 5422WAT     H116508   3.431   7.811   0.946
 5422WAT     H216509   3.406   7.960   1.008
 5423WAT      O16510   1.093   8.910   9.099
 5423WAT     H116511   1.122   8.964   9.020
 5423WAT     H216512   1.002   8.939   9.128
 5424WAT      O16513   1.443   0.669   0.403
 5424WAT     H116514   1.413   0.574   0.389
 5424WAT     H216515   1.526   0.669   0.458
 5425WAT      O16516   2.769   3.405   3.792
 5425WAT     H116517   2.746   3.318   3.748
 5425WAT     H216518   2.736   3.481   3.735
 5426WAT      O16519   2.662   8.505   6.238
 5426WAT     H116520   2.614   8.556   6.309
 5426WAT     H216521   2.719   8.435   6.280
 5427WAT      O16522   6.623   2.182   7.882
 5427WAT     H116523   6.616   2.096   7.831
 5427WAT     H216524   6.531   2.216   7.904
 5428WAT      O16525   0.181   7.768   5.999
 5428WAT     H116526   0.279   7.754   5.980
 5428WAT     H216527   0.134   7.790   5.914
 5429WAT      O16528   8.803   6.618   2.290
 5429WAT     H116529   8.717   6.572   2.268
 5429WAT     H216530   8.844   6.577   2.371
 5430WAT      O16531   3.168   6.394   1.237
 5430WAT     H116532   3.117   6.395   1.323
 5430WAT     H216533   3.132   6.322   1.178
 5431WAT      O16534   3.961   9.311   5.977
 5431WAT     H116535   4.020   9.236   5.945
 5431WAT     H216536   3.882   9.273   6.025
 5432WAT      O16537   5.129   2.853   6.583
 5432WAT     H116538   5.120   2.948   6.553
 5432WAT     H216539   5.040   2.807   6.575
 5433WAT      O16540   1.534   5.989   1.617
 5433WAT     H116541   1.462   5.961   1.680
 5433WAT     H216542   1.548   5.918   1.549
 5434WAT      O16543   1.166   9.135   5.870
 5434WAT     H116544   1.217   9.092   5.944
 5434WAT     H216545   1.105   9.069   5.828
 5435WAT      O16546   2.853   1.918   2.607
 5435WAT     H116547   2.857   1.925   2.507
 5435WAT     H216548   2.937   1.954   2.646
 5436WAT      O16549   1.909   2.714   7.707
 5436WAT     H116550   1.907   2.740   7.804
 5436WAT     H216551   1.822   2.739   7.664
 5437WAT      O16552   8.592   5.257   7.681
 5437WAT     H116553   8.631   5.276   7.591
 5437WAT     H216554   8.494   5.238   7.672
 5438WAT      O16555   1.678   0.405   5.681
 5438WAT     H116556   1.618   0.355   5.618
 5438WAT     H216557   1.711   0.344   5.752
 5439WAT      O16558   4.878   8.574   5.694
 5439WAT     H116559   4.902   8.571   5.791
 5439WAT     H216560   4.933   8.507   5.644
 5440WAT      O16561   0.987   8.245   2.161
 5440WAT     H116562   1.054   8.297   2.214
 5440WAT     H216563   0.896   8.284   2.173
 5441WAT      O16564   8.675   2.726   6.935
 5441WAT     H116565   8.587   2.681   6.922
 5441WAT     H216566   8.749   2.664   6.910
 5442WAT      O16567   0.210   1.640   5.293
 5442WAT     H116568   0.150   1.711   5.330
 5442WAT     H216569   0.259   1.595   5.367
 5443WAT      O16570   9.378   4.082   4.332
 5443WAT     H116571   9.320   4.037   4.264
 5443WAT     H216572   9.375   4.181   4.317
 5444WAT      O16573   8.743   0.995   4.373
 5444WAT     H116574   8.701   0.962   4.288
 5444WAT     H216575   8.832   0.952   4.387
 5445WAT      O16576   8.170   2.836   6.234
 5445WAT     H116577   8.175   2.819   6.136
 5445WAT     H216578   8.164   2.749   6.283
 5446WAT      O16579   9.761   6.862   4.578
 5446WAT     H116580   9.746   6.880   4.675
 5446WAT     H216581   9.688   6.905   4.524
 5447WAT      O16582   1.054   2.714   6.552
 5447WAT     H116583   1.015   2.761   6.473
 5447WAT     H216584   1.000   2.632   6.571
 5448WAT      O16585   4.260   1.987   2.770
 5448WAT     H116586   4.167   1.954   2.787
 5448WAT     H216587   4.300   2.019   2.855
 5449WAT      O16588   4.450   7.103   7.728
 5449WAT     H116589   4.404   7.099   7.640
 5449WAT     H216590   4.417   7.183   7.779
 5450WAT      O16591   4.302   9.594   7.525
 5450WAT     H116592   4.236   9.545   7.583
 5450WAT     H216593   4.270   9.687   7.509
 5451WAT      O16594   5.829   8.801   9.115
 5451WAT     H116595   5.774   8.841   9.189
 5451WAT     H216596   5.888   8.872   9.076
 5452WAT      O16597   9.695   4.127   3.802
 5452WAT     H116598   9.731   4.144   3.710
 5452WAT     H216599   9.769   4.092   3.860
 5453WAT      O16600   5.196   4.965   1.664
 5453WAT     H116601   5.132   4.890   1.679
 5453WAT     H216602   5.145   5.047   1.639
 5454WAT      O16603   2.840   3.633   6.942
 5454WAT     H116604   2.742   3.617   6.930
 5454WAT     H216605   2.863   3.630   7.039
 5455WAT      O16606   1.116   8.661   1.318
 5455WAT     H116607   1.065   8.719   1.382
 5455WAT     H216608   1.117   8.703   1.228
 5456WAT      O16609   6.698   8.764   5.332
 5456WAT     H116610   6.787   8.757   5.376
 5456WAT     H216611   6.656   8.851   5.356
 5457WAT      O16612   3.225   7.928   5.765
 5457WAT     H116613   3.200   8.010   5.817
 5457WAT     H216614   3.214   7.947   5.667
 5458WAT      O16615   8.129   4.053   7.663
 5458WAT     H116616   8.188   4.129   7.687
 5458WAT     H216617   8.041   4.088   7.631
 5459WAT      O16618   5.312   3.351   9.521
 5459WAT     H116619   5.254   3.277   9.557
 5459WAT     H216620   5.407   3.334   9.547
 5460WAT      O16621   8.214   6.521   5.083
 5460WAT     H116622   8.166   6.473   5.155
 5460WAT     H216623   8.221   6.618   5.106
 5461WAT      O16624   1.643   9.357   2.249
 5461WAT     H116625   1.619   9.328   2.157
 5461WAT     H216626   1.727   9.310   2.278
 5462WAT      O16627   6.935   4.235   8.307
 5462WAT     H116628   6.842   4.200   8.319
 5462WAT     H216629   6.999   4.158   8.297
 5463WAT      O16630   7.919   0.928   2.982
 5463WAT     H116631   8.009   0.929   2.938
 5463WAT     H216632   7.915   1.000   3.051
 5464WAT      O16633   8.980   8.747   2.563
 5464WAT     H116634   8.929   8.685   2.503
 5464WAT     H216635   9.076   8.746   2.538
 5465WAT      O16636   9.550   1.146   9.114
 5465WAT     H116637   9.578   1.057   9.080
 5465WAT     H216638   9.628   1.193   9.155
 5466WAT      O16639   3.812   8.594   6.072
 5466WAT     H116640   3.735   8.541   6.037
 5466WAT     H216641   3.782   8.687   6.092
 5467WAT      O16642   5.823   5.156   2.965
 5467WAT     H116643   5.759   5.080   2.956
 5467WAT     H216644   5.824   5.209   2.881
 5468WAT      O16645   6.900   6.206   7.594
 5468WAT     H116646   6.918   6.298   7.628
 5468WAT     H216647   6.986   6.161   7.571
 5469WAT      O16648   2.025   2.916   0.456
 5469WAT     H116649   1.948   2.909   0.520
 5469WAT     H216650   2.111   2.909   0.507
 5470WAT      O16651   4.881   0.508   1.041
 5470WAT     H116652   4.923   0.548   0.960
 5470WAT     H216653   4.941   0.437   1.079
 5471WAT      O16654   4.011   7.612   4.573
 5471WAT     H116655   3.926   7.623   4.624
 5471WAT     H216656   3.998   7.645   4.480
 5472WAT      O16657   2.853   8.529   3.019
 5472WAT     H116658   2.947   8.495   3.020
 5472WAT     H216659   2.789   8.452   3.023
 5473WAT      O16660   4.593   6.555   8.925
 5473WAT     H116661   4.551   6.646   8.916
 5473WAT     H216662   4.525   6.484   8.908
 5474WAT      O16663   3.963   3.238   9.052
 5474WAT     H116664   3.974   3.142   9.025
 5474WAT     H216665   3.881   3.275   9.008
 5475WAT      O16666   2.988   5.820   6.631
 5475WAT     H116667   3.069   5.787   6.583
 5475WAT     H216668   2.966   5.913   6.599
 5476WAT      O16669   7.361   1.105   8.966
 5476WAT     H116670   7.348   1.125   8.869
 5476WAT     H216671   7.458   1.112   8.989
 5477WAT      O16672   2.435   9.378   4.102
 5477WAT     H116673   2.398   9.427   4.181
 5477WAT     H216674   2.409   9.426   4.018
 5478WAT      O16675   1.995   4.844   5.714
 5478WAT     H116676   2.046   4.763   5.743
 5478WAT     H216677   1.946   4.824   5.629
 5479WAT      O16678   0.278   1.298   3.111
 5479WAT     H116679   0.327   1.231   3.056
 5479WAT     H216680   0.195   1.327   3.062
 5480WAT      O16681   8.127   0.652   9.045
 5480WAT     H116682   8.213   0.672   8.999
 5480WAT     H216683   8.091   0.564   9.013
 5481WAT      O16684   5.137   1.938   0.683
 5481WAT     H116685   5.191   1.977   0.757
 5481WAT     H216686   5.171   1.846   0.662
 5482WAT      O16687   9.668   3.553   6.357
 5482WAT     H116688   9.746   3.559   6.419
 5482WAT     H216689   9.685   3.481   6.289
 5483WAT      O16690   7.033   0.538   8.006
 5483WAT     H116691   6.969   0.479   8.056
 5483WAT     H216692   7.109   0.564   8.066
 5484WAT      O16693   6.485   6.419   5.783
 5484WAT     H116694   6.497   6.335   5.730
 5484WAT     H216695   6.421   6.404   5.858
 5485WAT      O16696   1.485   1.365   3.608
 5485WAT     H116697   1.532   1.436   3.661
 5485WAT     H216698   1.529   1.355   3.519
 5486WAT      O16699   9.891   0.544   8.181
 5486WAT     H116700   9.892   0.530   8.280
 5486WAT     H216701   9.816   0.604   8.156
 5487WAT      O16702   0.823   2.872   7.093
 5487WAT     H116703   0.803   2.934   7.018
 5487WAT     H216704   0.829   2.778   7.058
 5488WAT      O16705   3.965   8.340   8.680
 5488WAT     H116706   3.875   8.298   8.679
 5488WAT     H216707   3.985   8.375   8.772
 5489WAT      O16708   0.989   3.134   5.162
 5489WAT     H116709   1.001   3.089   5.074
 5489WAT     H216710   0.891   3.139   5.184
 5490WAT      O16711   6.263   7.746   7.848
 5490WAT     H116712   6.347   7.760   7.796
 5490WAT     H216713   6.284   7.753   7.946
 5491WAT      O16714   2.091   3.662   3.111
 5491WAT     H116715   2.015   3.728   3.113
 5491WAT     H216716   2.165   3.695   3.168
 5492WAT      O16717   4.983   4.395   2.427
 5492WAT     H116718   4.907   4.333   2.447
 5492WAT     H216719   5.012   4.383   2.332
 5493WAT      O16720   4.453   5.560   2.541
 5493WAT     H116721   4.520   5.632   2.526
 5493WAT     H216722   4.483   5.502   2.617
 5494WAT      O16723   5.029   3.988   4.051
 5494WAT     H116724   4.935   4.022   4.056
 5494WAT     H216725   5.066   3.982   4.144
 5495WAT      O16726   0.088   4.016   1.206
 5495WAT     H116727   0.040   4.038   1.121
 5495WAT     H216728   0.038   3.946   1.255
 5496WAT      O16729   6.666   6.327   1.282
 5496WAT     H116730   6.590   6.336   1.347
 5496WAT     H216731   6.675   6.231   1.255
 5497WAT      O16732   3.787   7.974   5.141
 5497WAT     H116733   3.787   8.030   5.224
 5497WAT     H216734   3.707   7.914   5.142
 5498WAT      O16735   9.789   6.606   6.643
 5498WAT     H116736   9.798   6.706   6.642
 5498WAT     H216737   9.871   6.566   6.684
 5499WAT      O16738   5.983   2.012   7.587
 5499WAT     H116739   5.896   2.056   7.562
 5499WAT     H216740   5.982   1.986   7.683
 5500WAT      O16741   7.415   7.902   3.929
 5500WAT     H116742   7.349   7.851   3.873
 5500WAT     H216743   7.377   7.992   3.951
 5501WAT      O16744   0.256   0.167   8.638
 5501WAT     H116745   0.343   0.133   8.672
 5501WAT     H216746   0.243   0.136   8.544
 5502WAT      O16747   9.069   0.460   8.700
 5502WAT     H116748   8.975   0.471   8.733
 5502WAT     H216749   9.118   0.396   8.759
 5503WAT      O16750   1.068   8.387   3.671
 5503WAT     H116751   0.989   8.448   3.666
 5503WAT     H216752   1.059   8.315   3.602
 5504WAT      O16753   2.442   4.359   4.890
 5504WAT     H116754   2.343   4.360   4.899
 5504WAT     H216755   2.470   4.423   4.818
 5505WAT      O16756   3.104   8.895   5.263
 5505WAT     H116757   3.006   8.875   5.265
 5505WAT     H216758   3.127   8.958   5.337
 5506WAT      O16759   6.455   6.424   1.114
 5506WAT     H116760   6.527   6.395   1.176
 5506WAT     H216761   6.378   6.360   1.120
 5507WAT      O16762   2.632   9.762   7.770
 5507WAT     H116763   2.698   9.713   7.826
 5507WAT     H216764   2.630   9.722   7.678
 5508WAT      O16765   4.814   6.262   7.215
 5508WAT     H116766   4.897   6.215   7.184
 5508WAT     H216767   4.825   6.286   7.312
 5509WAT      O16768   5.076   0.887   5.523
 5509WAT     H116769   5.065   0.881   5.623
 5509WAT     H216770   5.007   0.947   5.485
 5510WAT      O16771   2.293   0.498   4.713
 5510WAT     H116772   2.196   0.494   4.737
 5510WAT     H216773   2.304   0.548   4.626
 5511WAT      O16774   0.645   1.870   2.546
 5511WAT     H116775   0.550   1.847   2.569
 5511WAT     H216776   0.650   1.966   2.520
 5512WAT      O16777   0.513   1.780   3.464
 5512WAT     H116778   0.427   1.827   3.483
 5512WAT     H216779   0.554   1.747   3.549
 5513WAT      O16780   2.249   7.459   4.789
 5513WAT     H116781   2.218   7.518   4.864
 5513WAT     H216782   2.279   7.371   4.826
 5514WAT      O16783   2.015   2.412   6.875
 5514WAT     H116784   1.973   2.502   6.880
 5514WAT     H216785   2.103   2.413   6.923
 5515WAT      O16786   1.350   8.987   6.775
 5515WAT     H116787   1.446   8.965   6.756
 5515WAT     H216788   1.346   9.069   6.833
 5516WAT      O16789   7.913   9.448   0.364
 5516WAT     H116790   7.863   9.479   0.283
 5516WAT     H216791   7.994   9.505   0.376
 5517WAT      O16792   1.095   6.411   3.451
 5517WAT     H116793   1.062   6.399   3.544
 5517WAT     H216794   1.187   6.375   3.442
 5518WAT      O16795   5.856   8.271   5.287
 5518WAT     H116796   5.870   8.315   5.198
 5518WAT     H216797   5.821   8.339   5.352
 5519WAT      O16798   4.324   2.732   1.187
 5519WAT     H116799   4.298   2.799   1.118
 5519WAT     H216800   4.360   2.779   1.267
 5520WAT      O16801   6.319   2.874   5.764
 5520WAT     H116802   6.315   2.973   5.768
 5520WAT     H216803   6.287   2.843   5.674
 5521WAT      O16804   4.268   1.083   4.497
 5521WAT     H116805   4.347   1.075   4.559
 5521WAT     H216806   4.195   1.022   4.528
 5522WAT      O16807   2.723   2.362   7.407
 5522WAT     H116808   2.819   2.349   7.380
 5522WAT     H216809   2.666   2.372   7.326
 5523WAT      O16810   3.018   8.911   1.181
 5523WAT     H116811   3.033   8.826   1.231
 5523WAT     H216812   3.104   8.962   1.177
 5524WAT      O16813   4.950   0.323   2.139
 5524WAT     H116814   5.042   0.346   2.172
 5524WAT     H216815   4.899   0.276   2.212
 5525WAT      O16816   7.648   2.805   1.083
 5525WAT     H116817   7.742   2.836   1.094
 5525WAT     H216818   7.636   2.765   0.992
 5526WAT      O16819   9.515   6.533   3.785
 5526WAT     H116820   9.438   6.596   3.789
 5526WAT     H216821   9.591   6.570   3.837
 5527WAT      O16822   4.675   5.774   2.601
 5527WAT     H116823   4.735   5.754   2.523
 5527WAT     H216824   4.715   5.735   2.684
 5528WAT      O16825   7.147   2.188   1.917
 5528WAT     H116826   7.049   2.208   1.907
 5528WAT     H216827   7.170   2.105   1.866
 5529WAT      O16828   7.749   4.013   7.193
 5529WAT     H116829   7.727   3.915   7.194
 5529WAT     H216830   7.681   4.062   7.138
 5530WAT      O16831   3.320   7.107   5.942
 5530WAT     H116832   3.365   7.164   6.010
 5530WAT     H216833   3.312   7.014   5.976
 5531WAT      O16834   1.136   4.438   3.137
 5531WAT     H116835   1.143   4.494   3.220
 5531WAT     H216836   1.218   4.383   3.126
 5532WAT      O16837   7.641   6.581   9.722
 5532WAT     H116838   7.718   6.633   9.760
 5532WAT     H216839   7.601   6.632   9.646
 5533WAT      O16840   8.073   5.299   1.174
 5533WAT     H116841   8.149   5.281   1.236
 5533WAT     H216842   8.040   5.213   1.135
 5534WAT      O16843   3.336   7.525   8.930
 5534WAT     H116844   3.348   7.447   8.868
 5534WAT     H216845   3.269   7.588   8.892
 5535WAT      O16846   3.893   0.537   1.636
 5535WAT     H116847   3.840   0.547   1.720
 5535WAT     H216848   3.988   0.514   1.659
 5536WAT      O16849   3.664   1.195   3.591
 5536WAT     H116850   3.720   1.271   3.559
 5536WAT     H216851   3.569   1.209   3.562
 5537WAT      O16852   4.659   4.141   5.650
 5537WAT     H116853   4.739   4.095   5.689
 5537WAT     H216854   4.580   4.081   5.659
 5538WAT      O16855   7.175   3.081   3.246
 5538WAT     H116856   7.127   3.140   3.180
 5538WAT     H216857   7.245   3.028   3.198
 5539WAT      O16858   3.014   0.407   0.654
 5539WAT     H116859   3.074   0.338   0.695
 5539WAT     H216860   2.967   0.458   0.727
 5540WAT      O16861   9.774   8.649   0.611
 5540WAT     H116862   9.690   8.621   0.658
 5540WAT     H216863   9.842   8.576   0.616
 5541WAT      O16864   7.795   2.031   1.260
 5541WAT     H116865   7.701   2.010   1.231
 5541WAT     H216866   7.848   2.062   1.181
 5542WAT      O16867   6.960   4.605   6.013
 5542WAT     H116868   6.896   4.599   5.937
 5542WAT     H216869   6.915   4.578   6.098
 5543WAT      O16870   8.539   2.373   5.296
 5543WAT     H116871   8.608   2.443   5.276
 5543WAT     H216872   8.525   2.315   5.216
 5544WAT      O16873   0.414   8.458   2.375
 5544WAT     H116874   0.385   8.492   2.286
 5544WAT     H216875   0.365   8.373   2.396
 5545WAT      O16876   8.986   8.657   8.758
 5545WAT     H116877   9.031   8.576   8.720
 5545WAT     H216878   8.898   8.630   8.798
 5546WAT      O16879   4.551   1.201   8.215
 5546WAT     H116880   4.580   1.178   8.308
 5546WAT     H216881   4.559   1.120   8.157
 5547WAT      O16882   8.968   5.244   7.650
 5547WAT     H116883   8.937   5.324   7.701
 5547WAT     H216884   8.929   5.161   7.691
 5548WAT      O16885   8.059   7.132   2.954
 5548WAT     H116886   8.028   7.037   2.954
 5548WAT     H216887   8.041   7.173   2.865
 5549WAT      O16888   0.871   6.747   6.892
 5549WAT     H116889   0.935   6.742   6.815
 5549WAT     H216890   0.825   6.659   6.903
 5550WAT      O16891   5.898   6.025   6.239
 5550WAT     H116892   5.845   5.941   6.231
 5550WAT     H216893   5.909   6.048   6.336
 5551WAT      O16894   9.320   4.136   8.263
 5551WAT     H116895   9.267   4.061   8.304
 5551WAT     H216896   9.348   4.200   8.334
 5552WAT      O16897   2.869   1.550   5.583
 5552WAT     H116898   2.924   1.467   5.576
 5552WAT     H216899   2.863   1.578   5.679
 5553WAT      O16900   0.478   1.994   9.592
 5553WAT     H116901   0.456   1.977   9.688
 5553WAT     H216902   0.413   1.945   9.534
 5554WAT      O16903   2.413   0.755   6.215
 5554WAT     H116904   2.375   0.840   6.253
 5554WAT     H216905   2.343   0.710   6.158
 5555WAT      O16906   9.488   4.319   2.107
 5555WAT     H116907   9.588   4.315   2.115
 5555WAT     H216908   9.449   4.355   2.191
 5556WAT      O16909   3.541   1.779   7.418
 5556WAT     H116910   3.553   1.691   7.465
 5556WAT     H216911   3.445   1.807   7.423
 5557WAT      O16912   8.621   9.318   1.523
 5557WAT     H116913   8.695   9.265   1.566
 5557WAT     H216914   8.534   9.269   1.535
 5558WAT      O16915   5.718   9.202   8.685
 5558WAT     H116916   5.716   9.170   8.780
 5558WAT     H216917   5.765   9.289   8.680
 5559WAT      O16918   8.726   0.968   3.216
 5559WAT     H116919   8.652   0.902   3.212
 5559WAT     H216920   8.689   1.059   3.235
 5560WAT      O16921   2.929   6.403   3.296
 5560WAT     H116922   2.863   6.360   3.234
 5560WAT     H216923   2.953   6.339   3.369
 5561WAT      O16924   5.787   1.370   4.520
 5561WAT     H116925   5.864   1.307   4.518
 5561WAT     H216926   5.738   1.361   4.606
 5562WAT      O16927   8.445   0.976   0.095
 5562WAT     H116928   8.366   0.928   0.132
 5562WAT     H216929   8.449   1.069   0.132
 5563WAT      O16930   5.709   0.696   6.162
 5563WAT     H116931   5.798   0.678   6.203
 5563WAT     H216932   5.710   0.669   6.066
 5564WAT      O16933   6.687   9.697   9.447
 5564WAT     H116934   6.643   9.779   9.482
 5564WAT     H216935   6.780   9.719   9.418
 5565WAT      O16936   2.543   0.683   1.195
 5565WAT     H116937   2.606   0.607   1.206
 5565WAT     H216938   2.517   0.718   1.286
 5566WAT      O16939   5.821   7.434   5.181
 5566WAT     H116940   5.794   7.505   5.247
 5566WAT     H216941   5.739   7.395   5.140
 5567WAT      O16942   3.915   2.096   8.717
 5567WAT     H116943   3.849   2.148   8.663
 5567WAT     H216944   3.996   2.153   8.734
 5568WAT      O16945   1.837   1.059   1.861
 5568WAT     H116946   1.794   1.040   1.774
 5568WAT     H216947   1.863   0.972   1.905
 5569WAT      O16948   9.323   6.812   0.849
 5569WAT     H116949   9.312   6.714   0.867
 5569WAT     H216950   9.413   6.829   0.809
 5570WAT      O16951   5.925   9.516   9.194
 5570WAT     H116952   5.966   9.560   9.274
 5570WAT     H216953   5.833   9.483   9.217
 5571WAT      O16954   2.791   7.473   8.734
 5571WAT     H116955   2.709   7.481   8.791
 5571WAT     H216956   2.794   7.382   8.693
 5572WAT      O16957   4.945   7.402   5.744
 5572WAT     H116958   4.872   7.396   5.812
 5572WAT     H216959   5.033   7.384   5.788
 5573WAT      O16960   6.513   8.055   9.381
 5573WAT     H116961   6.435   8.061   9.318
 5573WAT     H216962   6.538   7.959   9.392
 5574WAT      O16963   9.825   8.182   9.864
 5574WAT     H116964   9.741   8.234   9.848
 5574WAT     H216965   9.822   8.139   9.954
 5575WAT      O16966   3.986   1.006   4.331
 5575WAT     H116967   3.960   1.102   4.338
 5575WAT     H216968   3.957   0.970   4.242
 5576WAT      O16969   8.003   2.640   5.663
 5576WAT     H116970   8.022   2.738   5.664
 5576WAT     H216971   7.977   2.610   5.755
 5577WAT      O16972   2.989   7.924   3.205
 5577WAT     H116973   3.034   7.869   3.275
 5577WAT     H216974   3.007   7.886   3.115
 5578WAT      O16975   0.752   8.809   7.102
 5578WAT     H116976   0.781   8.790   7.008
 5578WAT     H216977   0.788   8.898   7.131
 5579WAT      O16978   5.732   2.515   6.589
 5579WAT     H116979   5.679   2.457   6.526
 5579WAT     H216980   5.702   2.498   6.683
 5580WAT      O16981   6.987   0.187   8.943
 5580WAT     H116982   6.961   0.092   8.927
 5580WAT     H216983   7.084   0.191   8.970
 5581WAT      O16984   8.226   6.298   1.414
 5581WAT     H116985   8.278   6.357   1.352
 5581WAT     H216986   8.212   6.345   1.501
 5582WAT      O16987   9.045   3.172   3.871
 5582WAT     H116988   9.141   3.192   3.892
 5582WAT     H216989   8.989   3.189   3.953
 5583WAT      O16990   4.074   6.314   0.230
 5583WAT     H116991   4.066   6.414   0.238
 5583WAT     H216992   4.169   6.290   0.210
 5584WAT      O16993   4.959   8.082   5.388
 5584WAT     H116994   5.038   8.113   5.442
 5584WAT     H216995   4.934   8.152   5.322
 5585WAT      O16996   8.554   8.111   7.332
 5585WAT     H116997   8.483   8.068   7.387
 5585WAT     H216998   8.561   8.064   7.244
 5586WAT      O16999   5.196   8.357   0.495
 5586WAT     H117000   5.202   8.271   0.545
 5586WAT     H217001   5.103   8.372   0.463
 5587WAT      O17002   0.934   7.977   2.619
 5587WAT     H117003   0.962   7.897   2.672
 5587WAT     H217004   0.998   7.992   2.544
 5588WAT      O17005   1.352   4.832   0.506
 5588WAT     H117006   1.333   4.816   0.603
 5588WAT     H217007   1.267   4.859   0.460
 5589WAT      O17008   2.859   5.759   9.504
 5589WAT     H117009   2.867   5.851   9.468
 5589WAT     H217010   2.789   5.709   9.453
 5590WAT      O17011   1.868   2.670   8.183
 5590WAT     H117012   1.852   2.622   8.269
 5590WAT     H217013   1.952   2.638   8.141
 5591WAT      O17014   7.694   1.201   4.325
 5591WAT     H117015   7.618   1.158   4.275
 5591WAT     H217016   7.657   1.262   4.395
 5592WAT      O17017   0.949   0.643   2.842
 5592WAT     H117018   1.005   0.619   2.763
 5592WAT     H217019   0.979   0.591   2.922
 5593WAT      O17020   5.271   6.453   1.884
 5593WAT     H117021   5.258   6.496   1.795
 5593WAT     H217022   5.183   6.428   1.922
 5594WAT      O17023   5.241   7.134   7.513
 5594WAT     H117024   5.163   7.195   7.526
 5594WAT     H217025   5.226   7.076   7.434
 5595WAT      O17026   8.304   0.346   3.836
 5595WAT     H117027   8.292   0.410   3.911
 5595WAT     H217028   8.365   0.272   3.864
 5596WAT      O17029   7.993   5.832   2.701
 5596WAT     H117030   8.081   5.819   2.654
 5596WAT     H217031   8.001   5.799   2.796
 5597WAT      O17032   5.234   0.759   8.306
 5597WAT     H117033   5.183   0.841   8.333
 5597WAT     H217034   5.172   0.695   8.261
 5598WAT      O17035   1.287   0.629   3.031
 5598WAT     H117036   1.201   0.582   3.012
 5598WAT     H217037   1.269   0.713   3.081
 5599WAT      O17038   4.761   6.789   0.066
 5599WAT     H117039   4.761   6.883   0.032
 5599WAT     H217040   4.856   6.758   0.077
 5600WAT      O17041   2.632   8.788   3.534
 5600WAT     H117042   2.711   8.750   3.486
 5600WAT     H217043   2.612   8.731   3.614
 5601WAT      O17044   3.059   1.811   2.883
 5601WAT     H117045   3.132   1.788   2.947
 5601WAT     H217046   2.970   1.807   2.930
 5602WAT      O17047   5.983   0.514   0.324
 5602WAT     H117048   5.902   0.544   0.275
 5602WAT     H217049   5.974   0.417   0.349
 5603WAT      O17050   0.387   4.166   8.481
 5603WAT     H117051   0.485   4.181   8.489
 5603WAT     H217052   0.369   4.069   8.467
 5604WAT      O17053   8.796   3.259   0.745
 5604WAT     H117054   8.894   3.238   0.746
 5604WAT     H217055   8.747   3.188   0.796
 5605WAT      O17056   3.719   0.981   2.191
 5605WAT     H117057   3.717   1.007   2.094
 5605WAT     H217058   3.794   1.029   2.237
 5606WAT      O17059   6.851   7.873   1.842
 5606WAT     H117060   6.938   7.919   1.858
 5606WAT     H217061   6.848   7.838   1.749
 5607WAT      O17062   1.352   8.899   2.566
 5607WAT     H117063   1.429   8.963   2.572
 5607WAT     H217064   1.269   8.945   2.596
 5608WAT      O17065   7.750   9.321   0.515
 5608WAT     H117066   7.763   9.337   0.613
 5608WAT     H217067   7.799   9.391   0.463
 5609WAT      O17068   1.267   1.365   3.854
 5609WAT     H117069   1.272   1.305   3.774
 5609WAT     H217070   1.300   1.316   3.935
 5610WAT      O17071   6.973   2.183   3.897
 5610WAT     H117072   6.969   2.195   3.996
 5610WAT     H217073   6.881   2.193   3.858
 5611WAT      O17074   7.468   7.933   3.040
 5611WAT     H117075   7.523   7.997   2.987
 5611WAT     H217076   7.387   7.980   3.076
 5612WAT      O17077   7.536   3.648   6.181
 5612WAT     H117078   7.537   3.548   6.175
 5612WAT     H217079   7.513   3.675   6.275
 5613WAT      O17080   7.210   1.664   3.422
 5613WAT     H117081   7.183   1.735   3.487
 5613WAT     H217082   7.129   1.637   3.369
 5614WAT      O17083   7.156   2.595   8.318
 5614WAT     H117084   7.125   2.511   8.274
 5614WAT     H217085   7.080   2.660   8.325
 5615WAT      O17086   1.786   5.706   2.943
 5615WAT     H117087   1.715   5.777   2.941
 5615WAT     H217088   1.750   5.625   2.989
 5616WAT      O17089   6.556   0.295   6.955
 5616WAT     H117090   6.560   0.371   7.020
 5616WAT     H217091   6.540   0.331   6.863
 5617WAT      O17092   3.750   6.362   6.808
 5617WAT     H117093   3.739   6.262   6.811
 5617WAT     H217094   3.814   6.386   6.735
 5618WAT      O17095   8.864   3.552   2.793
 5618WAT     H117096   8.944   3.600   2.757
 5618WAT     H217097   8.876   3.453   2.780
 5619WAT      O17098   4.579   9.839   7.569
 5619WAT     H117099   4.515   9.815   7.642
 5619WAT     H217100   4.651   9.898   7.606
 5620WAT      O17101   8.861   2.623   9.469
 5620WAT     H117102   8.931   2.574   9.523
 5620WAT     H217103   8.788   2.559   9.444
 5621WAT      O17104   0.940   4.488   0.291
 5621WAT     H117105   0.923   4.577   0.249
 5621WAT     H217106   1.008   4.439   0.238
 5622WAT      O17107   9.010   7.234   1.582
 5622WAT     H117108   8.935   7.195   1.529
 5622WAT     H217109   8.974   7.274   1.666
 5623WAT      O17110   6.189   7.020   4.498
 5623WAT     H117111   6.238   7.051   4.416
 5623WAT     H217112   6.098   6.989   4.473
 5624WAT      O17113   4.122   8.678   3.763
 5624WAT     H117114   4.030   8.672   3.724
 5624WAT     H217115   4.129   8.760   3.819
 5625WAT      O17116   2.656   6.737   2.379
 5625WAT     H117117   2.586   6.806   2.362
 5625WAT     H217118   2.701   6.757   2.467
 5626WAT      O17119   4.678   3.655   3.643
 5626WAT     H117120   4.699   3.574   3.698
 5626WAT     H217121   4.762   3.707   3.627
 5627WAT      O17122   8.856   5.262   9.866
 5627WAT     H117123   8.783   5.328   9.884
 5627WAT     H217124   8.817   5.178   9.829
 5628WAT      O17125   0.655   2.401   4.353
 5628WAT     H117126   0.699   2.480   4.397
 5628WAT     H217127   0.725   2.335   4.326
 5629WAT      O17128   0.542   3.115   4.025
 5629WAT     H117129   0.497   3.175   4.092
 5629WAT     H217130   0.473   3.062   3.977
 5630WAT      O17131   8.272   4.986   6.812
 5630WAT     H117132   8.273   4.904   6.754
 5630WAT     H217133   8.215   4.969   6.893
 5631WAT      O17134   7.141   9.174   5.165
 5631WAT     H117135   7.104   9.082   5.179
 5631WAT     H217136   7.208   9.194   5.236
 5632WAT      O17137   1.876   4.005   1.348
 5632WAT     H117138   1.885   4.099   1.314
 5632WAT     H217139   1.856   3.944   1.272
 5633WAT      O17140   5.132   8.566   9.046
 5633WAT     H117141   5.209   8.622   9.076
 5633WAT     H217142   5.148   8.533   8.953
 5634WAT      O17143   8.122   7.209   7.316
 5634WAT     H117144   8.083   7.293   7.354
 5634WAT     H217145   8.117   7.212   7.216
 5635WAT      O17146   0.508   3.369   7.760
 5635WAT     H117147   0.452   3.413   7.830
 5635WAT     H217148   0.468   3.387   7.670
 5636WAT      O17149   9.286   4.085   6.210
 5636WAT     H117150   9.383   4.075   6.232
 5636WAT     H217151   9.247   3.996   6.192
 5637WAT      O17152   9.133   5.266   2.191
 5637WAT     H117153   9.151   5.169   2.203
 5637WAT     H217154   9.073   5.299   2.263
 5638WAT      O17155   3.520   2.208   7.740
 5638WAT     H117156   3.425   2.225   7.764
 5638WAT     H217157   3.524   2.143   7.663
 5639WAT      O17158   0.684   3.319   2.892
 5639WAT     H117159   0.600   3.362   2.924
 5639WAT     H217160   0.730   3.379   2.827
 5640WAT      O17161   6.184   9.339   7.642
 5640WAT     H117162   6.159   9.251   7.601
 5640WAT     H217163   6.283   9.349   7.642
 5641WAT      O17164   5.410   8.137   1.318
 5641WAT     H117165   5.396   8.065   1.386
 5641WAT     H217166   5.508   8.146   1.299
 5642WAT      O17167   9.055   2.016   8.852
 5642WAT     H117168   9.154   2.021   8.842
 5642WAT     H217169   9.012   2.078   8.786
 5643WAT      O17170   7.255   6.259   4.964
 5643WAT     H117171   7.185   6.325   4.937
 5643WAT     H217172   7.309   6.232   4.883
 5644WAT      O17173   8.235   1.375   9.623
 5644WAT     H117174   8.291   1.391   9.704
 5644WAT     H217175   8.139   1.366   9.650
 5645WAT      O17176   5.726   2.436   0.549
 5645WAT     H117177   5.667   2.486   0.613
 5645WAT     H217178   5.803   2.396   0.599
 5646WAT      O17179   7.012   4.601   1.377
 5646WAT     H117180   7.010   4.635   1.471
 5646WAT     H217181   7.039   4.504   1.377
 5647WAT      O17182   5.035   3.091   1.802
 5647WAT     H117183   4.995   3.096   1.894
 5647WAT     H217184   5.091   3.171   1.786
 5648WAT      O17185   0.989   9.689   8.791
 5648WAT     H117186   0.989   9.671   8.889
 5648WAT     H217187   0.978   9.788   8.775
 5649WAT      O17188   0.609   4.334   8.977
 5649WAT     H117189   0.700   4.294   8.967
 5649WAT     H217190   0.617   4.433   8.989
 5650WAT      O17191   6.335   1.822   2.571
 5650WAT     H117192   6.343   1.861   2.479
 5650WAT     H217193   6.359   1.892   2.639
 5651WAT      O17194   6.483   4.658   5.230
 5651WAT     H117195   6.559   4.680   5.291
 5651WAT     H217196   6.519   4.621   5.144
 5652WAT      O17197   1.528   7.057   5.990
 5652WAT     H117198   1.565   7.046   6.082
 5652WAT     H217199   1.602   7.058   5.923
 5653WAT      O17200   9.740   8.817   9.038
 5653WAT     H117201   9.711   8.878   8.964
 5653WAT     H217202   9.675   8.741   9.045
 5654WAT      O17203   3.025   1.559   6.615
 5654WAT     H117204   2.934   1.572   6.575
 5654WAT     H217205   3.086   1.630   6.580
 5655WAT      O17206   1.429   5.238   9.833
 5655WAT     H117207   1.498   5.308   9.850
 5655WAT     H217208   1.381   5.259   9.748
 5656WAT      O17209   3.304   7.341   3.511
 5656WAT     H117210   3.235   7.285   3.557
 5656WAT     H217211   3.376   7.282   3.475
 5657WAT      O17212   8.775   3.261   3.089
 5657WAT     H117213   8.828   3.264   3.004
 5657WAT     H217214   8.837   3.273   3.167
 5658WAT      O17215   7.438   6.184   4.470
 5658WAT     H117216   7.425   6.134   4.556
 5658WAT     H217217   7.380   6.143   4.399
 5659WAT      O17218   8.009   4.058   3.387
 5659WAT     H117219   7.944   4.129   3.414
 5659WAT     H217220   8.102   4.091   3.404
 5660WAT      O17221   6.182   0.420   4.490
 5660WAT     H117222   6.199   0.519   4.488
 5660WAT     H217223   6.083   0.404   4.486
 5661WAT      O17224   5.387   8.610   9.209
 5661WAT     H117225   5.475   8.572   9.183
 5661WAT     H217226   5.363   8.684   9.147
 5662WAT      O17227   0.080   0.269   8.390
 5662WAT     H117228   0.002   0.237   8.337
 5662WAT     H217229   0.148   0.197   8.397
 5663WAT      O17230   3.060   3.394   0.747
 5663WAT     H117231   3.034   3.449   0.668
 5663WAT     H217232   3.083   3.301   0.717
 5664WAT      O17233   0.601   1.598   6.788
 5664WAT     H117234   0.543   1.526   6.751
 5664WAT     H217235   0.560   1.634   6.872
 5665WAT      O17236   1.875   5.260   2.846
 5665WAT     H117237   1.885   5.337   2.783
 5665WAT     H217238   1.960   5.207   2.848
 5666WAT      O17239   6.946   8.761   5.454
 5666WAT     H117240   6.992   8.814   5.525
 5666WAT     H217241   6.991   8.672   5.445
 5667WAT      O17242   5.074   5.907   0.296
 5667WAT     H117243   5.089   5.973   0.223
 5667WAT     H217244   4.988   5.927   0.342
 5668WAT      O17245   5.933   1.909   2.969
 5668WAT     H117246   5.922   1.935   3.065
 5668WAT     H217247   5.911   1.813   2.957
 5669WAT      O17248   7.869   5.833   3.435
 5669WAT     H117249   7.812   5.757   3.464
 5669WAT     H217250   7.897   5.820   3.340
 5670WAT      O17251   0.641   4.508   0.070
 5670WAT     H117252   0.736   4.485   0.048
 5670WAT     H217253   0.619   4.472   0.161
 5671WAT      O17254   3.863   7.588   5.738
 5671WAT     H117255   3.887   7.510   5.681
 5671WAT     H217256   3.788   7.639   5.695
 5672WAT      O17257   4.511   6.631   4.916
 5672WAT     H117258   4.607   6.607   4.931
 5672WAT     H217259   4.456   6.593   4.991
 5673WAT      O17260   4.153   9.549   9.842
 5673WAT     H117261   4.135   9.538   9.940
 5673WAT     H217262   4.078   9.507   9.790
 5674WAT      O17263   4.690   3.756   5.334
 5674WAT     H117264   4.608   3.726   5.286
 5674WAT     H217265   4.769   3.705   5.301
 5675WAT      O17266   0.988   3.124   7.714
 5675WAT     H117267   0.935   3.203   7.746
 5675WAT     H217268   1.083   3.133   7.743
 5676WAT      O17269   3.128   5.303   7.035
 5676WAT     H117270   3.149   5.210   7.005
 5676WAT     H217271   3.031   5.322   7.020
 5677WAT      O17272   6.843   8.408   4.548
 5677WAT     H117273   6.935   8.414   4.585
 5677WAT     H217274   6.817   8.496   4.509
 5678WAT      O17275   3.784   6.172   5.201
 5678WAT     H117276   3.785   6.073   5.186
 5678WAT     H217277   3.875   6.202   5.227
 5679WAT      O17278   2.723   7.688   1.622
 5679WAT     H117279   2.801   7.635   1.652
 5679WAT     H217280   2.739   7.785   1.640
 5680WAT      O17281   1.008   5.012   7.970
 5680WAT     H117282   1.067   4.975   8.042
 5680WAT     H217283   1.000   4.946   7.896
 5681WAT      O17284   0.496   2.633   9.079
 5681WAT     H117285   0.518   2.580   8.997
 5681WAT     H217286   0.432   2.706   9.056
 5682WAT      O17287   8.986   4.234   6.945
 5682WAT     H117288   8.952   4.288   7.022
 5682WAT     H217289   8.909   4.197   6.893
 5683WAT      O17290   3.740   5.439   3.818
 5683WAT     H117291   3.835   5.472   3.814
 5683WAT     H217292   3.739   5.345   3.852
 5684WAT      O17293   5.068   2.686   1.614
 5684WAT     H117294   4.998   2.757   1.623
 5684WAT     H217295   5.058   2.641   1.525
 5685WAT      O17296   3.188   5.536   0.288
 5685WAT     H117297   3.107   5.489   0.253
 5685WAT     H217298   3.259   5.539   0.218
 5686WAT      O17299   8.947   9.300   7.153
 5686WAT     H117300   8.939   9.392   7.190
 5686WAT     H217301   8.974   9.237   7.225
 5687WAT      O17302   1.437   3.166   8.848
 5687WAT     H117303   1.477   3.088   8.800
 5687WAT     H217304   1.338   3.167   8.832
 5688WAT      O17305   9.687   5.944   2.157
 5688WAT     H117306   9.712   6.021   2.098
 5688WAT     H217307   9.588   5.942   2.170
 5689WAT      O17308   8.131   6.085   4.817
 5689WAT     H117309   8.171   6.175   4.833
 5689WAT     H217310   8.052   6.073   4.877
 5690WAT      O17311   8.651   2.442   1.671
 5690WAT     H117312   8.635   2.384   1.751
 5690WAT     H217313   8.628   2.391   1.588
 5691WAT      O17314   5.996   6.946   6.278
 5691WAT     H117315   5.904   6.986   6.277
 5691WAT     H217316   6.053   6.991   6.210
 5692WAT      O17317   7.169   7.737   1.996
 5692WAT     H117318   7.140   7.832   2.007
 5692WAT     H217319   7.092   7.683   1.960
 5693WAT      O17320   9.806   6.166   7.133
 5693WAT     H117321   9.726   6.226   7.141
 5693WAT     H217322   9.888   6.218   7.156
 5694WAT      O17323   5.143   4.363   5.289
 5694WAT     H117324   5.203   4.285   5.307
 5694WAT     H217325   5.173   4.409   5.205
 5695WAT      O17326   0.381   0.081   7.122
 5695WAT     H117327   0.287   0.109   7.139
 5695WAT     H217328   0.388  -0.019   7.128
 5696WAT      O17329   1.660   0.171   5.369
 5696WAT     H117330   1.608   0.188   5.453
 5696WAT     H217331   1.681   0.257   5.324
 5697WAT      O17332   6.560   4.860   1.182
 5697WAT     H117333   6.566   4.861   1.082
 5697WAT     H217334   6.634   4.803   1.219
 5698WAT      O17335   5.182   3.189   7.339
 5698WAT     H117336   5.127   3.106   7.333
 5698WAT     H217337   5.164   3.246   7.258
 5699WAT      O17338   0.700   0.115   2.406
 5699WAT     H117339   0.786   0.140   2.448
 5699WAT     H217340   0.632   0.186   2.424
 5700WAT      O17341   6.301   6.753   1.766
 5700WAT     H117342   6.379   6.787   1.714
 5700WAT     H217343   6.300   6.795   1.857
 5701WAT      O17344   6.678   0.882   0.372
 5701WAT     H117345   6.643   0.793   0.399
 5701WAT     H217346   6.606   0.951   0.384
 5702WAT      O17347   2.395   4.976   7.170
 5702WAT     H117348   2.309   4.990   7.120
 5702WAT     H217349   2.387   5.016   7.262
 5703WAT      O17350   7.001   5.515   2.501
 5703WAT     H117351   7.048   5.599   2.472
 5703WAT     H217352   7.047   5.478   2.582
 5704WAT      O17353   6.789   1.719   5.712
 5704WAT     H117354   6.887   1.724   5.696
 5704WAT     H217355   6.769   1.642   5.774
 5705WAT      O17356   6.703   4.063   8.335
 5705WAT     H117357   6.667   4.054   8.242
 5705WAT     H217358   6.632   4.100   8.395
 5706WAT      O17359   1.718   6.061   6.012
 5706WAT     H117360   1.722   6.028   6.106
 5706WAT     H217361   1.808   6.098   5.986
 5707WAT      O17362   4.756   7.165   5.302
 5707WAT     H117363   4.723   7.073   5.325
 5707WAT     H217364   4.801   7.204   5.383
 5708WAT      O17365   8.130   8.548   8.491
 5708WAT     H117366   8.066   8.474   8.510
 5708WAT     H217367   8.079   8.632   8.472
 5709WAT      O17368   8.908   7.957   5.233
 5709WAT     H117369   8.873   7.978   5.142
 5709WAT     H217370   8.838   7.910   5.287
 5710WAT      O17371   4.788   2.274   6.692
 5710WAT     H117372   4.818   2.243   6.783
 5710WAT     H217373   4.868   2.295   6.636
 5711WAT      O17374   2.366   2.105   1.615
 5711WAT     H117375   2.414   2.189   1.590
 5711WAT     H217376   2.317   2.119   1.701
 5712WAT      O17377   1.590   4.507   9.219
 5712WAT     H117378   1.573   4.411   9.244
 5712WAT     H217379   1.669   4.512   9.158
 5713WAT      O17380   8.503   8.423   7.695
 5713WAT     H117381   8.598   8.455   7.686
 5713WAT     H217382   8.458   8.472   7.769
 5714WAT      O17383   0.967   4.072   9.141
 5714WAT     H117384   1.062   4.078   9.172
 5714WAT     H217385   0.910   4.037   9.215
 5715WAT      O17386   1.570   7.102   6.542
 5715WAT     H117387   1.667   7.121   6.559
 5715WAT     H217388   1.521   7.097   6.630
 5716WAT      O17389   1.754   1.239   3.486
 5716WAT     H117390   1.799   1.263   3.399
 5716WAT     H217391   1.790   1.297   3.559
 5717WAT      O17392   7.905   2.542   5.911
 5717WAT     H117393   7.889   2.443   5.902
 5717WAT     H217394   7.827   2.585   5.956
 5718WAT      O17395   2.517   9.253   1.951
 5718WAT     H117396   2.574   9.210   2.022
 5718WAT     H217397   2.575   9.276   1.873
 5719WAT      O17398   1.220   3.955   5.771
 5719WAT     H117399   1.164   3.959   5.688
 5719WAT     H217400   1.317   3.966   5.747
 5720WAT      O17401   3.768   2.655   6.473
 5720WAT     H117402   3.692   2.671   6.409
 5720WAT     H217403   3.740   2.588   6.542
 5721WAT      O17404   9.306   0.749   6.005
 5721WAT     H117405   9.366   0.672   5.983
 5721WAT     H217406   9.333   0.828   5.949
 5722WAT      O17407   0.059   9.434   5.949
 5722WAT     H117408   0.012   9.475   6.027
 5722WAT     H217409   0.066   9.335   5.962
 5723WAT      O17410   4.796   5.792   1.533
 5723WAT     H117411   4.851   5.869   1.566
 5723WAT     H217412   4.800   5.717   1.599
 5724WAT      O17413   3.267   2.677   0.900
 5724WAT     H117414   3.187   2.658   0.843
 5724WAT     H217415   3.336   2.726   0.847
 5725WAT      O17416   6.950   0.307   3.486
 5725WAT     H117417   7.029   0.263   3.528
 5725WAT     H217418   6.972   0.403   3.467
 5726WAT      O17419   7.161   7.359   6.271
 5726WAT     H117420   7.102   7.302   6.327
 5726WAT     H217421   7.253   7.321   6.269
 5727WAT      O17422   9.562   8.337   6.188
 5727WAT     H117423   9.497   8.287   6.130
 5727WAT     H217424   9.647   8.284   6.196
 5728WAT      O17425   7.859   2.854   4.289
 5728WAT     H117426   7.794   2.930   4.277
 5728WAT     H217427   7.846   2.814   4.380
 5729WAT      O17428   6.209   7.114   4.909
 5729WAT     H117429   6.177   7.171   4.833
 5729WAT     H217430   6.234   7.172   4.986
 5730WAT      O17431   7.044   4.285   9.668
 5730WAT     H117432   7.014   4.356   9.732
 5730WAT     H217433   7.115   4.322   9.608
 5731WAT      O17434   3.860   8.531   8.922
 5731WAT     H117435   3.782   8.540   8.859
 5731WAT     H217436   3.827   8.507   9.013
 5732WAT      O17437   9.183   1.038   5.320
 5732WAT     H117438   9.140   0.967   5.376
 5732WAT     H217439   9.263   1.074   5.369
 5733WAT      O17440   1.322   8.087   0.723
 5733WAT     H117441   1.283   7.995   0.728
 5733WAT     H217442   1.271   8.148   0.783
 5734WAT      O17443   6.113   3.085   2.407
 5734WAT     H117444   6.134   3.176   2.373
 5734WAT     H217445   6.165   3.068   2.491
 5735WAT      O17446   9.072   4.904   6.132
 5735WAT     H117447   9.002   4.842   6.096
 5735WAT     H217448   9.161   4.859   6.128
 5736WAT      O17449   2.869   0.971   4.893
 5736WAT     H117450   2.909   1.061   4.912
 5736WAT     H217451   2.884   0.948   4.797
 5737WAT      O17452   7.311   0.636   1.861
 5737WAT     H117453   7.402   0.630   1.819
 5737WAT     H217454   7.291   0.551   1.910
 5738WAT      O17455   3.488   5.213   5.930
 5738WAT     H117456   3.545   5.139   5.894
 5738WAT     H217457   3.462   5.274   5.855
 5739WAT      O17458   9.672   9.187   5.671
 5739WAT     H117459   9.735   9.133   5.727
 5739WAT     H217460   9.584   9.193   5.718
 5740WAT      O17461   0.061   4.834   5.788
 5740WAT     H117462   0.076   4.929   5.760
 5740WAT     H217463   0.139   4.778   5.758
 5741WAT      O17464   5.279   7.612   2.950
 5741WAT     H117465   5.328   7.533   2.988
 5741WAT     H217466   5.198   7.631   3.006
 5742WAT      O17467   6.246   0.927   3.423
 5742WAT     H117468   6.232   0.935   3.324
 5742WAT     H217469   6.270   1.017   3.460
 5743WAT      O17470   8.073   1.634   8.061
 5743WAT     H117471   8.021   1.630   8.146
 5743WAT     H217472   8.028   1.698   7.998
 5744WAT      O17473   3.398   3.535   1.511
 5744WAT     H117474   3.378   3.576   1.422
 5744WAT     H217475   3.485   3.569   1.545
 5745WAT      O17476   1.718   6.179   2.072
 5745WAT     H117477   1.644   6.246   2.063
 5745WAT     H217478   1.728   6.129   1.985
 5746WAT      O17479   6.459   2.377   3.209
 5746WAT     H117480   6.452   2.448   3.138
 5746WAT     H217481   6.453   2.287   3.166
 5747WAT      O17482   3.810   9.098   7.137
 5747WAT     H117483   3.879   9.149   7.085
 5747WAT     H217484   3.824   9.115   7.235
 5748WAT      O17485   3.647   7.064   2.465
 5748WAT     H117486   3.675   7.005   2.389
 5748WAT     H217487   3.724   7.074   2.529
 5749WAT      O17488   9.735   2.930   3.851
 5749WAT     H117489   9.772   2.898   3.938
 5749WAT     H217490   9.727   3.029   3.852
 5750WAT      O17491   0.374   0.580   9.863
 5750WAT     H117492   0.311   0.606   9.936
 5750WAT     H217493   0.361   0.484   9.840
 5751WAT      O17494   1.605   2.733   0.538
 5751WAT     H117495   1.634   2.674   0.463
 5751WAT     H217496   1.666   2.813   0.543
 5752WAT      O17497   7.999   3.717   6.217
 5752WAT     H117498   8.061   3.795   6.224
 5752WAT     H217499   8.051   3.632   6.217
 5753WAT      O17500   6.490   4.128   6.998
 5753WAT     H117501   6.457   4.162   6.910
 5753WAT     H217502   6.449   4.039   7.017
 5754WAT      O17503   1.642   6.312   6.510
 5754WAT     H117504   1.604   6.225   6.480
 5754WAT     H217505   1.570   6.367   6.553
 5755WAT      O17506   6.297   5.139   4.675
 5755WAT     H117507   6.304   5.234   4.705
 5755WAT     H217508   6.269   5.137   4.579
 5756WAT      O17509   2.972   1.853   4.621
 5756WAT     H117510   3.061   1.863   4.577
 5756WAT     H217511   2.982   1.865   4.720
 5757WAT      O17512   0.664   5.742   5.239
 5757WAT     H117513   0.665   5.743   5.139
 5757WAT     H217514   0.749   5.699   5.272
 5758WAT      O17515   2.855   2.925   7.947
 5758WAT     H117516   2.826   3.020   7.953
 5758WAT     H217517   2.802   2.878   7.876
 5759WAT      O17518   0.062   9.806   4.295
 5759WAT     H117519   0.005   9.839   4.370
 5759WAT     H217520   0.028   9.844   4.209
 5760WAT      O17521   8.314   7.119   6.469
 5760WAT     H117522   8.269   7.064   6.399
 5760WAT     H217523   8.245   7.173   6.517
 5761WAT      O17524   6.047   8.094   5.054
 5761WAT     H117525   6.014   8.189   5.063
 5761WAT     H217526   6.096   8.084   4.968
 5762WAT      O17527   1.886   9.453   0.065
 5762WAT     H117528   1.897   9.505  -0.019
 5762WAT     H217529   1.908   9.510   0.144
 5763WAT      O17530   3.072   7.134   0.796
 5763WAT     H117531   3.157   7.122   0.745
 5763WAT     H217532   3.075   7.079   0.879
 5764WAT      O17533   3.995   2.859   2.926
 5764WAT     H117534   3.982   2.921   2.849
 5764WAT     H217535   3.942   2.892   3.005
 5765WAT      O17536   2.785   0.070   5.069
 5765WAT     H117537   2.783  -0.020   5.026
 5765WAT     H217538   2.880   0.097   5.085
 5766WAT      O17539   6.593   0.410   0.288
 5766WAT     H117540   6.602   0.429   0.190
 5766WAT     H217541   6.549   0.321   0.301
 5767WAT      O17542   8.909   1.132   5.566
 5767WAT     H117543   8.937   1.213   5.514
 5767WAT     H217544   8.942   1.050   5.519
 5768WAT      O17545   8.163   0.553   0.295
 5768WAT     H117546   8.113   0.481   0.247
 5768WAT     H217547   8.260   0.529   0.299
 5769WAT      O17548   3.363   8.516   9.663
 5769WAT     H117549   3.450   8.492   9.707
 5769WAT     H217550   3.382   8.566   9.579
 5770WAT      O17551   3.072   8.336   1.077
 5770WAT     H117552   3.104   8.430   1.063
 5770WAT     H217553   3.012   8.310   1.001
 5771WAT      O17554   7.350   3.327   0.123
 5771WAT     H117555   7.421   3.309   0.191
 5771WAT     H217556   7.358   3.421   0.091
 5772WAT      O17557   8.400   3.489   6.907
 5772WAT     H117558   8.430   3.403   6.866
 5772WAT     H217559   8.434   3.566   6.853
 5773WAT      O17560   8.209   8.065   1.376
 5773WAT     H117561   8.197   7.967   1.362
 5773WAT     H217562   8.160   8.093   1.458
 5774WAT      O17563   4.621   7.377   7.746
 5774WAT     H117564   4.642   7.298   7.804
 5774WAT     H217565   4.696   7.391   7.680
 5775WAT      O17566   0.143   7.300   8.886
 5775WAT     H117567   0.111   7.367   8.819
 5775WAT     H217568   0.128   7.208   8.850
 5776WAT      O17569   3.375   5.024   2.797
 5776WAT     H117570   3.457   5.019   2.855
 5776WAT     H217571   3.303   4.968   2.837
 5777WAT      O17572   1.763   7.393   2.618
 5777WAT     H117573   1.669   7.376   2.648
 5777WAT     H217574   1.801   7.469   2.670
 5778WAT      O17575   2.098   3.178   4.581
 5778WAT     H117576   2.037   3.217   4.651
 5778WAT     H217577   2.182   3.232   4.577
 5779WAT      O17578   8.961   1.823   4.044
 5779WAT     H117579   8.907   1.855   4.122
 5779WAT     H217580   8.952   1.724   4.037
 5780WAT      O17581   8.960   4.632   3.509
 5780WAT     H117582   8.955   4.557   3.575
 5780WAT     H217583   8.936   4.598   3.418
 5781WAT      O17584   1.334   2.671   9.303
 5781WAT     H117585   1.434   2.670   9.296
 5781WAT     H217586   1.300   2.763   9.283
 5782WAT      O17587   1.970   7.535   1.999
 5782WAT     H117588   1.928   7.623   1.979
 5782WAT     H217589   2.070   7.543   1.994
 5783WAT      O17590   4.199   8.547   7.443
 5783WAT     H117591   4.145   8.605   7.382
 5783WAT     H217592   4.208   8.456   7.403
 5784WAT      O17593   6.152   9.251   3.088
 5784WAT     H117594   6.116   9.175   3.142
 5784WAT     H217595   6.115   9.337   3.122
 5785WAT      O17596   3.690   7.544   5.962
 5785WAT     H117597   3.608   7.601   5.960
 5785WAT     H217598   3.761   7.585   5.906
 5786WAT      O17599   6.385   5.866   4.646
 5786WAT     H117600   6.372   5.947   4.589
 5786WAT     H217601   6.411   5.788   4.589
 5787WAT      O17602   7.320   6.717   7.708
 5787WAT     H117603   7.419   6.731   7.720
 5787WAT     H217604   7.296   6.732   7.612
 5788WAT      O17605   6.439   6.205   3.030
 5788WAT     H117606   6.447   6.106   3.016
 5788WAT     H217607   6.520   6.250   2.991
 5789WAT      O17608   5.011   8.737   1.730
 5789WAT     H117609   4.926   8.701   1.692
 5789WAT     H217610   5.082   8.737   1.659
 5790WAT      O17611   4.071   9.302   8.583
 5790WAT     H117612   4.124   9.293   8.667
 5790WAT     H217613   4.104   9.235   8.516
 5791WAT      O17614   3.204   2.324   8.634
 5791WAT     H117615   3.208   2.281   8.724
 5791WAT     H217616   3.258   2.271   8.569
 5792WAT      O17617   7.082   4.557   0.983
 5792WAT     H117618   7.003   4.617   0.998
 5792WAT     H217619   7.131   4.585   0.901
 5793WAT      O17620   6.683   1.304   7.396
 5793WAT     H117621   6.713   1.399   7.397
 5793WAT     H217622   6.759   1.245   7.425
 5794WAT      O17623   6.585   2.206   4.134
 5794WAT     H117624   6.668   2.261   4.138
 5794WAT     H217625   6.568   2.165   4.224
 5795WAT      O17626   6.849   7.749   7.103
 5795WAT     H117627   6.774   7.801   7.064
 5795WAT     H217628   6.851   7.657   7.062
 5796WAT      O17629   2.560   3.257   8.488
 5796WAT     H117630   2.562   3.265   8.587
 5796WAT     H217631   2.624   3.186   8.459
 5797WAT      O17632   1.369   6.730   3.872
 5797WAT     H117633   1.333   6.816   3.909
 5797WAT     H217634   1.410   6.677   3.946
 5798WAT      O17635   9.417   8.062   4.024
 5798WAT     H117636   9.464   8.099   4.105
 5798WAT     H217637   9.391   8.137   3.964
 5799WAT      O17638   4.134   8.807   4.811
 5799WAT     H117639   4.134   8.835   4.715
 5799WAT     H217640   4.199   8.863   4.862
 5800WAT      O17641   2.353   6.606   0.692
 5800WAT     H117642   2.418   6.543   0.652
 5800WAT     H217643   2.355   6.598   0.792
 5801WAT      O17644   4.561   4.129   0.332
 5801WAT     H117645   4.534   4.225   0.333
 5801WAT     H217646   4.657   4.121   0.358
 5802WAT      O17647   5.992   5.295   0.448
 5802WAT     H117648   5.947   5.236   0.382
 5802WAT     H217649   6.043   5.366   0.400
 5803WAT      O17650   6.422   3.890   8.788
 5803WAT     H117651   6.355   3.817   8.777
 5803WAT     H217652   6.375   3.977   8.807
 5804WAT      O17653   9.423   3.868   9.615
 5804WAT     H117654   9.446   3.886   9.519
 5804WAT     H217655   9.324   3.871   9.627
 5805WAT      O17656   3.891   0.541   5.387
 5805WAT     H117657   3.898   0.443   5.368
 5805WAT     H217658   3.798   0.562   5.418
 5806WAT      O17659   4.596   7.282   5.099
 5806WAT     H117660   4.642   7.371   5.104
 5806WAT     H217661   4.627   7.225   5.176
 5807WAT      O17662   8.701   9.364   8.476
 5807WAT     H117663   8.763   9.289   8.455
 5807WAT     H217664   8.675   9.411   8.391
 5808WAT      O17665   9.322   3.602   1.410
 5808WAT     H117666   9.344   3.515   1.368
 5808WAT     H217667   9.268   3.587   1.493
 5809WAT      O17668   5.234   4.854   3.660
 5809WAT     H117669   5.195   4.910   3.733
 5809WAT     H217670   5.165   4.787   3.630
 5810WAT      O17671   5.554   6.168   1.854
 5810WAT     H117672   5.486   6.109   1.810
 5810WAT     H217673   5.515   6.206   1.938
 5811WAT      O17674   0.609   4.575   6.594
 5811WAT     H117675   0.620   4.671   6.619
 5811WAT     H217676   0.600   4.521   6.678
 5812WAT      O17677   1.763   5.575   4.915
 5812WAT     H117678   1.715   5.656   4.881
 5812WAT     H217679   1.697   5.512   4.955
 5813WAT      O17680   6.704   8.039   3.048
 5813WAT     H117681   6.693   7.948   3.086
 5813WAT     H217682   6.626   8.062   2.991
 5814WAT      O17683   0.925   1.109   1.772
 5814WAT     H117684   1.022   1.086   1.769
 5814WAT     H217685   0.914   1.208   1.773
 5815WAT      O17686   8.594   3.325   0.152
 5815WAT     H117687   8.503   3.292   0.175
 5815WAT     H217688   8.652   3.249   0.125
 5816WAT      O17689   6.407   6.206   3.309
 5816WAT     H117690   6.347   6.131   3.341
 5816WAT     H217691   6.399   6.214   3.210
 5817WAT      O17692   6.767   1.471   1.771
 5817WAT     H117693   6.795   1.502   1.862
 5817WAT     H217694   6.770   1.371   1.768
 5818WAT      O17695   7.850   0.432   1.584
 5818WAT     H117696   7.895   0.345   1.561
 5818WAT     H217697   7.846   0.442   1.683
 5819WAT      O17698   6.337   0.282   2.181
 5819WAT     H117699   6.257   0.234   2.144
 5819WAT     H217700   6.323   0.381   2.172
 5820WAT      O17701   4.586   2.034   4.101
 5820WAT     H117702   4.499   2.007   4.061
 5820WAT     H217703   4.648   2.064   4.029
 5821WAT      O17704   0.096   1.984   3.850
 5821WAT     H117705   0.009   1.951   3.813
 5821WAT     H217706   0.114   1.939   3.938
 5822WAT      O17707   5.018   8.543   5.936
 5822WAT     H117708   5.088   8.598   5.983
 5822WAT     H217709   5.033   8.446   5.956
 5823WAT      O17710   0.503   0.825   0.784
 5823WAT     H117711   0.483   0.842   0.688
 5823WAT     H217712   0.432   0.867   0.841
 5824WAT      O17713   2.118   0.215   8.937
 5824WAT     H117714   2.087   0.187   8.846
 5824WAT     H217715   2.218   0.214   8.940
 5825WAT      O17716   6.621   9.486   3.727
 5825WAT     H117717   6.568   9.426   3.787
 5825WAT     H217718   6.663   9.431   3.654
 5826WAT      O17719   6.196   0.235   0.013
 5826WAT     H117720   6.265   0.181  -0.036
 5826WAT     H217721   6.129   0.270  -0.053
 5827WAT      O17722   0.151   7.060   8.768
 5827WAT     H117723   0.206   7.112   8.702
 5827WAT     H217724   0.095   6.993   8.719
 5828WAT      O17725   2.967   6.811   0.075
 5828WAT     H117726   2.913   6.728   0.060
 5828WAT     H217727   3.009   6.807   0.165
 5829WAT      O17728   4.686   2.143   0.648
 5829WAT     H117729   4.637   2.170   0.565
 5829WAT     H217730   4.726   2.225   0.690
 5830WAT      O17731   0.274   7.365   4.378
 5830WAT     H117732   0.282   7.370   4.477
 5830WAT     H217733   0.180   7.384   4.351
 5831WAT      O17734   1.875   7.100   7.496
 5831WAT     H117735   1.927   7.135   7.417
 5831WAT     H217736   1.798   7.161   7.514
 5832WAT      O17737   1.826   3.754   9.493
 5832WAT     H117738   1.875   3.676   9.454
 5832WAT     H217739   1.876   3.791   9.571
 5833WAT      O17740   1.122   6.193   3.076
 5833WAT     H117741   1.192   6.236   3.018
 5833WAT     H217742   1.138   6.094   3.078
 5834WAT      O17743   4.327   8.963   5.828
 5834WAT     H117744   4.346   9.061   5.821
 5834WAT     H217745   4.406   8.916   5.866
 5835WAT      O17746   2.600   4.942   1.092
 5835WAT     H117747   2.553   4.859   1.062
 5835WAT     H217748   2.535   5.018   1.091
 5836WAT      O17749   0.530   6.112   9.206
 5836WAT     H117750   0.588   6.173   9.259
 5836WAT     H217751   0.563   6.018   9.214
 5837WAT      O17752   3.986   1.348   6.188
 5837WAT     H117753   3.936   1.424   6.231
 5837WAT     H217754   4.030   1.379   6.105
 5838WAT      O17755   9.820   0.912   2.912
 5838WAT     H117756   9.810   0.821   2.870
 5838WAT     H217757   9.804   0.905   3.010
 5839WAT      O17758   1.546   0.452   0.734
 5839WAT     H117759   1.582   0.446   0.640
 5839WAT     H217760   1.512   0.544   0.751
 5840WAT      O17761   7.837   3.492   4.278
 5840WAT     H117762   7.906   3.423   4.302
 5840WAT     H217763   7.774   3.504   4.354
 5841WAT      O17764   2.819   0.236   9.876
 5841WAT     H117765   2.917   0.222   9.878
 5841WAT     H217766   2.799   0.334   9.881
 5842WAT      O17767   0.625   1.140   1.007
 5842WAT     H117768   0.709   1.174   1.048
 5842WAT     H217769   0.637   1.044   0.981
 5843WAT      O17770   7.346   8.132   4.084
 5843WAT     H117771   7.355   8.052   4.144
 5843WAT     H217772   7.250   8.150   4.066
 5844WAT      O17773   7.704   5.740   5.944
 5844WAT     H117774   7.734   5.691   6.027
 5844WAT     H217775   7.744   5.695   5.864
 5845WAT      O17776   2.003   0.507   6.492
 5845WAT     H117777   1.962   0.596   6.511
 5845WAT     H217778   1.972   0.474   6.404
 5846WAT      O17779   6.036   4.129   8.810
 5846WAT     H117780   6.004   4.086   8.726
 5846WAT     H217781   6.029   4.064   8.886
 5847WAT      O17782   2.612   6.059   3.517
 5847WAT     H117783   2.687   6.086   3.578
 5847WAT     H217784   2.631   6.091   3.425
 5848WAT      O17785   8.531   3.751   1.830
 5848WAT     H117786   8.551   3.803   1.913
 5848WAT     H217787   8.557   3.655   1.844
 5849WAT      O17788   2.538   6.428   4.514
 5849WAT     H117789   2.531   6.478   4.600
 5849WAT     H217790   2.464   6.456   4.453
 5850WAT      O17791   8.663   7.379   2.161
 5850WAT     H117792   8.695   7.294   2.202
 5850WAT     H217793   8.660   7.451   2.230
 5851WAT      O17794   2.910   4.170   2.162
 5851WAT     H117795   2.876   4.185   2.070
 5851WAT     H217796   3.010   4.171   2.161
 5852WAT      O17797   0.735   9.048   2.626
 5852WAT     H117798   0.770   9.138   2.602
 5852WAT     H217799   0.696   9.004   2.545
 5853WAT      O17800   0.033   6.524   4.308
 5853WAT     H117801   0.119   6.497   4.265
 5853WAT     H217802  -0.027   6.444   4.316
 5854WAT      O17803   7.950   7.731   7.498
 5854WAT     H117804   7.851   7.722   7.490
 5854WAT     H217805   7.984   7.663   7.564
 5855WAT      O17806   9.434   9.394   0.280
 5855WAT     H117807   9.424   9.313   0.222
 5855WAT     H217808   9.460   9.472   0.223
 5856WAT      O17809   0.333   6.662   8.966
 5856WAT     H117810   0.269   6.731   9.001
 5856WAT     H217811   0.425   6.683   8.999
 5857WAT      O17812   5.655   0.546   2.498
 5857WAT     H117813   5.589   0.563   2.425
 5857WAT     H217814   5.611   0.555   2.587
 5858WAT      O17815   6.682   4.728   5.386
 5858WAT     H117816   6.663   4.826   5.400
 5858WAT     H217817   6.762   4.702   5.439
 5859WAT      O17818   8.675   6.389   5.193
 5859WAT     H117819   8.655   6.478   5.234
 5859WAT     H217820   8.686   6.321   5.264
 5860WAT      O17821   8.790   5.319   5.656
 5860WAT     H117822   8.735   5.255   5.710
 5860WAT     H217823   8.817   5.275   5.571
 5861WAT      O17824   0.876   4.179   0.632
 5861WAT     H117825   0.821   4.130   0.700
 5861WAT     H217826   0.835   4.269   0.615
 5862WAT      O17827   1.713   3.462   2.586
 5862WAT     H117828   1.729   3.393   2.657
 5862WAT     H217829   1.615   3.473   2.570
 5863WAT      O17830   8.318   7.637   5.423
 5863WAT     H117831   8.310   7.707   5.352
 5863WAT     H217832   8.378   7.564   5.390
 5864WAT      O17833   3.246   5.897   1.596
 5864WAT     H117834   3.175   5.965   1.579
 5864WAT     H217835   3.228   5.849   1.681
 5865WAT      O17836   8.748   7.745   3.293
 5865WAT     H117837   8.794   7.827   3.259
 5865WAT     H217838   8.701   7.767   3.378
 5866WAT      O17839   4.337   0.727   0.258
 5866WAT     H117840   4.331   0.667   0.179
 5866WAT     H217841   4.248   0.772   0.273
 5867WAT      O17842   2.216   8.008   2.219
 5867WAT     H117843   2.311   8.010   2.249
 5867WAT     H217844   2.170   7.929   2.259
 5868WAT      O17845   9.091   8.786   6.953
 5868WAT     H117846   9.002   8.746   6.927
 5868WAT     H217847   9.162   8.716   6.944
 5869WAT      O17848   8.633   7.998   1.522
 5869WAT     H117849   8.583   7.995   1.436
 5869WAT     H217850   8.567   7.992   1.598
 5870WAT      O17851   5.342   2.953   4.446
 5870WAT     H117852   5.403   2.934   4.370
 5870WAT     H217853   5.350   2.882   4.515
 5871WAT      O17854   5.946   0.236   5.049
 5871WAT     H117855   5.954   0.137   5.061
 5871WAT     H217856   5.899   0.275   5.128
 5872WAT      O17857   5.330   5.178   3.369
 5872WAT     H117858   5.323   5.161   3.468
 5872WAT     H217859   5.361   5.095   3.323
 5873WAT      O17860   8.773   6.407   1.103
 5873WAT     H117861   8.810   6.398   1.011
 5873WAT     H217862   8.794   6.497   1.139
 5874WAT      O17863   4.378   5.749   3.210
 5874WAT     H117864   4.466   5.747   3.163
 5874WAT     H217865   4.379   5.820   3.281
 5875WAT      O17866   3.448   6.710   2.645
 5875WAT     H117867   3.488   6.706   2.737
 5875WAT     H217868   3.391   6.791   2.637
 5876WAT      O17869   2.630   1.456   5.450
 5876WAT     H117870   2.678   1.454   5.538
 5876WAT     H217871   2.562   1.529   5.451
 5877WAT      O17872   8.783   7.747   8.271
 5877WAT     H117873   8.838   7.808   8.215
 5877WAT     H217874   8.834   7.720   8.352
 5878WAT      O17875   2.770   0.912   6.219
 5878WAT     H117876   2.684   0.925   6.169
 5878WAT     H217877   2.778   0.817   6.247
 5879WAT      O17878   3.826   4.224   8.163
 5879WAT     H117879   3.881   4.270   8.094
 5879WAT     H217880   3.797   4.134   8.128
 5880WAT      O17881   0.544   2.751   1.638
 5880WAT     H117882   0.592   2.804   1.707
 5880WAT     H217883   0.531   2.806   1.556
 5881WAT      O17884   8.709   8.700   6.302
 5881WAT     H117885   8.679   8.748   6.219
 5881WAT     H217886   8.633   8.697   6.367
 5882WAT      O17887   7.879   3.183   1.144
 5882WAT     H117888   7.866   3.090   1.179
 5882WAT     H217889   7.843   3.189   1.051
 5883WAT      O17890   7.225   0.663   5.424
 5883WAT     H117891   7.132   0.632   5.402
 5883WAT     H217892   7.274   0.591   5.472
 5884WAT      O17893   6.002   6.091   8.962
 5884WAT     H117894   6.081   6.039   8.996
 5884WAT     H217895   5.962   6.043   8.884
 5885WAT      O17896   2.261   8.557   4.684
 5885WAT     H117897   2.286   8.463   4.705
 5885WAT     H217898   2.336   8.618   4.711
 5886WAT      O17899   1.513   0.036   3.898
 5886WAT     H117900   1.439  -0.030   3.901
 5886WAT     H217901   1.590  -0.001   3.846
 5887WAT      O17902   2.933   9.611   8.719
 5887WAT     H117903   2.987   9.689   8.752
 5887WAT     H217904   2.935   9.609   8.619
 5888WAT      O17905   4.684   1.713   8.216
 5888WAT     H117906   4.717   1.692   8.124
 5888WAT     H217907   4.642   1.631   8.255
 5889WAT      O17908   6.799   3.858   9.633
 5889WAT     H117909   6.804   3.857   9.733
 5889WAT     H217910   6.850   3.936   9.597
 5890WAT      O17911   2.189   9.232   4.371
 5890WAT     H117912   2.217   9.328   4.377
 5890WAT     H217913   2.269   9.174   4.387
 5891WAT      O17914   1.152   9.732   9.266
 5891WAT     H117915   1.141   9.829   9.242
 5891WAT     H217916   1.074   9.701   9.319
 5892WAT      O17917   3.873   2.564   7.687
 5892WAT     H117918   3.847   2.478   7.733
 5892WAT     H217919   3.883   2.636   7.755
 5893WAT      O17920   1.585   5.681   7.286
 5893WAT     H117921   1.574   5.612   7.214
 5893WAT     H217922   1.518   5.664   7.358
 5894WAT      O17923   3.820   4.684   8.596
 5894WAT     H117924   3.918   4.668   8.594
 5894WAT     H217925   3.776   4.630   8.524
 5895WAT      O17926   6.328   2.406   8.751
 5895WAT     H117927   6.371   2.349   8.821
 5895WAT     H217928   6.229   2.410   8.768
 5896WAT      O17929   2.168   2.365   4.044
 5896WAT     H117930   2.157   2.378   4.143
 5896WAT     H217931   2.265   2.356   4.022
 5897WAT      O17932   9.319   2.190   2.438
 5897WAT     H117933   9.318   2.288   2.418
 5897WAT     H217934   9.297   2.175   2.534
 5898WAT      O17935   7.326   4.893   3.229
 5898WAT     H117936   7.239   4.844   3.225
 5898WAT     H217937   7.309   4.991   3.220
 5899WAT      O17938   1.355   6.203   9.707
 5899WAT     H117939   1.385   6.108   9.709
 5899WAT     H217940   1.435   6.263   9.703
 5900WAT      O17941   9.062   5.303   9.520
 5900WAT     H117942   8.994   5.308   9.447
 5900WAT     H217943   9.095   5.394   9.542
 5901WAT      O17944   0.314   5.434   5.164
 5901WAT     H117945   0.336   5.347   5.120
 5901WAT     H217946   0.378   5.450   5.240
 5902WAT      O17947   8.465   1.734   5.858
 5902WAT     H117948   8.429   1.813   5.908
 5902WAT     H217949   8.500   1.667   5.923
 5903WAT      O17950   2.343   4.328   0.337
 5903WAT     H117951   2.406   4.250   0.335
 5903WAT     H217952   2.333   4.364   0.244
 5904WAT      O17953   2.011   4.715   5.009
 5904WAT     H117954   2.097   4.696   5.055
 5904WAT     H217955   1.937   4.665   5.054
 5905WAT      O17956   3.450   9.438   9.275
 5905WAT     H117957   3.423   9.369   9.341
 5905WAT     H217958   3.477   9.394   9.189
 5906WAT      O17959   8.824   1.542   0.758
 5906WAT     H117960   8.786   1.506   0.843
 5906WAT     H217961   8.922   1.521   0.754
 5907WAT      O17962   0.583   6.425   3.315
 5907WAT     H117963   0.535   6.512   3.322
 5907WAT     H217964   0.653   6.431   3.243
 5908WAT      O17965   6.428   5.185   0.996
 5908WAT     H117966   6.496   5.178   0.923
 5908WAT     H217967   6.450   5.263   1.055
 5909WAT      O17968   4.371   5.746   2.820
 5909WAT     H117969   4.345   5.819   2.884
 5909WAT     H217970   4.378   5.660   2.870
 5910WAT      O17971   3.452   9.069   7.791
 5910WAT     H117972   3.413   8.977   7.790
 5910WAT     H217973   3.529   9.074   7.728
 5911WAT      O17974   9.362   7.858   4.480
 5911WAT     H117975   9.299   7.846   4.403
 5911WAT     H217976   9.349   7.783   4.545
 5912WAT      O17977   7.124   0.111   2.471
 5912WAT     H117978   7.201   0.160   2.429
 5912WAT     H217979   7.157   0.060   2.550
 5913WAT      O17980   9.257   4.371   4.773
 5913WAT     H117981   9.270   4.281   4.815
 5913WAT     H217982   9.313   4.377   4.690
 5914WAT      O17983   1.436   1.634   2.458
 5914WAT     H117984   1.432   1.540   2.424
 5914WAT     H217985   1.371   1.646   2.533
 5915WAT      O17986   5.819   9.347   8.139
 5915WAT     H117987   5.853   9.277   8.076
 5915WAT     H217988   5.837   9.437   8.101
 5916WAT      O17989   7.055   6.392   3.343
 5916WAT     H117990   7.120   6.404   3.418
 5916WAT     H217991   7.098   6.418   3.257
 5917WAT      O17992   7.979   4.886   8.206
 5917WAT     H117993   7.952   4.871   8.302
 5917WAT     H217994   7.921   4.830   8.147
 5918WAT      O17995   3.422   5.144   1.036
 5918WAT     H117996   3.493   5.163   1.104
 5918WAT     H217997   3.453   5.069   0.977
 5919WAT      O17998   1.065   4.786   6.157
 5919WAT     H117999   1.048   4.822   6.065
 5919WAT     H218000   1.163   4.770   6.169
 5920WAT      O18001   0.029   8.547   7.319
 5920WAT     H118002   0.005   8.505   7.232
 5920WAT     H218003   0.128   8.539   7.334
 5921WAT      O18004   0.703   8.289   5.858
 5921WAT     H118005   0.762   8.208   5.856
 5921WAT     H218006   0.719   8.340   5.943
 5922WAT      O18007   3.700   6.475   2.903
 5922WAT     H118008   3.648   6.561   2.909
 5922WAT     H218009   3.663   6.420   2.828
 5923WAT      O18010   9.638   8.099   3.029
 5923WAT     H118011   9.546   8.118   2.994
 5923WAT     H218012   9.673   8.180   3.075
 5924WAT      O18013   3.031   0.701   3.765
 5924WAT     H118014   3.078   0.684   3.852
 5924WAT     H218015   2.934   0.678   3.775
 5925WAT      O18016   0.973   1.960   8.898
 5925WAT     H118017   0.919   1.964   8.983
 5925WAT     H218018   0.973   2.050   8.855
 5926WAT      O18019   3.172   3.069   7.395
 5926WAT     H118020   3.240   3.141   7.390
 5926WAT     H218021   3.092   3.094   7.340
 5927WAT      O18022   2.015   5.387   8.799
 5927WAT     H118023   1.949   5.445   8.846
 5927WAT     H218024   2.016   5.411   8.701
 5928WAT      O18025   8.746   1.896   7.015
 5928WAT     H118026   8.656   1.938   7.010
 5928WAT     H218027   8.738   1.804   7.053
 5929WAT      O18028   8.659   4.561   8.337
 5929WAT     H118029   8.754   4.549   8.367
 5929WAT     H218030   8.647   4.653   8.300
 5930WAT      O18031   4.567   5.886   7.446
 5930WAT     H118032   4.557   5.928   7.536
 5930WAT     H218033   4.487   5.829   7.426
 5931WAT      O18034   0.407   5.908   3.727
 5931WAT     H118035   0.406   5.809   3.741
 5931WAT     H218036   0.379   5.929   3.634
 5932WAT      O18037   7.123   0.225   6.015
 5932WAT     H118038   7.175   0.290   5.958
 5932WAT     H218039   7.042   0.271   6.051
 5933WAT      O18040   2.019   1.192   2.440
 5933WAT     H118041   2.092   1.151   2.385
 5933WAT     H218042   1.973   1.120   2.492
 5934WAT      O18043   4.152   2.315   2.768
 5934WAT     H118044   4.242   2.281   2.743
 5934WAT     H218045   4.092   2.313   2.689
 5935WAT      O18046   4.854   7.763   1.016
 5935WAT     H118047   4.828   7.671   1.045
 5935WAT     H218048   4.772   7.813   0.987
 5936WAT      O18049   0.926   2.057   2.329
 5936WAT     H118050   0.956   2.152   2.320
 5936WAT     H218051   0.830   2.054   2.357
 5937WAT      O18052   0.921   6.912   8.033
 5937WAT     H118053   0.977   6.908   8.115
 5937WAT     H218054   0.850   6.981   8.043
 5938WAT      O18055   5.192   3.361   9.110
 5938WAT     H118056   5.203   3.335   9.014
 5938WAT     H218057   5.105   3.410   9.122
 5939WAT      O18058   8.607   4.403   4.394
 5939WAT     H118059   8.557   4.425   4.310
 5939WAT     H218060   8.696   4.449   4.392
 5940WAT      O18061   6.566   9.131   7.333
 5940WAT     H118062   6.657   9.170   7.336
 5940WAT     H218063   6.534   9.111   7.425
 5941WAT      O18064   7.739   7.066   6.738
 5941WAT     H118065   7.792   7.106   6.663
 5941WAT     H218066   7.724   7.134   6.809
 5942WAT      O18067   7.751   1.616   2.177
 5942WAT     H118068   7.735   1.518   2.190
 5942WAT     H218069   7.774   1.657   2.265
 5943WAT      O18070   8.043   0.401   7.904
 5943WAT     H118071   7.972   0.331   7.898
 5943WAT     H218072   8.116   0.380   7.839
 5944WAT      O18073   2.512   2.519   3.356
 5944WAT     H118074   2.433   2.581   3.364
 5944WAT     H218075   2.546   2.497   3.447
 5945WAT      O18076   3.340   5.911   8.517
 5945WAT     H118077   3.422   5.911   8.574
 5945WAT     H218078   3.363   5.936   8.424
 5946WAT      O18079   7.425   9.339   6.884
 5946WAT     H118080   7.498   9.361   6.820
 5946WAT     H218081   7.338   9.370   6.846
 5947WAT      O18082   5.747   9.076   4.451
 5947WAT     H118083   5.675   9.022   4.408
 5947WAT     H218084   5.722   9.173   4.451
 5948WAT      O18085   3.432   0.462   5.426
 5948WAT     H118086   3.427   0.470   5.526
 5948WAT     H218087   3.351   0.504   5.386
 5949WAT      O18088   3.552   5.293   6.491
 5949WAT     H118089   3.500   5.359   6.436
 5949WAT     H218090   3.493   5.256   6.563
 5950WAT      O18091   2.339   9.153   3.219
 5950WAT     H118092   2.410   9.154   3.149
 5950WAT     H218093   2.261   9.207   3.188
 5951WAT      O18094   5.948   8.052   2.814
 5951WAT     H118095   6.027   8.059   2.876
 5951WAT     H218096   5.912   7.959   2.817
 5952WAT      O18097   6.743   9.657   9.856
 5952WAT     H118098   6.684   9.734   9.829
 5952WAT     H218099   6.769   9.605   9.775
 5953WAT      O18100   0.799   2.363   8.429
 5953WAT     H118101   0.740   2.436   8.463
 5953WAT     H218102   0.751   2.311   8.359
 5954WAT      O18103   0.041   4.144   2.089
 5954WAT     H118104   0.102   4.219   2.113
 5954WAT     H218105   0.009   4.157   1.995
 5955WAT      O18106   2.252   5.694   8.076
 5955WAT     H118107   2.236   5.612   8.020
 5955WAT     H218108   2.218   5.678   8.169
 5956WAT      O18109   7.226   7.725   2.397
 5956WAT     H118110   7.282   7.767   2.468
 5956WAT     H218111   7.205   7.792   2.326
 5957WAT      O18112   4.893   5.089   4.310
 5957WAT     H118113   4.931   5.041   4.230
 5957WAT     H218114   4.805   5.129   4.285
 5958WAT      O18115   3.982   3.147   9.879
 5958WAT     H118116   3.898   3.188   9.913
 5958WAT     H218117   3.982   3.148   9.779
 5959WAT      O18118   4.919   2.992   5.485
 5959WAT     H118119   4.856   3.002   5.562
 5959WAT     H218120   4.980   3.071   5.481
 5960WAT      O18121   8.656   4.411   9.836
 5960WAT     H118122   8.703   4.402   9.748
 5960WAT     H218123   8.588   4.339   9.845
 5961WAT      O18124   8.334   3.326   4.021
 5961WAT     H118125   8.345   3.254   3.951
 5961WAT     H218126   8.424   3.359   4.049
 5962WAT      O18127   2.886   6.782   9.409
 5962WAT     H118128   2.823   6.769   9.332
 5962WAT     H218129   2.840   6.757   9.494
 5963WAT      O18130   6.111   0.123   2.088
 5963WAT     H118131   6.142   0.046   2.143
 5963WAT     H218132   6.128   0.105   1.991
 5964WAT      O18133   8.794   0.689   1.976
 5964WAT     H118134   8.710   0.676   2.028
 5964WAT     H218135   8.781   0.763   1.909
 5965WAT      O18136   9.628   9.241   9.254
 5965WAT     H118137   9.709   9.203   9.209
 5965WAT     H218138   9.606   9.330   9.214
 5966WAT      O18139   4.228   6.055   4.851
 5966WAT     H118140   4.133   6.034   4.829
 5966WAT     H218141   4.283   5.972   4.845
 5967WAT      O18142   7.168   8.367   4.336
 5967WAT     H118143   7.109   8.288   4.318
 5967WAT     H218144   7.139   8.444   4.279
 5968WAT      O18145   7.716   8.626   6.927
 5968WAT     H118146   7.752   8.654   7.016
 5968WAT     H218147   7.690   8.530   6.930
 5969WAT      O18148   9.087   4.875   2.452
 5969WAT     H118149   9.085   4.778   2.430
 5969WAT     H218150   9.000   4.901   2.494
 5970WAT      O18151   1.106   3.649   3.954
 5970WAT     H118152   1.198   3.612   3.940
 5970WAT     H218153   1.112   3.749   3.963
 5971WAT      O18154   5.491   6.225   4.093
 5971WAT     H118155   5.406   6.196   4.137
 5971WAT     H218156   5.484   6.212   3.994
 5972WAT      O18157   2.886   8.987   0.947
 5972WAT     H118158   2.913   8.942   1.032
 5972WAT     H218159   2.840   9.073   0.968
 5973WAT      O18160   8.783   5.234   2.457
 5973WAT     H118161   8.792   5.141   2.421
 5973WAT     H218162   8.872   5.281   2.451
 5974WAT      O18163   0.260   4.555   0.223
 5974WAT     H118164   0.170   4.589   0.249
 5974WAT     H218165   0.275   4.571   0.125
 5975WAT      O18166   0.619   5.347   8.966
 5975WAT     H118167   0.710   5.311   8.946
 5975WAT     H218168   0.627   5.432   9.016
 5976WAT      O18169   8.536   6.911   8.486
 5976WAT     H118170   8.610   6.845   8.470
 5976WAT     H218171   8.448   6.865   8.475
 5977WAT      O18172   1.693   1.667   8.845
 5977WAT     H118173   1.778   1.693   8.800
 5977WAT     H218174   1.691   1.568   8.860
 5978WAT      O18175   7.292   6.392   2.477
 5978WAT     H118176   7.226   6.331   2.433
 5978WAT     H218177   7.379   6.344   2.489
 5979WAT      O18178   0.280   8.154   5.801
 5979WAT     H118179   0.341   8.075   5.797
 5979WAT     H218180   0.190   8.130   5.764
 5980WAT      O18181   4.293   4.645   1.999
 5980WAT     H118182   4.195   4.627   1.995
 5980WAT     H218183   4.336   4.614   1.914
 5981WAT      O18184   9.642   0.449   3.965
 5981WAT     H118185   9.663   0.542   3.994
 5981WAT     H218186   9.595   0.401   4.039
 5982WAT      O18187   7.728   8.925   6.013
 5982WAT     H118188   7.686   8.835   6.028
 5982WAT     H218189   7.690   8.966   5.930
 5983WAT      O18190   0.815   2.290   5.371
 5983WAT     H118191   0.751   2.350   5.323
 5983WAT     H218192   0.893   2.343   5.402
 5984WAT      O18193   3.354   5.922   6.843
 5984WAT     H118194   3.269   5.971   6.827
 5984WAT     H218195   3.339   5.823   6.834
 5985WAT      O18196   0.986   0.756   1.960
 5985WAT     H118197   1.029   0.768   1.871
 5985WAT     H218198   0.983   0.845   2.007
 5986WAT      O18199   0.557   0.184   8.016
 5986WAT     H118200   0.655   0.198   8.027
 5986WAT     H218201   0.526   0.235   7.935
 5987WAT      O18202   1.919   2.435   3.007
 5987WAT     H118203   1.848   2.487   3.053
 5987WAT     H218204   1.930   2.346   3.050
 5988WAT      O18205   4.098   3.880   4.630
 5988WAT     H118206   4.161   3.928   4.569
 5988WAT     H218207   4.077   3.938   4.709
 5989WAT      O18208   4.090   7.547   9.716
 5989WAT     H118209   4.134   7.611   9.780
 5989WAT     H218210   4.008   7.509   9.759
 5990WAT      O18211   4.693   7.589   4.214
 5990WAT     H118212   4.689   7.629   4.122
 5990WAT     H218213   4.618   7.626   4.269
 5991WAT      O18214   3.588   4.144   8.369
 5991WAT     H118215   3.541   4.227   8.398
 5991WAT     H218216   3.651   4.165   8.295
 5992WAT      O18217   9.083   1.756   2.361
 5992WAT     H118218   9.118   1.670   2.397
 5992WAT     H218219   9.103   1.830   2.425
 5993WAT      O18220   4.667   3.819   9.014
 5993WAT     H118221   4.661   3.915   9.038
 5993WAT     H218222   4.643   3.763   9.093
 5994WAT      O18223   8.193   5.953   3.851
 5994WAT     H118224   8.134   5.884   3.811
 5994WAT     H218225   8.173   6.042   3.809
 5995WAT      O18226   1.413   0.537   5.535
 5995WAT     H118227   1.484   0.577   5.592
 5995WAT     H218228   1.446   0.525   5.442
 5996WAT      O18229   4.229   4.940   1.281
 5996WAT     H118230   4.193   5.032   1.297
 5996WAT     H218231   4.292   4.915   1.354
 5997WAT      O18232   2.904   6.306   5.300
 5997WAT     H118233   2.983   6.247   5.310
 5997WAT     H218234   2.909   6.380   5.367
 5998WAT      O18235   5.520   3.894   1.069
 5998WAT     H118236   5.573   3.907   1.154
 5998WAT     H218237   5.473   3.806   1.073
 5999WAT      O18238   6.973   5.698   4.386
 5999WAT     H118239   7.030   5.635   4.333
 5999WAT     H218240   6.905   5.646   4.437
 6000WAT      O18241   3.637   3.154   2.850
 6000WAT     H118242   3.679   3.216   2.915
 6000WAT     H218243   3.573   3.094   2.898
 6001WAT      O18244   1.547   1.824   0.521
 6001WAT     H118245   1.638   1.830   0.562
 6001WAT     H218246   1.527   1.908   0.471
 6002WAT      O18247   0.818   7.861   6.845
 6002WAT     H118248   0.765   7.906   6.917
 6002WAT     H218249   0.801   7.763   6.846
 6003WAT      O18250   2.769   2.042   9.270
 6003WAT     H118251   2.863   2.070   9.250
 6003WAT     H218252   2.714   2.047   9.187
 6004WAT      O18253   0.417   4.188   8.812
 6004WAT     H118254   0.480   4.241   8.869
 6004WAT     H218255   0.365   4.249   8.753
 6005WAT      O18256   9.719   8.846   9.840
 6005WAT     H118257   9.691   8.916   9.906
 6005WAT     H218258   9.706   8.880   9.747
 6006WAT      O18259   7.423   7.013   8.501
 6006WAT     H118260   7.387   7.105   8.513
 6006WAT     H218261   7.379   6.951   8.567
 6007WAT      O18262   7.382   7.921   7.263
 6007WAT     H118263   7.380   8.020   7.279
 6007WAT     H218264   7.298   7.893   7.215
 6008WAT      O18265   3.681   8.658   1.159
 6008WAT     H118266   3.695   8.726   1.087
 6008WAT     H218267   3.655   8.704   1.243
 6009WAT      O18268   5.003   4.705   3.330
 6009WAT     H118269   4.986   4.652   3.247
 6009WAT     H218270   4.917   4.721   3.377
 6010WAT      O18271   6.714   3.601   9.560
 6010WAT     H118272   6.660   3.541   9.620
 6010WAT     H218273   6.715   3.693   9.598
 6011WAT      O18274   9.475   5.407   1.337
 6011WAT     H118275   9.543   5.421   1.409
 6011WAT     H218276   9.421   5.490   1.326
 6012WAT      O18277   3.850   4.938   8.289
 6012WAT     H118278   3.932   4.904   8.335
 6012WAT     H218279   3.861   4.930   8.190
 6013WAT      O18280   5.602   3.940   6.348
 6013WAT     H118281   5.531   3.952   6.418
 6013WAT     H218282   5.648   3.852   6.361
 6014WAT      O18283   1.864   8.572   2.898
 6014WAT     H118284   1.859   8.671   2.885
 6014WAT     H218285   1.933   8.535   2.836
 6015WAT      O18286   9.601   7.210   4.315
 6015WAT     H118287   9.668   7.161   4.371
 6015WAT     H218288   9.604   7.307   4.336
 6016WAT      O18289   8.720   6.971   1.141
 6016WAT     H118290   8.692   6.966   1.237
 6016WAT     H218291   8.819   6.958   1.135
 6017WAT      O18292   5.166   9.321   4.644
 6017WAT     H118293   5.209   9.381   4.711
 6017WAT     H218294   5.094   9.268   4.687
 6018WAT      O18295   8.898   8.174   9.626
 6018WAT     H118296   8.920   8.271   9.637
 6018WAT     H218297   8.809   8.155   9.667
 6019WAT      O18298   9.378   2.152   4.293
 6019WAT     H118299   9.391   2.125   4.197
 6019WAT     H218300   9.454   2.118   4.348
 6020WAT      O18301   5.843   0.891   8.655
 6020WAT     H118302   5.760   0.853   8.695
 6020WAT     H218303   5.831   0.989   8.640
 6021WAT      O18304   3.204   5.166   5.935
 6021WAT     H118305   3.302   5.166   5.957
 6021WAT     H218306   3.151   5.156   6.019
 6022WAT      O18307   8.355   0.670   8.694
 6022WAT     H118308   8.367   0.712   8.604
 6022WAT     H218309   8.265   0.627   8.699
 6023WAT      O18310   0.782   9.581   1.190
 6023WAT     H118311   0.790   9.670   1.236
 6023WAT     H218312   0.785   9.508   1.258
 6024WAT      O18313   7.410   8.538   0.480
 6024WAT     H118314   7.330   8.501   0.433
 6024WAT     H218315   7.381   8.583   0.565
 6025WAT      O18316   6.044   2.696   4.361
 6025WAT     H118317   6.068   2.629   4.431
 6025WAT     H218318   6.037   2.651   4.272
 6026WAT      O18319   6.265   4.135   0.415
 6026WAT     H118320   6.169   4.163   0.402
 6026WAT     H218321   6.278   4.043   0.380
 6027WAT      O18322   5.023   0.989   9.244
 6027WAT     H118323   5.107   1.033   9.277
 6027WAT     H218324   4.981   1.046   9.174
 6028WAT      O18325   2.799   1.431   2.944
 6028WAT     H118326   2.732   1.499   2.973
 6028WAT     H218327   2.874   1.476   2.895
 6029WAT      O18328   5.327   5.243   0.035
 6029WAT     H118329   5.302   5.339   0.051
 6029WAT     H218330   5.304   5.218  -0.059
 6030WAT      O18331   6.570   5.005   6.314
 6030WAT     H118332   6.598   5.100   6.326
 6030WAT     H218333   6.488   4.986   6.368
 6031WAT      O18334   8.455   0.379   6.037
 6031WAT     H118335   8.494   0.303   6.089
 6031WAT     H218336   8.486   0.466   6.076
 6032WAT      O18337   7.527   1.851   5.149
 6032WAT     H118338   7.447   1.800   5.181
 6032WAT     H218339   7.609   1.797   5.165
 6033WAT      O18340   8.331   8.575   2.802
 6033WAT     H118341   8.259   8.641   2.778
 6033WAT     H218342   8.420   8.620   2.797
 6034WAT      O18343   8.837   6.198   9.001
 6034WAT     H118344   8.925   6.150   8.998
 6034WAT     H218345   8.847   6.282   9.055
 6035WAT      O18346   7.244   5.605   9.688
 6035WAT     H118347   7.194   5.519   9.679
 6035WAT     H218348   7.342   5.585   9.696
 6036WAT      O18349   1.046   5.225   1.505
 6036WAT     H118350   0.965   5.262   1.551
 6036WAT     H218351   1.024   5.137   1.464
 6037WAT      O18352   6.641   8.142   2.250
 6037WAT     H118353   6.673   8.151   2.155
 6037WAT     H218354   6.554   8.188   2.260
 6038WAT      O18355   2.335   9.060   1.954
 6038WAT     H118356   2.243   9.099   1.950
 6038WAT     H218357   2.401   9.132   1.977
 6039WAT      O18358   3.598   2.167   5.143
 6039WAT     H118359   3.638   2.082   5.176
 6039WAT     H218360   3.636   2.190   5.053
 6040WAT      O18361   0.890   7.978   4.126
 6040WAT     H118362   0.958   8.025   4.069
 6040WAT     H218363   0.810   7.957   4.071
 6041WAT      O18364   0.975   4.071   4.658
 6041WAT     H118365   0.881   4.101   4.640
 6041WAT     H218366   0.988   3.981   4.617
 6042WAT      O18367   9.879   1.307   5.450
 6042WAT     H118368   9.886   1.320   5.351
 6042WAT     H218369   9.783   1.301   5.477
 6043WAT      O18370   0.528   7.790   2.659
 6043WAT     H118371   0.623   7.764   2.645
 6043WAT     H218372   0.505   7.867   2.599
 6044WAT      O18373   3.310   5.143   5.438
 6044WAT     H118374   3.310   5.077   5.513
 6044WAT     H218375   3.259   5.105   5.361
 6045WAT      O18376   5.545   0.443   5.066
 6045WAT     H118377   5.469   0.441   5.001
 6045WAT     H218378   5.589   0.533   5.062
 6046WAT      O18379   2.158   3.293   0.933
 6046WAT     H118380   2.245   3.324   0.971
 6046WAT     H218381   2.102   3.255   1.006
 6047WAT      O18382   0.053   6.322   1.983
 6047WAT     H118383   0.040   6.287   2.076
 6047WAT     H218384  -0.033   6.360   1.949
 6048WAT      O18385   3.994   0.282   5.512
 6048WAT     H118386   3.895   0.291   5.504
 6048WAT     H218387   4.018   0.259   5.607
 6049WAT      O18388   0.424   0.860   2.300
 6049WAT     H118389   0.403   0.774   2.346
 6049WAT     H218390   0.390   0.857   2.206
 6050WAT      O18391   7.690   7.929   4.821
 6050WAT     H118392   7.764   7.892   4.766
 6050WAT     H218393   7.604   7.884   4.797
 6051WAT      O18394   2.007   1.789   4.798
 6051WAT     H118395   1.909   1.768   4.803
 6051WAT     H218396   2.044   1.757   4.711
 6052WAT      O18397   1.538   5.537   2.769
 6052WAT     H118398   1.561   5.503   2.860
 6052WAT     H218399   1.466   5.607   2.777
 6053WAT      O18400   8.732   0.671   4.285
 6053WAT     H118401   8.805   0.715   4.336
 6053WAT     H218402   8.703   0.588   4.333
 6054WAT      O18403   6.052   0.310   3.199
 6054WAT     H118404   6.027   0.400   3.164
 6054WAT     H218405   5.971   0.252   3.204
 6055WAT      O18406   2.229   3.209   8.929
 6055WAT     H118407   2.224   3.281   8.859
 6055WAT     H218408   2.190   3.243   9.014
 6056WAT      O18409   7.798   3.835   8.014
 6056WAT     H118410   7.712   3.879   8.039
 6056WAT     H218411   7.804   3.745   8.058
 6057WAT      O18412   4.308   5.643   4.804
 6057WAT     H118413   4.290   5.603   4.893
 6057WAT     H218414   4.354   5.731   4.815
 6058WAT      O18415   9.661   3.199   3.875
 6058WAT     H118416   9.576   3.216   3.826
 6058WAT     H218417   9.667   3.262   3.953
 6059WAT      O18418   3.403   5.115   2.019
 6059WAT     H118419   3.325   5.080   1.968
 6059WAT     H218420   3.374   5.194   2.073
 6060WAT      O18421   4.564   2.025   3.100
 6060WAT     H118422   4.652   1.976   3.098
 6060WAT     H218423   4.564   2.090   3.175
 6061WAT      O18424   8.111   4.361   3.121
 6061WAT     H118425   8.107   4.326   3.028
 6061WAT     H218426   8.161   4.447   3.122
 6062WAT      O18427   9.562   4.167   5.216
 6062WAT     H118428   9.478   4.198   5.261
 6062WAT     H218429   9.599   4.241   5.160
 6063WAT      O18430   3.562   7.021   3.985
 6063WAT     H118431   3.656   7.042   4.013
 6063WAT     H218432   3.520   6.961   4.053
 6064WAT      O18433   5.170   1.761   7.926
 6064WAT     H118434   5.191   1.843   7.872
 6064WAT     H218435   5.097   1.709   7.881
 6065WAT      O18436   8.031   6.800   0.661
 6065WAT     H118437   8.000   6.705   0.663
 6065WAT     H218438   7.951   6.861   0.658
 6066WAT      O18439   5.427   4.173   6.269
 6066WAT     H118440   5.356   4.154   6.200
 6066WAT     H218441   5.476   4.089   6.291
 6067WAT      O18442   8.660   7.689   7.441
 6067WAT     H118443   8.590   7.674   7.371
 6067WAT     H218444   8.690   7.601   7.477
 6068WAT      O18445   5.519   0.749   5.341
 6068WAT     H118446   5.424   0.753   5.371
 6068WAT     H218447   5.565   0.835   5.364
 6069WAT      O18448   3.930   6.599   1.940
 6069WAT     H118449   4.021   6.638   1.924
 6069WAT     H218450   3.873   6.612   1.859
 6070WAT      O18451   0.056   1.353   6.998
 6070WAT     H118452   0.046   1.343   6.899
 6070WAT     H218453   0.032   1.267   7.043
 6071WAT      O18454   3.784   3.772   8.079
 6071WAT     H118455   3.724   3.780   8.158
 6071WAT     H218456   3.767   3.685   8.032
 6072WAT      O18457   3.912   6.677   2.625
 6072WAT     H118458   3.852   6.706   2.551
 6072WAT     H218459   3.938   6.581   2.611
 6073WAT      O18460   1.204   7.866   3.781
 6073WAT     H118461   1.179   7.770   3.793
 6073WAT     H218462   1.284   7.872   3.723
 6074WAT      O18463   7.657   9.516   4.012
 6074WAT     H118464   7.663   9.599   4.067
 6074WAT     H218465   7.747   9.471   4.009
 6075WAT      O18466   8.995   4.472   6.027
 6075WAT     H118467   8.933   4.551   6.024
 6075WAT     H218468   8.945   4.392   6.062
 6076WAT      O18469   0.163   0.370   6.548
 6076WAT     H118470   0.252   0.412   6.529
 6076WAT     H218471   0.118   0.420   6.622
 6077WAT      O18472   0.843   1.549   8.243
 6077WAT     H118473   0.792   1.573   8.160
 6077WAT     H218474   0.795   1.476   8.292
 6078WAT      O18475   8.787   6.544   4.769
 6078WAT     H118476   8.801   6.474   4.839
 6078WAT     H218477   8.719   6.610   4.801
 6079WAT      O18478   3.300   2.586   6.192
 6079WAT     H118479   3.216   2.544   6.227
 6079WAT     H218480   3.281   2.680   6.163
 6080WAT      O18481   0.195   6.235   9.033
 6080WAT     H118482   0.278   6.280   9.067
 6080WAT     H218483   0.123   6.241   9.102
 6081WAT      O18484   5.173   0.593   8.581
 6081WAT     H118485   5.101   0.646   8.536
 6081WAT     H218486   5.246   0.654   8.610
 6082WAT      O18487   3.791   4.056   0.654
 6082WAT     H118488   3.716   4.116   0.679
 6082WAT     H218489   3.864   4.109   0.612
 6083WAT      O18490   9.501   0.784   5.194
 6083WAT     H118491   9.515   0.862   5.256
 6083WAT     H218492   9.543   0.703   5.233
 6084WAT      O18493   7.078   8.533   2.432
 6084WAT     H118494   7.174   8.544   2.403
 6084WAT     H218495   7.075   8.497   2.525
 6085WAT      O18496   4.138   2.244   7.873
 6085WAT     H118497   4.165   2.240   7.970
 6085WAT     H218498   4.170   2.330   7.833
 6086WAT      O18499   1.879   6.607   0.581
 6086WAT     H118500   1.844   6.549   0.507
 6086WAT     H218501   1.979   6.603   0.582
 6087WAT      O18502   6.891   3.794   0.933
 6087WAT     H118503   6.938   3.850   0.866
 6087WAT     H218504   6.798   3.828   0.945
 6088WAT      O18505   6.757   4.378   0.485
 6088WAT     H118506   6.824   4.415   0.550
 6088WAT     H218507   6.668   4.370   0.529
 6089WAT      O18508   1.692   3.997   5.374
 6089WAT     H118509   1.782   4.002   5.332
 6089WAT     H218510   1.701   4.010   5.473
 6090WAT      O18511   5.758   8.682   7.723
 6090WAT     H118512   5.703   8.622   7.665
 6090WAT     H218513   5.795   8.757   7.669
 6091WAT      O18514   4.486   9.108   3.080
 6091WAT     H118515   4.536   9.172   3.022
 6091WAT     H218516   4.541   9.085   3.160
 6092WAT      O18517   6.753   0.028   5.030
 6092WAT     H118518   6.723   0.057   4.939
 6092WAT     H218519   6.728  -0.067   5.045
 6093WAT      O18520   6.195   4.646   4.994
 6093WAT     H118521   6.221   4.656   4.898
 6093WAT     H218522   6.097   4.662   5.004
 6094WAT      O18523   3.000   1.243   0.718
 6094WAT     H118524   2.911   1.211   0.750
 6094WAT     H218525   3.073   1.195   0.767
 6095WAT      O18526   9.152   9.394   8.220
 6095WAT     H118527   9.204   9.384   8.305
 6095WAT     H218528   9.114   9.486   8.214
 6096WAT      O18529   8.513   6.083   7.756
 6096WAT     H118530   8.456   6.130   7.823
 6096WAT     H218531   8.488   6.114   7.664
 6097WAT      O18532   3.977   1.153   5.101
 6097WAT     H118533   4.030   1.068   5.100
 6097WAT     H218534   4.034   1.228   5.135
 6098WAT      O18535   3.457   2.448   2.262
 6098WAT     H118536   3.364   2.480   2.280
 6098WAT     H218537   3.511   2.522   2.222
 6099WAT      O18538   5.859   0.153   5.922
 6099WAT     H118539   5.818   0.173   6.011
 6099WAT     H218540   5.959   0.146   5.932
 6100WAT      O18541   3.858   3.037   2.734
 6100WAT     H118542   3.864   2.997   2.643
 6100WAT     H218543   3.764   3.063   2.753
 6101WAT      O18544   6.630   4.551   4.330
 6101WAT     H118545   6.640   4.454   4.307
 6101WAT     H218546   6.596   4.601   4.250
 6102WAT      O18547   5.810   1.740   1.642
 6102WAT     H118548   5.832   1.804   1.569
 6102WAT     H218549   5.889   1.729   1.703
 6103WAT      O18550   3.142   4.623   6.250
 6103WAT     H118551   3.168   4.532   6.218
 6103WAT     H218552   3.042   4.629   6.254
 6104WAT      O18553   7.865   4.912   2.928
 6104WAT     H118554   7.768   4.929   2.944
 6104WAT     H218555   7.920   4.988   2.963
 6105WAT      O18556   1.359   2.130   2.977
 6105WAT     H118557   1.422   2.116   3.054
 6105WAT     H218558   1.339   2.043   2.934
 6106WAT      O18559   4.776   6.894   0.681
 6106WAT     H118560   4.804   6.858   0.771
 6106WAT     H218561   4.706   6.834   0.642
 6107WAT      O18562   1.658   6.765   8.594
 6107WAT     H118563   1.565   6.761   8.558
 6107WAT     H218564   1.666   6.845   8.654
 6108WAT      O18565   0.176   1.195   0.765
 6108WAT     H118566   0.138   1.159   0.680
 6108WAT     H218567   0.244   1.266   0.744
 6109WAT      O18568   3.465   0.360   3.424
 6109WAT     H118569   3.464   0.348   3.325
 6109WAT     H218570   3.386   0.313   3.464
 6110WAT      O18571   0.595   6.581   8.534
 6110WAT     H118572   0.597   6.660   8.473
 6110WAT     H218573   0.515   6.588   8.594
 6111WAT      O18574   2.663   7.494   9.395
 6111WAT     H118575   2.701   7.404   9.375
 6111WAT     H218576   2.715   7.564   9.346
 6112WAT      O18577   3.237   5.782   5.669
 6112WAT     H118578   3.290   5.713   5.620
 6112WAT     H218579   3.189   5.840   5.603
 6113WAT      O18580   7.995   6.964   5.949
 6113WAT     H118581   8.045   6.890   5.905
 6113WAT     H218582   8.060   7.033   5.982
 6114WAT      O18583   7.053   2.260   9.800
 6114WAT     H118584   7.135   2.317   9.798
 6114WAT     H218585   7.060   2.188   9.731
 6115WAT      O18586   9.379   8.714   0.817
 6115WAT     H118587   9.294   8.707   0.869
 6115WAT     H218588   9.364   8.770   0.736
 6116WAT      O18589   3.600   8.888   8.861
 6116WAT     H118590   3.510   8.920   8.892
 6116WAT     H218591   3.656   8.966   8.834
 6117WAT      O18592   1.762   7.078   5.517
 6117WAT     H118593   1.791   7.136   5.594
 6117WAT     H218594   1.783   6.982   5.537
 6118WAT      O18595   3.735   7.109   3.601
 6118WAT     H118596   3.721   7.035   3.667
 6118WAT     H218597   3.828   7.103   3.564
 6119WAT      O18598   5.908   0.339   6.152
 6119WAT     H118599   5.987   0.281   6.135
 6119WAT     H218600   5.826   0.282   6.159
 6120WAT      O18601   1.218   0.035   7.262
 6120WAT     H118602   1.154   0.098   7.306
 6120WAT     H218603   1.201   0.036   7.163
 6121WAT      O18604   5.638   9.799   9.499
 6121WAT     H118605   5.735   9.775   9.506
 6121WAT     H218606   5.619   9.838   9.409
 6122WAT      O18607   2.240   1.962   9.154
 6122WAT     H118608   2.157   2.017   9.140
 6122WAT     H218609   2.305   2.013   9.209
 6123WAT      O18610   1.511   8.960   0.404
 6123WAT     H118611   1.597   9.011   0.410
 6123WAT     H218612   1.528   8.873   0.359
 6124WAT      O18613   8.382   2.228   7.659
 6124WAT     H118614   8.447   2.224   7.584
 6124WAT     H218615   8.298   2.273   7.628
 6125WAT      O18616   2.699   4.905   8.686
 6125WAT     H118617   2.621   4.874   8.741
 6125WAT     H218618   2.712   5.003   8.700
 6126WAT      O18619   8.886   3.123   3.399
 6126WAT     H118620   8.886   3.202   3.461
 6126WAT     H218621   8.828   3.051   3.437
 6127WAT      O18622   4.489   7.202   2.011
 6127WAT     H118623   4.512   7.233   1.919
 6127WAT     H218624   4.572   7.171   2.058
 6128WAT      O18625   2.293   5.536   7.218
 6128WAT     H118626   2.355   5.465   7.183
 6128WAT     H218627   2.207   5.533   7.167
 6129WAT      O18628   0.049   8.190   5.677
 6129WAT     H118629   0.062   8.288   5.669
 6129WAT     H218630  -0.003   8.156   5.598
 6130WAT      O18631   0.773   7.222   0.197
 6130WAT     H118632   0.861   7.261   0.171
 6130WAT     H218633   0.748   7.150   0.133
 6131WAT      O18634   0.534   6.785   3.179
 6131WAT     H118635   0.542   6.749   3.271
 6131WAT     H218636   0.555   6.883   3.179
 6132WAT      O18637   8.407   8.801   6.176
 6132WAT     H118638   8.348   8.880   6.163
 6132WAT     H218639   8.380   8.753   6.260
 6133WAT      O18640   8.633   4.235   3.477
 6133WAT     H118641   8.672   4.326   3.490
 6133WAT     H218642   8.703   4.172   3.443
 6134WAT      O18643   0.439   8.951   8.868
 6134WAT     H118644   0.493   9.017   8.921
 6134WAT     H218645   0.498   8.907   8.800
 6135WAT      O18646   5.393   3.581   3.084
 6135WAT     H118647   5.305   3.619   3.111
 6135WAT     H218648   5.377   3.502   3.024
 6136WAT      O18649   5.980   2.723   1.734
 6136WAT     H118650   6.011   2.644   1.787
 6136WAT     H218651   6.021   2.720   1.643
 6137WAT      O18652   8.637   5.460   8.891
 6137WAT     H118653   8.694   5.380   8.873
 6137WAT     H218654   8.589   5.486   8.807
 6138WAT      O18655   2.627   5.575   6.521
 6138WAT     H118656   2.555   5.505   6.525
 6138WAT     H218657   2.622   5.622   6.432
 6139WAT      O18658   1.796   4.576   5.153
 6139WAT     H118659   1.797   4.479   5.128
 6139WAT     H218660   1.839   4.588   5.242
 6140WAT      O18661   5.988   8.895   7.818
 6140WAT     H118662   5.971   8.888   7.720
 6140WAT     H218663   5.959   8.985   7.851
 6141WAT      O18664   6.089   4.577   2.812
 6141WAT     H118665   6.054   4.498   2.762
 6141WAT     H218666   6.178   4.555   2.852
 6142WAT      O18667   3.083   3.113   0.706
 6142WAT     H118668   3.121   3.048   0.641
 6142WAT     H218669   2.988   3.089   0.725
 6143WAT      O18670   2.389   2.343   4.648
 6143WAT     H118671   2.336   2.407   4.702
 6143WAT     H218672   2.368   2.249   4.677
 6144WAT      O18673   3.946   0.004   7.551
 6144WAT     H118674   4.039  -0.020   7.525
 6144WAT     H218675   3.943   0.099   7.582
 6145WAT      O18676   9.827   6.615   5.336
 6145WAT     H118677   9.878   6.624   5.422
 6145WAT     H218678   9.739   6.572   5.354
 6146WAT      O18679   8.019   8.801   4.367
 6146WAT     H118680   8.012   8.828   4.271
 6146WAT     H218681   8.101   8.840   4.407
 6147WAT      O18682   7.616   8.916   3.413
 6147WAT     H118683   7.708   8.956   3.420
 6147WAT     H218684   7.617   8.824   3.451
 6148WAT      O18685   6.039   1.470   8.486
 6148WAT     H118686   6.108   1.523   8.534
 6148WAT     H218687   6.084   1.408   8.421
 6149WAT      O18688   0.863   6.976   3.657
 6149WAT     H118689   0.874   6.962   3.756
 6149WAT     H218690   0.826   7.067   3.641
 6150WAT      O18691   9.388   7.243   0.101
 6150WAT     H118692   9.446   7.323   0.088
 6150WAT     H218693   9.432   7.180   0.166
 6151WAT      O18694   6.105   7.864   6.046
 6151WAT     H118695   6.103   7.764   6.052
 6151WAT     H218696   6.127   7.891   5.952
 6152WAT      O18697   0.496   2.023   3.683
 6152WAT     H118698   0.562   2.088   3.645
 6152WAT     H218699   0.424   2.073   3.731
 6153WAT      O18700   5.753   6.378   7.608
 6153WAT     H118701   5.749   6.477   7.610
 6153WAT     H218702   5.756   6.342   7.701
 6154WAT      O18703   6.031   7.092   7.235
 6154WAT     H118704   6.084   7.014   7.202
 6154WAT     H218705   6.093   7.164   7.264
 6155WAT      O18706   4.105   9.764   5.034
 6155WAT     H118707   4.170   9.726   5.099
 6155WAT     H218708   4.012   9.739   5.059
 6156WAT      O18709   7.644   9.028   2.097
 6156WAT     H118710   7.612   9.091   2.168
 6156WAT     H218711   7.715   9.073   2.042
 6157WAT      O18712   3.741   0.279   7.645
 6157WAT     H118713   3.680   0.200   7.637
 6157WAT     H218714   3.833   0.249   7.669
 6158WAT      O18715   8.675   6.103   5.482
 6158WAT     H118716   8.586   6.117   5.439
 6158WAT     H218717   8.668   6.032   5.553
 6159WAT      O18718   6.389   4.059   9.720
 6159WAT     H118719   6.466   4.068   9.784
 6159WAT     H218720   6.324   3.992   9.756
 6160WAT      O18721   5.739   1.316   1.407
 6160WAT     H118722   5.806   1.242   1.410
 6160WAT     H218723   5.728   1.354   1.499
 6161WAT      O18724   9.866   7.843   6.375
 6161WAT     H118725   9.879   7.884   6.285
 6161WAT     H218726   9.844   7.915   6.441
 6162WAT      O18727   8.445   5.394   6.642
 6162WAT     H118728   8.474   5.490   6.650
 6162WAT     H218729   8.352   5.385   6.677
 6163WAT      O18730   8.946   1.357   9.632
 6163WAT     H118731   8.981   1.408   9.710
 6163WAT     H218732   8.912   1.420   9.563
 6164WAT      O18733   1.459   0.306   2.397
 6164WAT     H118734   1.469   0.405   2.388
 6164WAT     H218735   1.524   0.272   2.465
 6165WAT      O18736   2.997   5.372   1.742
 6165WAT     H118737   3.095   5.361   1.728
 6165WAT     H218738   2.974   5.345   1.836
 6166WAT      O18739   0.431   8.927   6.980
 6166WAT     H118740   0.441   8.859   6.907
 6166WAT     H218741   0.418   8.880   7.068
 6167WAT      O18742   5.789   2.225   6.491
 6167WAT     H118743   5.852   2.273   6.432
 6167WAT     H218744   5.713   2.189   6.437
 6168WAT      O18745   9.429   0.192   4.856
 6168WAT     H118746   9.402   0.243   4.774
 6168WAT     H218747   9.525   0.209   4.876
 6169WAT      O18748   3.964   9.186   4.765
 6169WAT     H118749   3.969   9.262   4.830
 6169WAT     H218750   4.018   9.208   4.684
 6170WAT      O18751   3.185   6.267   0.891
 6170WAT     H118752   3.161   6.233   0.983
 6170WAT     H218753   3.158   6.363   0.883
 6171WAT      O18754   7.420   5.408   1.919
 6171WAT     H118755   7.443   5.501   1.948
 6171WAT     H218756   7.498   5.348   1.932
 6172WAT      O18757   2.728   0.136   0.613
 6172WAT     H118758   2.693   0.222   0.652
 6172WAT     H218759   2.677   0.115   0.530
 6173WAT      O18760   7.571   1.602   9.704
 6173WAT     H118761   7.490   1.589   9.761
 6173WAT     H218762   7.629   1.672   9.745
 6174WAT      O18763   8.839   9.198   0.769
 6174WAT     H118764   8.880   9.243   0.690
 6174WAT     H218765   8.751   9.239   0.790
 6175WAT      O18766   7.988   9.368   6.563
 6175WAT     H118767   8.020   9.457   6.598
 6175WAT     H218768   8.023   9.355   6.470
 6176WAT      O18769   6.028   8.143   9.137
 6176WAT     H118770   6.044   8.235   9.173
 6176WAT     H218771   6.016   8.147   9.038
 6177WAT      O18772   2.567   6.239   1.422
 6177WAT     H118773   2.652   6.188   1.433
 6177WAT     H218774   2.588   6.331   1.389
 6178WAT      O18775   3.307   6.975   5.380
 6178WAT     H118776   3.404   6.963   5.357
 6178WAT     H218777   3.296   6.968   5.480
 6179WAT      O18778   5.986   8.221   7.162
 6179WAT     H118779   6.057   8.251   7.098
 6179WAT     H218780   5.902   8.202   7.112
 6180WAT      O18781   1.074   1.165   0.025
 6180WAT     H118782   1.164   1.198   0.055
 6180WAT     H218783   1.086   1.095  -0.045
 6181WAT      O18784   8.502   0.377   5.752
 6181WAT     H118785   8.438   0.428   5.694
 6181WAT     H218786   8.466   0.373   5.845
 6182WAT      O18787   4.077   7.959   5.497
 6182WAT     H118788   4.086   8.058   5.497
 6182WAT     H218789   4.121   7.921   5.579
 6183WAT      O18790   6.634   0.397   6.001
 6183WAT     H118791   6.574   0.446   6.064
 6183WAT     H218792   6.713   0.361   6.051
 6184WAT      O18793   0.617   1.352   7.003
 6184WAT     H118794   0.634   1.418   7.076
 6184WAT     H218795   0.521   1.358   6.973
 6185WAT      O18796   2.347   0.965   6.459
 6185WAT     H118797   2.365   0.968   6.557
 6185WAT     H218798   2.374   1.052   6.417
 6186WAT      O18799   7.585   2.005   7.304
 6186WAT     H118800   7.537   1.934   7.252
 6186WAT     H218801   7.519   2.074   7.333
 6187WAT      O18802   4.977   0.087   8.636
 6187WAT     H118803   4.963  -0.004   8.675
 6187WAT     H218804   5.044   0.137   8.691
 6188WAT      O18805   3.645   8.181   6.100
 6188WAT     H118806   3.627   8.099   6.155
 6188WAT     H218807   3.695   8.248   6.155
 6189WAT      O18808   6.799   3.351   0.975
 6189WAT     H118809   6.884   3.300   0.977
 6189WAT     H218810   6.781   3.384   0.883
 6190WAT      O18811   4.643   7.523   0.530
 6190WAT     H118812   4.599   7.541   0.617
 6190WAT     H218813   4.723   7.464   0.545
 6191WAT      O18814   4.868   9.721   0.965
 6191WAT     H118815   4.852   9.810   1.007
 6191WAT     H218816   4.834   9.722   0.871
 6192WAT      O18817   3.718   0.544   2.695
 6192WAT     H118818   3.786   0.495   2.749
 6192WAT     H218819   3.631   0.546   2.744
 6193WAT      O18820   1.818   7.145   9.443
 6193WAT     H118821   1.826   7.047   9.424
 6193WAT     H218822   1.721   7.170   9.446
 6194WAT      O18823   1.747   9.322   8.357
 6194WAT     H118824   1.775   9.226   8.359
 6194WAT     H218825   1.682   9.339   8.431
 6195WAT      O18826   0.990   5.549   0.636
 6195WAT     H118827   0.931   5.522   0.711
 6195WAT     H218828   1.084   5.560   0.669
 6196WAT      O18829   4.565   2.875   7.046
 6196WAT     H118830   4.510   2.916   6.973
 6196WAT     H218831   4.509   2.811   7.098
 6197WAT      O18832   3.945   9.240   1.438
 6197WAT     H118833   3.953   9.220   1.536
 6197WAT     H218834   3.969   9.158   1.386
 6198WAT      O18835   7.102   7.895   7.159
 6198WAT     H118836   7.043   7.816   7.148
 6198WAT     H218837   7.056   7.977   7.125
 6199WAT      O18838   1.212   3.538   4.615
 6199WAT     H118839   1.225   3.611   4.548
 6199WAT     H218840   1.115   3.517   4.623
 6200WAT      O18841   5.153   0.859   6.980
 6200WAT     H118842   5.064   0.820   7.002
 6200WAT     H218843   5.166   0.944   7.031
 6201WAT      O18844   6.988   4.308   1.085
 6201WAT     H118845   6.984   4.247   1.006
 6201WAT     H218846   7.033   4.394   1.058
 6202WAT      O18847   4.011   8.018   2.156
 6202WAT     H118848   4.083   7.976   2.212
 6202WAT     H218849   3.962   8.085   2.211
 6203WAT      O18850   6.312   2.378   0.842
 6203WAT     H118851   6.330   2.458   0.785
 6203WAT     H218852   6.363   2.300   0.807
 6204WAT      O18853   2.553   2.374   5.689
 6204WAT     H118854   2.483   2.318   5.734
 6204WAT     H218855   2.514   2.418   5.608
 6205WAT      O18856   4.632   2.604   9.845
 6205WAT     H118857   4.592   2.589   9.936
 6205WAT     H218858   4.656   2.516   9.804
 6206WAT      O18859   2.374   8.073   2.532
 6206WAT     H118860   2.416   8.000   2.479
 6206WAT     H218861   2.405   8.067   2.627
 6207WAT      O18862   0.403   9.110   9.221
 6207WAT     H118863   0.470   9.127   9.148
 6207WAT     H218864   0.326   9.059   9.184
 6208WAT      O18865   7.266   0.900   5.023
 6208WAT     H118866   7.210   0.821   5.051
 6208WAT     H218867   7.287   0.892   4.925
 6209WAT      O18868   4.796   4.715   4.152
 6209WAT     H118869   4.855   4.795   4.142
 6209WAT     H218870   4.778   4.698   4.249
 6210WAT      O18871   9.745   7.813   7.565
 6210WAT     H118872   9.773   7.875   7.492
 6210WAT     H218873   9.701   7.865   7.639
 6211WAT      O18874   5.979   7.216   0.727
 6211WAT     H118875   5.996   7.308   0.692
 6211WAT     H218876   6.051   7.192   0.793
 6212WAT      O18877   9.485   1.171   9.508
 6212WAT     H118878   9.491   1.173   9.607
 6212WAT     H218879   9.480   1.265   9.473
 6213WAT      O18880   1.555   5.410   8.236
 6213WAT     H118881   1.624   5.453   8.295
 6213WAT     H218882   1.509   5.480   8.182
 6214WAT      O18883   4.043   3.385   0.942
 6214WAT     H118884   3.965   3.426   0.894
 6214WAT     H218885   4.012   3.306   0.995
 6215WAT      O18886   9.221   8.816   5.010
 6215WAT     H118887   9.281   8.771   5.076
 6215WAT     H218888   9.157   8.749   4.973
 6216WAT      O18889   4.389   7.961   7.412
 6216WAT     H118890   4.372   8.046   7.463
 6216WAT     H218891   4.340   7.886   7.457
 6217WAT      O18892   9.747   0.526   5.022
 6217WAT     H118893   9.806   0.544   5.100
 6217WAT     H218894   9.751   0.604   4.959
 6218WAT      O18895   3.503   9.746   7.880
 6218WAT     H118896   3.586   9.742   7.936
 6218WAT     H218897   3.430   9.790   7.932
 6219WAT      O18898   5.321   2.710   1.719
 6219WAT     H118899   5.240   2.660   1.690
 6219WAT     H218900   5.375   2.652   1.781
 6220WAT      O18901   5.005   3.255   3.835
 6220WAT     H118902   5.099   3.287   3.840
 6220WAT     H218903   4.966   3.252   3.927
 6221WAT      O18904   1.122   5.819   4.274
 6221WAT     H118905   1.122   5.725   4.308
 6221WAT     H218906   1.169   5.879   4.339
 6222WAT      O18907   1.160   0.743   9.628
 6222WAT     H118908   1.257   0.721   9.621
 6222WAT     H218909   1.111   0.704   9.549
 6223WAT      O18910   9.012   2.573   4.930
 6223WAT     H118911   8.930   2.516   4.942
 6223WAT     H218912   9.066   2.537   4.854
 6224WAT      O18913   9.325   5.229   8.255
 6224WAT     H118914   9.377   5.235   8.170
 6224WAT     H218915   9.361   5.296   8.321
 6225WAT      O18916   8.228   9.647   0.068
 6225WAT     H118917   8.270   9.689   0.149
 6225WAT     H218918   8.143   9.693   0.046
 6226WAT      O18919   2.615   5.960   9.824
 6226WAT     H118920   2.667   5.881   9.854
 6226WAT     H218921   2.598   5.953   9.726
 6227WAT      O18922   3.178   3.986   1.136
 6227WAT     H118923   3.214   3.930   1.062
 6227WAT     H218924   3.083   3.960   1.154
 6228WAT      O18925   0.141   3.734   6.671
 6228WAT     H118926   0.175   3.793   6.597
 6228WAT     H218927   0.136   3.787   6.755
 6229WAT      O18928   1.182   9.233   9.335
 6229WAT     H118929   1.230   9.259   9.419
 6229WAT     H218930   1.217   9.145   9.303
 6230WAT      O18931   5.511   4.475   8.992
 6230WAT     H118932   5.436   4.470   9.057
 6230WAT     H218933   5.570   4.395   9.003
 6231WAT      O18934   7.206   5.605   7.845
 6231WAT     H118935   7.137   5.542   7.882
 6231WAT     H218936   7.292   5.556   7.831
 6232WAT      O18937   6.294   5.127   9.203
 6232WAT     H118938   6.393   5.141   9.196
 6232WAT     H218939   6.263   5.149   9.296
 6233WAT      O18940   1.640   4.942   5.254
 6233WAT     H118941   1.579   4.896   5.319
 6233WAT     H218942   1.586   4.985   5.182
 6234WAT      O18943   2.743   0.515   9.814
 6234WAT     H118944   2.768   0.535   9.719
 6234WAT     H218945   2.782   0.585   9.874
 6235WAT      O18946   2.358   0.473   4.234
 6235WAT     H118947   2.334   0.537   4.307
 6235WAT     H218948   2.274   0.432   4.196
 6236WAT      O18949   5.182   3.198   5.660
 6236WAT     H118950   5.279   3.220   5.675
 6236WAT     H218951   5.156   3.226   5.567
 6237WAT      O18952   2.588   9.569   2.163
 6237WAT     H118953   2.575   9.618   2.249
 6237WAT     H218954   2.676   9.594   2.123
 6238WAT      O18955   0.328   3.843   0.680
 6238WAT     H118956   0.325   3.787   0.763
 6238WAT     H218957   0.423   3.855   0.651
 6239WAT      O18958   6.346   4.096   3.680
 6239WAT     H118959   6.349   4.127   3.775
 6239WAT     H218960   6.330   4.175   3.620
 6240WAT      O18961   6.214   0.974   1.764
 6240WAT     H118962   6.280   0.901   1.752
 6240WAT     H218963   6.187   0.980   1.860
 6241WAT      O18964   3.666   0.233   9.565
 6241WAT     H118965   3.716   0.226   9.651
 6241WAT     H218966   3.585   0.176   9.568
 6242WAT      O18967   7.854   6.577   8.242
 6242WAT     H118968   7.830   6.674   8.253
 6242WAT     H218969   7.953   6.566   8.252
 6243WAT      O18970   1.332   4.302   0.823
 6243WAT     H118971   1.237   4.285   0.848
 6243WAT     H218972   1.370   4.220   0.780
 6244WAT      O18973   8.867   9.075   2.874
 6244WAT     H118974   8.840   9.057   2.780
 6244WAT     H218975   8.829   9.162   2.904
 6245WAT      O18976   1.807   5.894   0.024
 6245WAT     H118977   1.771   5.964  -0.038
 6245WAT     H218978   1.732   5.843   0.065
 6246WAT      O18979   2.838   8.292   9.095
 6246WAT     H118980   2.892   8.229   9.039
 6246WAT     H218981   2.798   8.362   9.036
 6247WAT      O18982   6.227   0.783   4.620
 6247WAT     H118983   6.273   0.871   4.633
 6247WAT     H218984   6.175   0.760   4.703
 6248WAT      O18985   0.731   7.358   4.137
 6248WAT     H118986   0.643   7.374   4.182
 6248WAT     H218987   0.802   7.411   4.183
 6249WAT      O18988   7.271   3.372   6.076
 6249WAT     H118989   7.371   3.370   6.077
 6249WAT     H218990   7.237   3.401   6.166
 6250WAT      O18991   5.878   3.116   0.437
 6250WAT     H118992   5.857   3.025   0.401
 6250WAT     H218993   5.977   3.127   0.442
 6251WAT      O18994   1.656   0.544   2.742
 6251WAT     H118995   1.576   0.602   2.756
 6251WAT     H218996   1.731   0.599   2.704
 6252WAT      O18997   5.742   9.582   5.915
 6252WAT     H118998   5.665   9.636   5.881
 6252WAT     H218999   5.709   9.515   5.981
 6253WAT      O19000   0.920   7.948   4.765
 6253WAT     H119001   0.872   7.880   4.711
 6253WAT     H219002   0.972   7.903   4.838
 6254WAT      O19003   2.984   2.249   4.819
 6254WAT     H119004   2.894   2.272   4.857
 6254WAT     H219005   3.018   2.325   4.764
 6255WAT      O19006   7.768   5.905   6.621
 6255WAT     H119007   7.725   5.820   6.591
 6255WAT     H219008   7.849   5.922   6.565
 6256WAT      O19009   9.209   4.293   4.022
 6256WAT     H119010   9.204   4.391   4.002
 6256WAT     H219011   9.237   4.244   3.939
 6257WAT      O19012   4.914   1.363   3.221
 6257WAT     H119013   4.909   1.297   3.295
 6257WAT     H219014   4.993   1.423   3.235
 6258WAT      O19015   6.124   9.415   2.761
 6258WAT     H119016   6.085   9.392   2.672
 6258WAT     H219017   6.175   9.337   2.797
 6259WAT      O19018   3.851   7.509   3.110
 6259WAT     H119019   3.781   7.462   3.056
 6259WAT     H219020   3.884   7.447   3.181
 6260WAT      O19021   8.865   2.991   1.630
 6260WAT     H119022   8.844   3.055   1.556
 6260WAT     H219023   8.780   2.954   1.668
 6261WAT      O19024   5.413   5.219   8.902
 6261WAT     H119025   5.468   5.302   8.906
 6261WAT     H219026   5.320   5.239   8.931
 6262WAT      O19027   5.537   9.008   9.180
 6262WAT     H119028   5.580   8.967   9.261
 6262WAT     H219029   5.483   9.088   9.207
 6263WAT      O19030   5.613   1.958   3.666
 6263WAT     H119031   5.652   1.932   3.754
 6263WAT     H219032   5.548   1.887   3.637
 6264WAT      O19033   1.518   7.695   8.886
 6264WAT     H119034   1.554   7.624   8.947
 6264WAT     H219035   1.517   7.661   8.792
 6265WAT      O19036   6.642   4.986   5.517
 6265WAT     H119037   6.720   5.036   5.480
 6265WAT     H219038   6.636   5.002   5.616
 6266WAT      O19039   5.525   0.655   0.428
 6266WAT     H119040   5.476   0.644   0.515
 6266WAT     H219041   5.462   0.688   0.358
 6267WAT      O19042   4.915   2.749   3.486
 6267WAT     H119043   4.946   2.725   3.579
 6267WAT     H219044   4.954   2.837   3.459
 6268WAT      O19045   7.253   5.389   5.103
 6268WAT     H119046   7.290   5.333   5.029
 6268WAT     H219047   7.265   5.342   5.191
 6269WAT      O19048   6.045   5.152   2.431
 6269WAT     H119049   6.027   5.068   2.380
 6269WAT     H219050   6.092   5.129   2.516
 6270WAT      O19051   8.755   1.385   7.478
 6270WAT     H119052   8.740   1.291   7.510
 6270WAT     H219053   8.778   1.443   7.556
 6271WAT      O19054   9.031   0.941   4.462
 6271WAT     H119055   9.024   0.936   4.562
 6271WAT     H219056   9.126   0.957   4.437
 6272WAT      O19057   6.554   4.510   4.974
 6272WAT     H119058   6.628   4.475   4.915
 6272WAT     H219059   6.504   4.580   4.924
 6273WAT      O19060   4.212   1.880   0.712
 6273WAT     H119061   4.228   1.782   0.727
 6273WAT     H219062   4.116   1.895   0.688
 6274WAT      O19063   8.106   0.454   8.709
 6274WAT     H119064   8.058   0.497   8.632
 6274WAT     H219065   8.123   0.358   8.686
 6275WAT      O19066   4.859   7.319   3.721
 6275WAT     H119067   4.800   7.242   3.746
 6275WAT     H219068   4.804   7.391   3.679
 6276WAT      O19069   7.640   8.169   1.046
 6276WAT     H119070   7.679   8.227   1.118
 6276WAT     H219071   7.642   8.074   1.075
 6277WAT      O19072   8.309   0.215   3.502
 6277WAT     H119073   8.402   0.206   3.538
 6277WAT     H219074   8.244   0.175   3.567
 6278WAT      O19075   6.170   4.422   8.603
 6278WAT     H119076   6.125   4.412   8.692
 6278WAT     H219077   6.139   4.350   8.541
 6279WAT      O19078   9.749   0.943   5.590
 6279WAT     H119079   9.818   0.969   5.523
 6279WAT     H219080   9.772   0.854   5.630
 6280WAT      O19081   0.263   6.705   0.687
 6280WAT     H119082   0.295   6.661   0.603
 6280WAT     H219083   0.269   6.804   0.678
 6281WAT      O19084   1.888   9.206   2.766
 6281WAT     H119085   1.891   9.301   2.735
 6281WAT     H219086   1.834   9.199   2.849
 6282WAT      O19087   9.739   2.248   7.541
 6282WAT     H119088   9.703   2.338   7.515
 6282WAT     H219089   9.781   2.254   7.631
 6283WAT      O19090   6.748   5.854   9.861
 6283WAT     H119091   6.833   5.814   9.827
 6283WAT     H219092   6.673   5.831   9.798
 6284WAT      O19093   8.818   2.136   2.190
 6284WAT     H119094   8.915   2.153   2.206
 6284WAT     H219095   8.765   2.184   2.260
 6285WAT      O19096   6.619   8.285   2.479
 6285WAT     H119097   6.653   8.233   2.400
 6285WAT     H219098   6.696   8.308   2.539
 6286WAT      O19099   8.577   5.720   5.915
 6286WAT     H119100   8.578   5.652   5.842
 6286WAT     H219101   8.668   5.730   5.954
 6287WAT      O19102   0.773   5.330   1.166
 6287WAT     H119103   0.718   5.381   1.099
 6287WAT     H219104   0.713   5.296   1.238
 6288WAT      O19105   8.753   9.282   6.817
 6288WAT     H119106   8.775   9.289   6.720
 6288WAT     H219107   8.773   9.369   6.862
 6289WAT      O19108   7.280   7.130   8.831
 6289WAT     H119109   7.366   7.165   8.869
 6289WAT     H219110   7.203   7.170   8.882
 6290WAT      O19111   9.677   4.363   5.489
 6290WAT     H119112   9.676   4.263   5.488
 6290WAT     H219113   9.584   4.398   5.501
 6291WAT      O19114   9.854   7.313   9.548
 6291WAT     H119115   9.951   7.333   9.538
 6291WAT     H219116   9.834   7.285   9.642
 6292WAT      O19117   9.553   6.325   9.865
 6292WAT     H119118   9.513   6.290   9.780
 6292WAT     H219119   9.526   6.420   9.878
 6293WAT      O19120   3.130   8.610   4.154
 6293WAT     H119121   3.229   8.599   4.142
 6293WAT     H219122   3.096   8.543   4.220
 6294WAT      O19123   6.328   2.977   7.659
 6294WAT     H119124   6.274   2.905   7.616
 6294WAT     H219125   6.311   2.977   7.758
 6295WAT      O19126   3.056   1.605   6.883
 6295WAT     H119127   2.974   1.573   6.930
 6295WAT     H219128   3.042   1.598   6.784
 6296WAT      O19129   9.061   2.704   2.293
 6296WAT     H119130   9.127   2.715   2.367
 6296WAT     H219131   9.071   2.613   2.252
 6297WAT      O19132   5.361   6.721   0.288
 6297WAT     H119133   5.403   6.639   0.326
 6297WAT     H219134   5.292   6.756   0.352
 6298WAT      O19135   9.412   3.321   1.544
 6298WAT     H119136   9.471   3.350   1.469
 6298WAT     H219137   9.334   3.384   1.551
 6299WAT      O19138   2.062   4.849   6.426
 6299WAT     H119139   2.128   4.828   6.498
 6299WAT     H219140   2.102   4.914   6.362
 6300WAT      O19141   0.731   1.057   1.980
 6300WAT     H119142   0.790   1.087   1.904
 6300WAT     H219143   0.644   1.106   1.976
 6301WAT      O19144   4.792   5.245   7.790
 6301WAT     H119145   4.736   5.256   7.708
 6301WAT     H219146   4.873   5.303   7.783
 6302WAT      O19147   2.240   6.754   5.038
 6302WAT     H119148   2.249   6.680   5.104
 6302WAT     H219149   2.159   6.740   4.982
 6303WAT      O19150   3.952   1.347   0.242
 6303WAT     H119151   3.979   1.269   0.298
 6303WAT     H219152   3.887   1.318   0.173
 6304WAT      O19153   8.809   2.039   6.522
 6304WAT     H119154   8.730   2.029   6.584
 6304WAT     H219155   8.782   2.096   6.444
 6305WAT      O19156   3.474   8.143   0.683
 6305WAT     H119157   3.566   8.102   0.677
 6305WAT     H219158   3.407   8.077   0.649
 6306WAT      O19159   0.245   3.871   0.241
 6306WAT     H119160   0.269   3.924   0.160
 6306WAT     H219161   0.203   3.931   0.309
 6307WAT      O19162   4.680   6.364   7.674
 6307WAT     H119163   4.664   6.366   7.773
 6307WAT     H219164   4.598   6.394   7.626
 6308WAT      O19165   9.194   0.260   4.197
 6308WAT     H119166   9.204   0.169   4.239
 6308WAT     H219167   9.106   0.299   4.223
 6309WAT      O19168   5.986   6.277   6.681
 6309WAT     H119169   6.050   6.334   6.630
 6309WAT     H219170   6.021   6.261   6.773
 6310WAT      O19171   7.990   3.663   5.419
 6310WAT     H119172   8.067   3.645   5.358
 6310WAT     H219173   7.919   3.713   5.370
 6311WAT      O19174   6.988   5.939   9.255
 6311WAT     H119175   7.087   5.926   9.246
 6311WAT     H219176   6.951   5.967   9.166
 6312WAT      O19177   3.075   9.542   8.284
 6312WAT     H119178   3.161   9.517   8.328
 6312WAT     H219179   3.052   9.474   8.214
 6313WAT      O19180   1.034   3.511   4.370
 6313WAT     H119181   0.981   3.554   4.297
 6313WAT     H219182   0.983   3.515   4.456
 6314WAT      O19183   8.711   6.679   6.028
 6314WAT     H119184   8.766   6.754   6.067
 6314WAT     H219185   8.747   6.655   5.938
 6315WAT      O19186   8.457   3.232   6.807
 6315WAT     H119187   8.505   3.240   6.720
 6315WAT     H219188   8.376   3.174   6.795
 6316WAT      O19189   8.564   2.516   2.259
 6316WAT     H119190   8.483   2.541   2.311
 6316WAT     H219191   8.634   2.587   2.271
 6317WAT      O19192   0.095   8.476   0.591
 6317WAT     H119193   0.108   8.466   0.690
 6317WAT     H219194   0.173   8.437   0.542
 6318WAT      O19195   9.275   8.104   4.847
 6318WAT     H119196   9.274   8.139   4.941
 6318WAT     H219197   9.282   8.180   4.783
 6319WAT      O19198   7.555   9.756   5.581
 6319WAT     H119199   7.583   9.784   5.673
 6319WAT     H219200   7.519   9.835   5.531
 6320WAT      O19201   7.812   9.413   1.343
 6320WAT     H119202   7.804   9.406   1.243
 6320WAT     H219203   7.905   9.392   1.371
 6321WAT      O19204   5.007   3.760   2.435
 6321WAT     H119205   5.077   3.738   2.503
 6321WAT     H219206   4.917   3.739   2.473
 6322WAT      O19207   4.038   7.814   0.970
 6322WAT     H119208   3.953   7.762   0.982
 6322WAT     H219209   4.037   7.859   0.880
 6323WAT      O19210   9.335   5.650   1.842
 6323WAT     H119211   9.291   5.675   1.756
 6323WAT     H219212   9.421   5.699   1.851
 6324WAT      O19213   8.612   3.896   0.800
 6324WAT     H119214   8.568   3.806   0.802
 6324WAT     H219215   8.543   3.967   0.817
 6325WAT      O19216   4.826   4.777   1.300
 6325WAT     H119217   4.911   4.731   1.273
 6325WAT     H219218   4.848   4.857   1.356
 6326WAT      O19219   9.674   9.750   9.772
 6326WAT     H119220   9.659   9.849   9.764
 6326WAT     H219221   9.635   9.704   9.692
 6327WAT      O19222   5.535   5.176   0.669
 6327WAT     H119223   5.506   5.247   0.733
 6327WAT     H219224   5.632   5.155   0.684
 6328WAT      O19225   3.498   3.808   8.905
 6328WAT     H119226   3.398   3.815   8.900
 6328WAT     H219227   3.531   3.752   8.829
 6329WAT      O19228   2.238   7.470   5.231
 6329WAT     H119229   2.194   7.513   5.152
 6329WAT     H219230   2.316   7.415   5.199
 6330WAT      O19231   0.331   7.922   9.275
 6330WAT     H119232   0.327   7.988   9.200
 6330WAT     H219233   0.269   7.949   9.348
 6331WAT      O19234   3.005   4.887   6.055
 6331WAT     H119235   3.055   4.913   6.138
 6331WAT     H219236   2.940   4.960   6.032
 6332WAT      O19237   4.872   1.623   1.708
 6332WAT     H119238   4.871   1.576   1.797
 6332WAT     H219239   4.964   1.657   1.689
 6333WAT      O19240   4.494   7.506   1.385
 6333WAT     H119241   4.506   7.592   1.335
 6333WAT     H219242   4.397   7.491   1.404
 6334WAT      O19243   3.483   9.749   2.104
 6334WAT     H119244   3.527   9.807   2.172
 6334WAT     H219245   3.524   9.658   2.105
 6335WAT      O19246   5.962   1.801   2.558
 6335WAT     H119247   5.955   1.885   2.505
 6335WAT     H219248   5.872   1.778   2.596
 6336WAT      O19249   2.616   0.611   9.343
 6336WAT     H119250   2.564   0.528   9.363
 6336WAT     H219251   2.679   0.593   9.267
 6337WAT      O19252   5.037   5.509   3.350
 6337WAT     H119253   5.082   5.432   3.304
 6337WAT     H219254   5.094   5.590   3.344
 6338WAT      O19255   7.700   7.002   4.381
 6338WAT     H119256   7.720   6.945   4.301
 6338WAT     H219257   7.658   7.088   4.350
 6339WAT      O19258   7.623   9.391   6.302
 6339WAT     H119259   7.652   9.369   6.395
 6339WAT     H219260   7.680   9.342   6.236
 6340WAT      O19261   5.400   8.899   1.610
 6340WAT     H119262   5.343   8.820   1.588
 6340WAT     H219263   5.437   8.938   1.525
 6341WAT      O19264   8.641   9.310   8.150
 6341WAT     H119265   8.634   9.229   8.092
 6341WAT     H219266   8.550   9.343   8.174
 6342WAT      O19267   3.031   1.555   7.561
 6342WAT     H119268   2.979   1.528   7.642
 6342WAT     H219269   2.981   1.626   7.512
 6343WAT      O19270   6.068   8.907   4.064
 6343WAT     H119271   6.089   8.856   4.148
 6343WAT     H219272   5.994   8.972   4.082
 6344WAT      O19273   9.793   9.111   8.580
 6344WAT     H119274   9.780   9.019   8.543
 6344WAT     H219275   9.821   9.173   8.506
 6345WAT      O19276   2.550   0.289   3.131
 6345WAT     H119277   2.517   0.203   3.092
 6345WAT     H219278   2.548   0.360   3.061
 6346WAT      O19279   1.119   4.201   3.887
 6346WAT     H119280   1.128   4.280   3.826
 6346WAT     H219281   1.055   4.222   3.960
 6347WAT      O19282   0.603   3.490   4.632
 6347WAT     H119283   0.607   3.469   4.534
 6347WAT     H219284   0.651   3.575   4.651
 6348WAT      O19285   7.390   8.745   3.720
 6348WAT     H119286   7.362   8.666   3.773
 6348WAT     H219287   7.327   8.758   3.643
 6349WAT      O19288   2.027   8.356   2.095
 6349WAT     H119289   1.963   8.281   2.113
 6349WAT     H219290   2.115   8.335   2.137
 6350WAT      O19291   1.561   1.840   2.774
 6350WAT     H119292   1.625   1.830   2.698
 6350WAT     H219293   1.478   1.886   2.742
 6351WAT      O19294   7.167   9.714   3.610
 6351WAT     H119295   7.105   9.774   3.661
 6351WAT     H219296   7.157   9.620   3.643
 6352WAT      O19297   3.207   7.553   0.447
 6352WAT     H119298   3.306   7.548   0.464
 6352WAT     H219299   3.161   7.481   0.499
 6353WAT      O19300   0.007   4.164   0.972
 6353WAT     H119301   0.076   4.153   0.900
 6353WAT     H219302  -0.073   4.210   0.933
 6354WAT      O19303   9.583   1.848   6.713
 6354WAT     H119304   9.659   1.907   6.687
 6354WAT     H219305   9.498   1.902   6.711
 6355WAT      O19306   4.557   6.861   2.108
 6355WAT     H119307   4.475   6.868   2.051
 6355WAT     H219308   4.585   6.952   2.138
 6356WAT      O19309   1.546   9.605   2.280
 6356WAT     H119310   1.505   9.631   2.193
 6356WAT     H219311   1.578   9.510   2.275
 6357WAT      O19312   5.001   1.636   5.837
 6357WAT     H119313   4.918   1.617   5.889
 6357WAT     H219314   5.050   1.551   5.819
 6358WAT      O19315   7.288   4.356   0.722
 6358WAT     H119316   7.370   4.394   0.766
 6358WAT     H219317   7.263   4.415   0.644
 6359WAT      O19318   9.745   7.169   0.803
 6359WAT     H119319   9.835   7.212   0.814
 6359WAT     H219320   9.720   7.124   0.889
 6360WAT      O19321   0.106   0.140   7.613
 6360WAT     H119322   0.062   0.137   7.703
 6360WAT     H219323   0.088   0.054   7.565
 6361WAT      O19324   3.050   7.840   3.630
 6361WAT     H119325   3.094   7.885   3.707
 6361WAT     H219326   2.950   7.847   3.639
 6362WAT      O19327   7.246   6.298   6.281
 6362WAT     H119328   7.215   6.328   6.191
 6362WAT     H219329   7.327   6.240   6.271
 6363WAT      O19330   7.680   6.464   8.805
 6363WAT     H119331   7.643   6.429   8.891
 6363WAT     H219332   7.621   6.535   8.768
 6364WAT      O19333   3.114   3.329   3.366
 6364WAT     H119334   3.175   3.251   3.349
 6364WAT     H219335   3.048   3.304   3.437
 6365WAT      O19336   2.652   1.736   4.235
 6365WAT     H119337   2.595   1.796   4.292
 6365WAT     H219338   2.744   1.775   4.227
 6366WAT      O19339   8.715   4.477   5.113
 6366WAT     H119340   8.795   4.531   5.089
 6366WAT     H219341   8.694   4.412   5.039
 6367WAT      O19342   3.747   9.517   2.846
 6367WAT     H119343   3.695   9.432   2.833
 6367WAT     H219344   3.701   9.574   2.913
 6368WAT      O19345   5.655   6.732   4.272
 6368WAT     H119346   5.582   6.756   4.208
 6368WAT     H219347   5.648   6.788   4.354
 6369WAT      O19348   1.545   2.466   8.914
 6369WAT     H119349   1.453   2.504   8.905
 6369WAT     H219350   1.569   2.416   8.831
 6370WAT      O19351   9.773   2.103   1.621
 6370WAT     H119352   9.703   2.061   1.679
 6370WAT     H219353   9.765   2.203   1.627
 6371WAT      O19354   0.192   1.786   4.042
 6371WAT     H119355   0.215   1.730   4.121
 6371WAT     H219356   0.256   1.768   3.967
 6372WAT      O19357   3.165   3.677   8.379
 6372WAT     H119358   3.079   3.649   8.420
 6372WAT     H219359   3.163   3.661   8.280
 6373WAT      O19360   9.377   6.077   8.775
 6373WAT     H119361   9.312   6.039   8.709
 6373WAT     H219362   9.460   6.105   8.727
 6374WAT      O19363   1.529   1.253   2.966
 6374WAT     H119364   1.556   1.338   3.012
 6374WAT     H219365   1.599   1.226   2.900
 6375WAT      O19366   8.597   2.593   7.651
 6375WAT     H119367   8.667   2.548   7.597
 6375WAT     H219368   8.588   2.688   7.621
 6376WAT      O19369   9.277   5.859   3.917
 6376WAT     H119370   9.238   5.905   3.996
 6376WAT     H219371   9.287   5.924   3.841
 6377WAT      O19372   3.463   0.659   9.031
 6377WAT     H119373   3.509   0.609   9.104
 6377WAT     H219374   3.457   0.756   9.055
 6378WAT      O19375   6.360   8.317   9.436
 6378WAT     H119376   6.350   8.218   9.435
 6378WAT     H219377   6.457   8.342   9.430
 6379WAT      O19378   1.621   4.168   6.291
 6379WAT     H119379   1.698   4.216   6.334
 6379WAT     H219380   1.537   4.188   6.342
 6380WAT      O19381   1.187   1.810   9.291
 6380WAT     H119382   1.254   1.736   9.300
 6380WAT     H219383   1.186   1.864   9.375
 6381WAT      O19384   5.214   3.693   5.149
 6381WAT     H119385   5.241   3.599   5.169
 6381WAT     H219386   5.296   3.750   5.139
 6382WAT      O19387   0.184   9.306   4.729
 6382WAT     H119388   0.184   9.375   4.802
 6382WAT     H219389   0.105   9.246   4.741
 6383WAT      O19390   9.668   4.763   9.119
 6383WAT     H119391   9.692   4.832   9.187
 6383WAT     H219392   9.576   4.728   9.137
 6384WAT      O19393   9.266   7.734   5.604
 6384WAT     H119394   9.309   7.809   5.555
 6384WAT     H219395   9.234   7.766   5.693
 6385WAT      O19396   5.728   9.763   7.162
 6385WAT     H119397   5.651   9.741   7.102
 6385WAT     H219398   5.791   9.685   7.164
 6386WAT      O19399   4.271   0.492   2.378
 6386WAT     H119400   4.313   0.582   2.391
 6386WAT     H219401   4.336   0.433   2.330
 6387WAT      O19402   5.971   3.502   8.526
 6387WAT     H119403   5.959   3.453   8.612
 6387WAT     H219404   5.916   3.458   8.455
 6388WAT      O19405   0.784   0.825   9.891
 6388WAT     H119406   0.827   0.904   9.935
 6388WAT     H219407   0.834   0.802   9.807
 6389WAT      O19408   7.175   1.320   8.143
 6389WAT     H119409   7.105   1.268   8.094
 6389WAT     H219410   7.212   1.390   8.084
 6390WAT      O19411   4.070   7.147   6.609
 6390WAT     H119412   4.046   7.194   6.523
 6390WAT     H219413   4.156   7.098   6.597
 6391WAT      O19414   2.582   8.285   9.567
 6391WAT     H119415   2.529   8.247   9.644
 6391WAT     H219416   2.588   8.216   9.495
 6392WAT      O19417   2.548   6.790   1.776
 6392WAT     H119418   2.476   6.847   1.817
 6392WAT     H219419   2.615   6.765   1.846
 6393WAT      O19420   8.209   4.473   9.239
 6393WAT     H119421   8.237   4.477   9.143
 6393WAT     H219422   8.285   4.503   9.297
 6394WAT      O19423   9.599   3.114   7.997
 6394WAT     H119424   9.547   3.176   7.938
 6394WAT     H219425   9.535   3.059   8.051
 6395WAT      O19426   5.335   4.279   2.625
 6395WAT     H119427   5.380   4.285   2.714
 6395WAT     H219428   5.264   4.349   2.619
 6396WAT      O19429   7.516   8.129   0.440
 6396WAT     H119430   7.579   8.056   0.466
 6396WAT     H219431   7.445   8.092   0.381
 6397WAT      O19432   3.612   7.671   8.191
 6397WAT     H119433   3.687   7.644   8.131
 6397WAT     H219434   3.583   7.764   8.170
 6398WAT      O19435   5.000   5.095   3.462
 6398WAT     H119436   4.919   5.037   3.464
 6398WAT     H219437   4.972   5.191   3.452
 6399WAT      O19438   5.865   4.174   5.757
 6399WAT     H119439   5.907   4.247   5.702
 6399WAT     H219440   5.783   4.141   5.711
 6400WAT      O19441   2.150   2.941   9.213
 6400WAT     H119442   2.117   2.950   9.119
 6400WAT     H219443   2.072   2.930   9.274
 6401WAT      O19444   2.572   3.755   2.965
 6401WAT     H119445   2.566   3.819   2.888
 6401WAT     H219446   2.587   3.662   2.930
 6402WAT      O19447   4.708   0.870   5.120
 6402WAT     H119448   4.701   0.793   5.056
 6402WAT     H219449   4.627   0.873   5.178
 6403WAT      O19450   2.202   5.577   3.659
 6403WAT     H119451   2.197   5.617   3.750
 6403WAT     H219452   2.110   5.564   3.623
 6404WAT      O19453   0.086   0.323   2.817
 6404WAT     H119454   0.000   0.346   2.863
 6404WAT     H219455   0.090   0.225   2.798
 6405WAT      O19456   3.113   6.401   7.809
 6405WAT     H119457   3.166   6.473   7.854
 6405WAT     H219458   3.151   6.382   7.719
 6406WAT      O19459   9.496   4.956   8.010
 6406WAT     H119460   9.544   4.893   7.949
 6406WAT     H219461   9.399   4.933   8.013
 6407WAT      O19462   5.113   1.026   3.834
 6407WAT     H119463   5.063   1.112   3.819
 6407WAT     H219464   5.211   1.045   3.837
 6408WAT      O19465   4.800   9.565   4.674
 6408WAT     H119466   4.884   9.546   4.623
 6408WAT     H219467   4.818   9.634   4.744
 6409WAT      O19468   5.883   0.564   4.697
 6409WAT     H119469   5.852   0.506   4.772
 6409WAT     H219470   5.832   0.541   4.614
 6410WAT      O19471   8.779   2.692   2.309
 6410WAT     H119472   8.749   2.787   2.310
 6410WAT     H219473   8.879   2.688   2.320
 6411WAT      O19474   5.041   3.209   8.507
 6411WAT     H119475   4.947   3.242   8.512
 6411WAT     H219476   5.079   3.229   8.416
 6412WAT      O19477   2.364   7.045   7.486
 6412WAT     H119478   2.332   7.134   7.518
 6412WAT     H219479   2.296   6.975   7.508
 6413WAT      O19480   9.045   2.443   6.348
 6413WAT     H119481   8.978   2.515   6.329
 6413WAT     H219482   9.137   2.480   6.338
 6414WAT      O19483   7.081   6.611   2.133
 6414WAT     H119484   7.053   6.634   2.040
 6414WAT     H219485   7.153   6.674   2.163
 6415WAT      O19486   1.953   0.902   5.079
 6415WAT     H119487   1.999   0.934   5.161
 6415WAT     H219488   1.935   0.979   5.018
 6416WAT      O19489   7.226   4.129   7.029
 6416WAT     H119490   7.271   4.040   7.042
 6416WAT     H219491   7.201   4.167   7.118
 6417WAT      O19492   6.444   9.369   7.641
 6417WAT     H119493   6.457   9.424   7.559
 6417WAT     H219494   6.440   9.272   7.616
 6418WAT      O19495   2.572   8.418   1.339
 6418WAT     H119496   2.484   8.464   1.327
 6418WAT     H219497   2.639   8.458   1.276
 6419WAT      O19498   5.948   4.978   1.864
 6419WAT     H119499   5.967   5.054   1.927
 6419WAT     H219500   5.933   5.014   1.772
 6420WAT      O19501   3.815   6.750   4.865
 6420WAT     H119502   3.750   6.685   4.905
 6420WAT     H219503   3.802   6.752   4.766
 6421WAT      O19504   6.865   0.826   4.431
 6421WAT     H119505   6.873   0.727   4.419
 6421WAT     H219506   6.925   0.872   4.366
 6422WAT      O19507   3.463   4.084   8.821
 6422WAT     H119508   3.505   3.996   8.845
 6422WAT     H219509   3.416   4.121   8.902
 6423WAT      O19510   9.602   0.573   6.295
 6423WAT     H119511   9.628   0.479   6.320
 6423WAT     H219512   9.639   0.594   6.204
 6424WAT      O19513   1.854   1.861   6.323
 6424WAT     H119514   1.772   1.909   6.352
 6424WAT     H219515   1.892   1.905   6.242
 6425WAT      O19516   1.475   4.912   4.542
 6425WAT     H119517   1.430   4.832   4.582
 6425WAT     H219518   1.417   4.950   4.469
 6426WAT      O19519   6.133   1.352   0.574
 6426WAT     H119520   6.176   1.409   0.504
 6426WAT     H219521   6.057   1.302   0.534
 6427WAT      O19522   5.459   9.082   5.573
 6427WAT     H119523   5.514   9.006   5.606
 6427WAT     H219524   5.466   9.159   5.636
 6428WAT      O19525   2.596   8.908   9.530
 6428WAT     H119526   2.528   8.842   9.560
 6428WAT     H219527   2.582   8.929   9.434
 6429WAT      O19528   0.265   9.745   4.490
 6429WAT     H119529   0.277   9.651   4.459
 6429WAT     H219530   0.182   9.783   4.450
 6430WAT      O19531   1.250   4.989   6.729
 6430WAT     H119532   1.249   4.928   6.808
 6430WAT     H219533   1.168   4.974   6.674
 6431WAT      O19534   7.748   1.865   8.817
 6431WAT     H119535   7.718   1.829   8.728
 6431WAT     H219536   7.726   1.963   8.821
 6432WAT      O19537   7.060   4.849   9.710
 6432WAT     H119538   7.055   4.919   9.639
 6432WAT     H219539   7.112   4.883   9.788
 6433WAT      O19540   0.998   3.285   5.717
 6433WAT     H119541   0.962   3.367   5.762
 6433WAT     H219542   0.982   3.291   5.619
 6434WAT      O19543   6.234   6.481   0.064
 6434WAT     H119544   6.222   6.573   0.101
 6434WAT     H219545   6.238   6.415   0.139
 6435WAT      O19546   7.276   4.735   2.399
 6435WAT     H119547   7.196   4.732   2.458
 6435WAT     H219548   7.248   4.716   2.305
 6436WAT      O19549   8.357   3.551   5.425
 6436WAT     H119550   8.322   3.506   5.507
 6436WAT     H219551   8.371   3.648   5.443
 6437WAT      O19552   7.898   2.731   6.838
 6437WAT     H119553   7.972   2.757   6.900
 6437WAT     H219554   7.864   2.812   6.791
 6438WAT      O19555   3.850   1.969   0.129
 6438WAT     H119556   3.853   1.990   0.226
 6438WAT     H219557   3.756   1.979   0.095
 6439WAT      O19558   3.711   1.410   5.196
 6439WAT     H119559   3.709   1.348   5.117
 6439WAT     H219560   3.719   1.356   5.280
 6440WAT      O19561   2.310   8.168   8.815
 6440WAT     H119562   2.352   8.081   8.790
 6440WAT     H219563   2.263   8.158   8.903
 6441WAT      O19564   6.228   0.883   3.765
 6441WAT     H119565   6.163   0.925   3.828
 6441WAT     H219566   6.231   0.784   3.782
 6442WAT      O19567   7.710   6.022   7.548
 6442WAT     H119568   7.729   6.094   7.616
 6442WAT     H219569   7.654   5.951   7.590
 6443WAT      O19570   7.347   1.174   9.837
 6443WAT     H119571   7.436   1.162   9.793
 6443WAT     H219572   7.352   1.247   9.905
 6444WAT      O19573   6.817   8.754   7.925
 6444WAT     H119574   6.897   8.774   7.869
 6444WAT     H219575   6.845   8.706   8.008
 6445WAT      O19576   1.124   7.992   9.078
 6445WAT     H119577   1.186   7.945   9.142
 6445WAT     H219578   1.035   8.003   9.120
 6446WAT      O19579   0.881   8.140   4.576
 6446WAT     H119580   0.955   8.135   4.509
 6446WAT     H219581   0.904   8.083   4.655
 6447WAT      O19582   2.704   9.742   2.649
 6447WAT     H119583   2.797   9.729   2.682
 6447WAT     H219584   2.666   9.826   2.689
 6448WAT      O19585   0.021   7.885   0.337
 6448WAT     H119586  -0.022   7.795   0.341
 6448WAT     H219587   0.094   7.890   0.405
 6449WAT      O19588   4.373   3.809   6.492
 6449WAT     H119589   4.327   3.762   6.416
 6449WAT     H219590   4.450   3.862   6.456
 6450WAT      O19591   6.356   1.581   4.726
 6450WAT     H119592   6.435   1.632   4.762
 6450WAT     H219593   6.301   1.642   4.670
 6451WAT      O19594   2.665   8.158   7.178
 6451WAT     H119595   2.592   8.098   7.148
 6451WAT     H219596   2.750   8.106   7.188
 6452WAT      O19597   8.281   8.939   4.313
 6452WAT     H119598   8.325   8.892   4.390
 6452WAT     H219599   8.351   8.985   4.258
 6453WAT      O19600   5.640   5.903   0.007
 6453WAT     H119601   5.656   5.997  -0.022
 6453WAT     H219602   5.606   5.850  -0.071
 6454WAT      O19603   4.589   8.034   1.214
 6454WAT     H119604   4.533   8.117   1.213
 6454WAT     H219605   4.662   8.044   1.282
 6455WAT      O19606   8.931   6.985   3.946
 6455WAT     H119607   8.977   6.955   3.863
 6455WAT     H219608   8.857   6.920   3.968
 6456WAT      O19609   0.826   4.976   2.726
 6456WAT     H119610   0.862   4.986   2.633
 6456WAT     H219611   0.760   4.901   2.728
 6457WAT      O19612   6.078   2.692   3.034
 6457WAT     H119613   5.991   2.730   3.063
 6457WAT     H219614   6.136   2.676   3.113
 6458WAT      O19615   5.799   5.136   5.797
 6458WAT     H119616   5.734   5.134   5.874
 6458WAT     H219617   5.753   5.170   5.715
 6459WAT      O19618   4.855   6.409   5.487
 6459WAT     H119619   4.918   6.348   5.535
 6459WAT     H219620   4.852   6.497   5.534
 6460WAT      O19621   6.215   7.451   5.490
 6460WAT     H119622   6.215   7.351   5.484
 6460WAT     H219623   6.307   7.485   5.469
 6461WAT      O19624   5.721   2.051   9.046
 6461WAT     H119625   5.792   1.990   9.011
 6461WAT     H219626   5.679   2.010   9.128
 6462WAT      O19627   2.048   9.670   1.621
 6462WAT     H119628   1.976   9.661   1.552
 6462WAT     H219629   2.081   9.765   1.623
 6463WAT      O19630   6.904   4.638   4.558
 6463WAT     H119631   6.900   4.544   4.522
 6463WAT     H219632   6.870   4.701   4.489
 6464WAT      O19633   4.862   0.167   0.942
 6464WAT     H119634   4.772   0.209   0.947
 6464WAT     H219635   4.909   0.178   1.030
 6465WAT      O19636   5.939   1.099   0.670
 6465WAT     H119637   5.953   1.160   0.748
 6465WAT     H219638   5.969   1.007   0.695
 6466WAT      O19639   0.664   4.054   4.055
 6466WAT     H119640   0.684   4.114   4.133
 6466WAT     H219641   0.590   3.991   4.081
 6467WAT      O19642   0.227   9.582   4.208
 6467WAT     H119643   0.226   9.603   4.111
 6467WAT     H219644   0.147   9.622   4.252
 6468WAT      O19645   3.519   3.797   1.091
 6468WAT     H119646   3.568   3.819   1.175
 6468WAT     H219647   3.584   3.773   1.019
 6469WAT      O19648   1.278   8.244   5.278
 6469WAT     H119649   1.272   8.201   5.369
 6469WAT     H219650   1.286   8.172   5.209
 6470WAT      O19651   6.394   0.611   8.068
 6470WAT     H119652   6.420   0.686   8.129
 6470WAT     H219653   6.310   0.636   8.019
 6471WAT      O19654   1.812   5.608   5.595
 6471WAT     H119655   1.810   5.615   5.695
 6471WAT     H219656   1.843   5.516   5.569
 6472WAT      O19657   8.810   9.631   8.246
 6472WAT     H119658   8.769   9.714   8.207
 6472WAT     H219659   8.775   9.551   8.198
 6473WAT      O19660   1.462   9.788   8.186
 6473WAT     H119661   1.468   9.888   8.176
 6473WAT     H219662   1.417   9.766   8.273
 6474WAT      O19663   7.872   5.679   8.699
 6474WAT     H119664   7.777   5.706   8.689
 6474WAT     H219665   7.930   5.761   8.703
 6475WAT      O19666   9.518   0.569   0.581
 6475WAT     H119667   9.522   0.604   0.487
 6475WAT     H219668   9.423   0.572   0.613
 6476WAT      O19669   0.630   3.519   3.310
 6476WAT     H119670   0.712   3.463   3.298
 6476WAT     H219671   0.651   3.594   3.373
 6477WAT      O19672   7.178   4.085   8.796
 6477WAT     H119673   7.088   4.052   8.823
 6477WAT     H219674   7.169   4.177   8.758
 6478WAT      O19675   8.274   8.865   9.697
 6478WAT     H119676   8.289   8.885   9.600
 6478WAT     H219677   8.183   8.825   9.709
 6479WAT      O19678   1.427   4.239   6.478
 6479WAT     H119679   1.422   4.337   6.497
 6479WAT     H219680   1.448   4.189   6.562
 6480WAT      O19681   8.092   1.024   1.567
 6480WAT     H119682   8.117   0.960   1.494
 6480WAT     H219683   8.124   0.988   1.655
 6481WAT      O19684   6.586   6.167   7.189
 6481WAT     H119685   6.683   6.172   7.212
 6481WAT     H219686   6.576   6.146   7.092
 6482WAT      O19687   8.217   6.677   0.471
 6482WAT     H119688   8.300   6.716   0.432
 6482WAT     H219689   8.187   6.734   0.548
 6483WAT      O19690   7.477   8.678   9.262
 6483WAT     H119691   7.549   8.710   9.201
 6483WAT     H219692   7.518   8.631   9.340
 6484WAT      O19693   2.424   4.787   8.395
 6484WAT     H119694   2.341   4.842   8.408
 6484WAT     H219695   2.448   4.742   8.481
 6485WAT      O19696   2.252   3.126   3.546
 6485WAT     H119697   2.169   3.177   3.523
 6485WAT     H219698   2.237   3.077   3.632
 6486WAT      O19699   8.723   2.422   4.234
 6486WAT     H119700   8.753   2.347   4.174
 6486WAT     H219701   8.773   2.417   4.320
 6487WAT      O19702   0.634   6.733   5.290
 6487WAT     H119703   0.674   6.668   5.355
 6487WAT     H219704   0.618   6.820   5.336
 6488WAT      O19705   6.795   4.768   4.349
 6488WAT     H119706   6.726   4.696   4.340
 6488WAT     H219707   6.753   4.856   4.326
 6489WAT      O19708   2.056   3.606   1.057
 6489WAT     H119709   2.150   3.614   1.024
 6489WAT     H219710   1.998   3.568   0.986
 6490WAT      O19711   9.706   6.960   7.703
 6490WAT     H119712   9.635   6.971   7.633
 6490WAT     H219713   9.778   6.900   7.668
 6491WAT      O19714   7.467   6.449   9.885
 6491WAT     H119715   7.535   6.514   9.850
 6491WAT     H219716   7.428   6.396   9.809
 6492WAT      O19717   2.279   8.952   2.349
 6492WAT     H119718   2.363   8.954   2.295
 6492WAT     H219719   2.244   8.858   2.352
 6493WAT      O19720   1.622   2.779   4.700
 6493WAT     H119721   1.655   2.845   4.767
 6493WAT     H219722   1.530   2.805   4.671
 6494WAT      O19723   4.216   3.120   0.792
 6494WAT     H119724   4.132   3.065   0.785
 6494WAT     H219725   4.204   3.205   0.741
 6495WAT      O19726   7.533   7.770   0.435
 6495WAT     H119727   7.614   7.806   0.389
 6495WAT     H219728   7.460   7.755   0.369
 6496WAT      O19729   1.944   7.022   7.755
 6496WAT     H119730   1.996   6.936   7.748
 6496WAT     H219731   1.912   7.049   7.664
 6497WAT      O19732   1.119   7.564   4.103
 6497WAT     H119733   1.184   7.488   4.095
 6497WAT     H219734   1.169   7.650   4.106
 6498WAT      O19735   2.766   5.679   4.022
 6498WAT     H119736   2.825   5.750   3.983
 6498WAT     H219737   2.705   5.644   3.950
 6499WAT      O19738   3.512   3.321   0.146
 6499WAT     H119739   3.417   3.290   0.146
 6499WAT     H219740   3.550   3.313   0.239
 6500WAT      O19741   9.136   0.328   9.448
 6500WAT     H119742   9.059   0.377   9.409
 6500WAT     H219743   9.186   0.280   9.375
 6501WAT      O19744   0.384   6.145   2.907
 6501WAT     H119745   0.372   6.072   2.974
 6501WAT     H219746   0.433   6.221   2.948
 6502WAT      O19747   3.729   0.811   2.663
 6502WAT     H119748   3.738   0.714   2.645
 6502WAT     H219749   3.739   0.828   2.761
 6503WAT      O19750   8.989   9.699   2.026
 6503WAT     H119751   8.944   9.733   1.944
 6503WAT     H219752   9.077   9.744   2.038
 6504WAT      O19753   0.207   0.309   4.584
 6504WAT     H119754   0.166   0.223   4.616
 6504WAT     H219755   0.297   0.290   4.545
 6505WAT      O19756   4.634   2.676   0.884
 6505WAT     H119757   4.587   2.587   0.884
 6505WAT     H219758   4.612   2.725   0.800
 6506WAT      O19759   5.406   5.199   1.487
 6506WAT     H119760   5.479   5.171   1.549
 6506WAT     H219761   5.429   5.287   1.446
 6507WAT      O19762   4.621   8.388   2.692
 6507WAT     H119763   4.693   8.410   2.626
 6507WAT     H219764   4.532   8.407   2.651
 6508WAT      O19765   4.762   7.182   7.946
 6508WAT     H119766   4.692   7.111   7.940
 6508WAT     H219767   4.849   7.141   7.972
 6509WAT      O19768   0.032   9.382   9.337
 6509WAT     H119769  -0.008   9.414   9.423
 6509WAT     H219770  -0.017   9.301   9.305
 6510WAT      O19771   6.496   4.063   4.870
 6510WAT     H119772   6.465   4.129   4.937
 6510WAT     H219773   6.475   4.096   4.778
 6511WAT      O19774   3.648   5.247   2.012
 6511WAT     H119775   3.566   5.190   2.010
 6511WAT     H219776   3.680   5.256   2.106
 6512WAT      O19777   6.871   5.762   3.106
 6512WAT     H119778   6.819   5.847   3.109
 6512WAT     H219779   6.842   5.702   3.180
 6513WAT      O19780   4.581   8.541   4.621
 6513WAT     H119781   4.503   8.490   4.655
 6513WAT     H219782   4.608   8.611   4.688
 6514WAT      O19783   1.163   8.431   7.604
 6514WAT     H119784   1.117   8.408   7.690
 6514WAT     H219785   1.107   8.494   7.552
 6515WAT      O19786   8.708   7.449   9.541
 6515WAT     H119787   8.688   7.515   9.614
 6515WAT     H219788   8.775   7.489   9.478
 6516WAT      O19789   9.022   2.389   8.287
 6516WAT     H119790   9.116   2.395   8.322
 6516WAT     H219791   8.972   2.472   8.310
 6517WAT      O19792   2.337   2.174   2.356
 6517WAT     H119793   2.294   2.143   2.440
 6517WAT     H219794   2.430   2.206   2.376
 6518WAT      O19795   3.769   4.025   8.693
 6518WAT     H119796   3.733   4.105   8.741
 6518WAT     H219797   3.694   3.976   8.648
 6519WAT      O19798   9.118   7.691   1.032
 6519WAT     H119799   9.045   7.690   1.100
 6519WAT     H219800   9.118   7.604   0.982
 6520WAT      O19801   8.420   4.917   3.337
 6520WAT     H119802   8.348   4.877   3.280
 6520WAT     H219803   8.487   4.963   3.279
 6521WAT      O19804   5.167   8.963   5.248
 6521WAT     H119805   5.172   9.051   5.295
 6521WAT     H219806   5.084   8.915   5.277
 6522WAT      O19807   5.938   8.734   5.276
 6522WAT     H119808   6.008   8.797   5.309
 6522WAT     H219809   5.871   8.718   5.349
 6523WAT      O19810   5.081   3.228   5.413
 6523WAT     H119811   5.154   3.204   5.350
 6523WAT     H219812   5.045   3.318   5.390
 6524WAT      O19813   5.190   6.674   1.181
 6524WAT     H119814   5.138   6.748   1.222
 6524WAT     H219815   5.216   6.700   1.088
 6525WAT      O19816   7.550   5.997   1.587
 6525WAT     H119817   7.620   6.007   1.516
 6525WAT     H219818   7.524   6.087   1.621
 6526WAT      O19819   9.224   6.417   2.548
 6526WAT     H119820   9.258   6.413   2.454
 6526WAT     H219821   9.301   6.435   2.610
 6527WAT      O19822   9.786   8.075   8.195
 6527WAT     H119823   9.864   8.015   8.178
 6527WAT     H219824   9.819   8.166   8.221
 6528WAT      O19825   5.963   8.605   1.089
 6528WAT     H119826   5.981   8.602   1.188
 6528WAT     H219827   5.869   8.635   1.073
 6529WAT      O19828   4.272   5.832   6.394
 6529WAT     H119829   4.244   5.910   6.450
 6529WAT     H219830   4.193   5.793   6.348
 6530WAT      O19831   9.704   0.726   8.040
 6530WAT     H119832   9.674   0.753   8.131
 6530WAT     H219833   9.710   0.808   7.982
 6531WAT      O19834   0.634   6.992   9.508
 6531WAT     H119835   0.646   6.935   9.427
 6531WAT     H219836   0.590   6.939   9.580
 6532WAT      O19837   2.621   0.893   7.771
 6532WAT     H119838   2.638   0.795   7.763
 6532WAT     H219839   2.529   0.915   7.738
 6533WAT      O19840   5.150   3.309   8.827
 6533WAT     H119841   5.205   3.228   8.812
 6533WAT     H219842   5.177   3.380   8.762
 6534WAT      O19843   2.732   9.379   6.672
 6534WAT     H119844   2.657   9.376   6.605
 6534WAT     H219845   2.710   9.320   6.749
 6535WAT      O19846   7.682   8.025   2.499
 6535WAT     H119847   7.730   8.102   2.458
 6535WAT     H219848   7.632   7.975   2.428
 6536WAT      O19849   0.771   4.371   7.875
 6536WAT     H119850   0.694   4.320   7.836
 6536WAT     H219851   0.789   4.452   7.819
 6537WAT      O19852   4.130   8.390   9.869
 6537WAT     H119853   4.116   8.314   9.806
 6537WAT     H219854   4.118   8.476   9.820
 6538WAT      O19855   9.405   4.965   9.381
 6538WAT     H119856   9.348   4.885   9.402
 6538WAT     H219857   9.383   5.039   9.445
 6539WAT      O19858   7.524   6.996   9.671
 6539WAT     H119859   7.510   6.975   9.768
 6539WAT     H219860   7.507   6.914   9.616
 6540WAT      O19861   9.782   3.510   4.947
 6540WAT     H119862   9.715   3.446   4.985
 6540WAT     H219863   9.789   3.497   4.849
 6541WAT      O19864   3.613   1.814   2.134
 6541WAT     H119865   3.588   1.727   2.091
 6541WAT     H219866   3.680   1.861   2.077
 6542WAT      O19867   8.817   7.297   8.321
 6542WAT     H119868   8.773   7.207   8.322
 6542WAT     H219869   8.841   7.323   8.414
 6543WAT      O19870   4.180   1.432   6.487
 6543WAT     H119871   4.133   1.348   6.512
 6543WAT     H219872   4.246   1.413   6.415
 6544WAT      O19873   5.548   6.483   5.783
 6544WAT     H119874   5.554   6.385   5.804
 6544WAT     H219875   5.627   6.510   5.729
 6545WAT      O19876   9.521   8.268   3.507
 6545WAT     H119877   9.460   8.325   3.451
 6545WAT     H219878   9.483   8.260   3.599
 6546WAT      O19879   1.914   1.320   6.046
 6546WAT     H119880   1.877   1.235   6.008
 6546WAT     H219881   2.006   1.302   6.082
 6547WAT      O19882   9.210   9.183   6.432
 6547WAT     H119883   9.178   9.110   6.372
 6547WAT     H219884   9.277   9.239   6.384
 6548WAT      O19885   3.397   3.365   3.924
 6548WAT     H119886   3.329   3.328   3.988
 6548WAT     H219887   3.441   3.445   3.965
 6549WAT      O19888   4.882   4.598   6.772
 6549WAT     H119889   4.792   4.573   6.808
 6549WAT     H219890   4.911   4.532   6.703
 6550WAT      O19891   0.079   4.832   0.116
 6550WAT     H119892   0.018   4.755   0.134
 6550WAT     H219893   0.114   4.825   0.022
 6551WAT      O19894   6.539   9.422   4.225
 6551WAT     H119895   6.584   9.375   4.149
 6551WAT     H219896   6.585   9.509   4.242
 6552WAT      O19897   3.689   1.282   9.188
 6552WAT     H119898   3.632   1.229   9.124
 6552WAT     H219899   3.638   1.362   9.219
 6553WAT      O19900   6.322   0.108   6.943
 6553WAT     H119901   6.388   0.183   6.939
 6553WAT     H219902   6.234   0.142   6.975
 6554WAT      O19903   6.277   8.428   1.120
 6554WAT     H119904   6.292   8.358   1.051
 6554WAT     H219905   6.259   8.516   1.076
 6555WAT      O19906   9.614   1.737   3.472
 6555WAT     H119907   9.603   1.660   3.410
 6555WAT     H219908   9.598   1.707   3.566
 6556WAT      O19909   0.836   6.634   8.856
 6556WAT     H119910   0.881   6.695   8.920
 6556WAT     H219911   0.757   6.681   8.816
 6557WAT      O19912   8.657   6.895   1.952
 6557WAT     H119913   8.696   6.877   2.042
 6557WAT     H219914   8.591   6.823   1.929
 6558WAT      O19915   0.356   4.203   4.519
 6558WAT     H119916   0.264   4.179   4.547
 6558WAT     H219917   0.361   4.210   4.420
 6559WAT      O19918   0.315   9.705   9.221
 6559WAT     H119919   0.246   9.635   9.210
 6559WAT     H219920   0.333   9.748   9.133
 6560WAT      O19921   7.850   8.257   9.654
 6560WAT     H119922   7.817   8.349   9.673
 6560WAT     H219923   7.843   8.202   9.737
 6561WAT      O19924   4.467   2.308   7.015
 6561WAT     H119925   4.370   2.318   7.039
 6561WAT     H219926   4.476   2.249   6.935
 6562WAT      O19927   1.776   9.676   3.102
 6562WAT     H119928   1.855   9.642   3.052
 6562WAT     H219929   1.805   9.711   3.191
 6563WAT      O19930   6.931   7.984   6.202
 6563WAT     H119931   7.002   7.925   6.164
 6563WAT     H219932   6.929   7.974   6.302
 6564WAT      O19933   2.177   2.257   8.543
 6564WAT     H119934   2.183   2.263   8.443
 6564WAT     H219935   2.270   2.255   8.581
 6565WAT      O19936   9.757   0.457   1.587
 6565WAT     H119937   9.708   0.515   1.652
 6565WAT     H219938   9.765   0.505   1.500
 6566WAT      O19939   3.242   8.742   8.970
 6566WAT     H119940   3.226   8.767   9.066
 6566WAT     H219941   3.327   8.689   8.963
 6567WAT      O19942   9.608   1.345   9.713
 6567WAT     H119943   9.565   1.431   9.685
 6567WAT     H219944   9.550   1.300   9.780
 6568WAT      O19945   6.698   3.978   8.770
 6568WAT     H119946   6.612   3.931   8.789
 6568WAT     H219947   6.680   4.075   8.752
 6569WAT      O19948   7.736   3.715   0.958
 6569WAT     H119949   7.769   3.621   0.950
 6569WAT     H219950   7.754   3.749   1.050
 6570WAT      O19951   1.965   4.139   7.538
 6570WAT     H119952   2.014   4.180   7.461
 6570WAT     H219953   2.027   4.131   7.616
 6571WAT      O19954   0.534   2.947   0.141
 6571WAT     H119955   0.457   2.933   0.079
 6571WAT     H219956   0.528   3.037   0.183
 6572WAT      O19957   5.019   8.128   3.131
 6572WAT     H119958   5.103   8.183   3.130
 6572WAT     H219959   5.017   8.072   3.213
 6573WAT      O19960   9.255   2.581   6.265
 6573WAT     H119961   9.230   2.544   6.176
 6573WAT     H219962   9.338   2.636   6.256
 6574WAT      O19963   1.380   7.563   8.457
 6574WAT     H119964   1.387   7.656   8.420
 6574WAT     H219965   1.450   7.505   8.416
 6575WAT      O19966   9.788   4.402   6.408
 6575WAT     H119967   9.884   4.429   6.393
 6575WAT     H219968   9.784   4.328   6.475
 6576WAT      O19969   6.054   7.013   9.084
 6576WAT     H119970   6.030   7.045   9.175
 6576WAT     H219971   6.132   7.064   9.050
 6577WAT      O19972   7.401   5.823   6.477
 6577WAT     H119973   7.411   5.876   6.561
 6577WAT     H219974   7.363   5.882   6.405
 6578WAT      O19975   5.664   5.851   1.108
 6578WAT     H119976   5.579   5.860   1.056
 6578WAT     H219977   5.685   5.754   1.120
 6579WAT      O19978   3.269   2.566   5.820
 6579WAT     H119979   3.333   2.493   5.847
 6579WAT     H219980   3.281   2.586   5.723
 6580WAT      O19981   0.195   5.218   8.434
 6580WAT     H119982   0.271   5.273   8.471
 6580WAT     H219983   0.145   5.273   8.366
 6581WAT      O19984   5.708   0.092   1.042
 6581WAT     H119985   5.620   0.117   1.001
 6581WAT     H219986   5.696   0.010   1.098
 6582WAT      O19987   6.774   9.081   6.880
 6582WAT     H119988   6.701   9.074   6.948
 6582WAT     H219989   6.840   9.151   6.908
 6583WAT      O19990   3.565   1.745   9.475
 6583WAT     H119991   3.466   1.749   9.464
 6583WAT     H219992   3.594   1.807   9.547
 6584WAT      O19993   0.449   7.702   5.887
 6584WAT     H119994   0.463   7.762   5.965
 6584WAT     H219995   0.510   7.622   5.894
 6585WAT      O19996   1.156   9.328   5.067
 6585WAT     H119997   1.133   9.358   4.975
 6585WAT     H219998   1.191   9.235   5.065
 6586WAT      O19999   9.794   7.464   7.167
 6586WAT     H120000   9.746   7.544   7.204
 6586WAT     H220001   9.763   7.448   7.073
 6587WAT      O20002   3.066   2.230   6.133
 6587WAT     H120003   3.134   2.174   6.086
 6587WAT     H220004   2.981   2.232   6.081
 6588WAT      O20005   3.571   9.581   3.095
 6588WAT     H120006   3.547   9.642   3.170
 6588WAT     H220007   3.640   9.516   3.127
 6589WAT      O20008   9.788   8.490   4.380
 6589WAT     H120009   9.855   8.415   4.380
 6589WAT     H220010   9.792   8.538   4.468
 6590WAT      O20011   9.218   8.664   2.976
 6590WAT     H120012   9.164   8.590   2.935
 6590WAT     H220013   9.223   8.741   2.913
 6591WAT      O20014   8.456   7.183   8.075
 6591WAT     H120015   8.501   7.182   7.986
 6591WAT     H220016   8.429   7.277   8.098
 6592WAT      O20017   1.540   3.081   3.832
 6592WAT     H120018   1.575   3.129   3.912
 6592WAT     H220019   1.442   3.099   3.824
 6593WAT      O20020   8.736   1.039   0.038
 6593WAT     H120021   8.652   1.016   0.087
 6593WAT     H220022   8.780   1.117   0.083
 6594WAT      O20023   1.569   6.468   2.821
 6594WAT     H120024   1.596   6.404   2.749
 6594WAT     H220025   1.618   6.555   2.808
 6595WAT      O20026   6.700   3.363   6.579
 6595WAT     H120027   6.635   3.395   6.510
 6595WAT     H220028   6.650   3.325   6.657
 6596WAT      O20029   8.711   1.468   5.357
 6596WAT     H120030   8.713   1.565   5.380
 6596WAT     H220031   8.771   1.451   5.279
 6597WAT      O20032   3.180   8.906   2.586
 6597WAT     H120033   3.141   8.837   2.647
 6597WAT     H220034   3.236   8.861   2.516
 6598WAT      O20035   2.026   2.808   0.206
 6598WAT     H120036   1.928   2.812   0.187
 6598WAT     H220037   2.045   2.850   0.295
 6599WAT      O20038   9.118   7.103   5.303
 6599WAT     H120039   9.040   7.073   5.247
 6599WAT     H220040   9.101   7.196   5.336
 6600WAT      O20041   8.665   4.243   0.192
 6600WAT     H120042   8.727   4.220   0.117
 6600WAT     H220043   8.708   4.312   0.250
 6601WAT      O20044   7.891   8.081   9.259
 6601WAT     H120045   7.945   8.156   9.221
 6601WAT     H220046   7.839   8.036   9.186
 6602WAT      O20047   8.399   6.457   1.240
 6602WAT     H120048   8.427   6.520   1.313
 6602WAT     H220049   8.331   6.502   1.182
 6603WAT      O20050   2.197   5.317   1.172
 6603WAT     H120051   2.280   5.313   1.117
 6603WAT     H220052   2.222   5.327   1.269
 6604WAT      O20053   3.576   8.378   6.913
 6604WAT     H120054   3.611   8.299   6.963
 6604WAT     H220055   3.651   8.443   6.898
 6605WAT      O20056   4.367   7.200   9.690
 6605WAT     H120057   4.293   7.198   9.757
 6605WAT     H220058   4.434   7.269   9.716
 6606WAT      O20059   2.021   9.099   7.560
 6606WAT     H120060   2.079   9.172   7.596
 6606WAT     H220061   1.940   9.139   7.517
 6607WAT      O20062   3.246   8.011   2.389
 6607WAT     H120063   3.160   8.051   2.418
 6607WAT     H220064   3.322   8.057   2.435
 6608WAT      O20065   0.275   5.174   4.138
 6608WAT     H120066   0.191   5.145   4.094
 6608WAT     H220067   0.254   5.225   4.222
 6609WAT      O20068   9.308   1.057   4.742
 6609WAT     H120069   9.312   1.093   4.835
 6609WAT     H220070   9.254   1.119   4.685
 6610WAT      O20071   0.168   2.921   1.968
 6610WAT     H120072   0.184   2.906   1.870
 6610WAT     H220073   0.223   2.856   2.021
 6611WAT      O20074   2.177   0.224   8.224
 6611WAT     H120075   2.145   0.318   8.230
 6611WAT     H220076   2.115   0.172   8.165
 6612WAT      O20077   9.039   9.188   1.454
 6612WAT     H120078   9.027   9.284   1.427
 6612WAT     H220079   9.130   9.158   1.428
 6613WAT      O20080   7.808   3.329   6.931
 6613WAT     H120081   7.727   3.359   6.881
 6613WAT     H220082   7.802   3.231   6.949
 6614WAT      O20083   6.579   8.947   1.677
 6614WAT     H120084   6.532   9.013   1.618
 6614WAT     H220085   6.543   8.855   1.659
 6615WAT      O20086   5.074   0.747   4.381
 6615WAT     H120087   4.995   0.705   4.427
 6615WAT     H220088   5.043   0.825   4.327
 6616WAT      O20089   4.360   5.372   5.549
 6616WAT     H120090   4.385   5.314   5.627
 6616WAT     H220091   4.443   5.399   5.500
 6617WAT      O20092   6.610   7.732   7.945
 6617WAT     H120093   6.589   7.740   7.847
 6617WAT     H220094   6.668   7.652   7.960
 6618WAT      O20095   3.633   5.913   0.571
 6618WAT     H120096   3.547   5.906   0.622
 6618WAT     H220097   3.644   5.831   0.514
 6619WAT      O20098   4.550   4.261   3.862
 6619WAT     H120099   4.539   4.283   3.959
 6619WAT     H220100   4.579   4.343   3.813
 6620WAT      O20101   2.287   7.052   8.332
 6620WAT     H120102   2.318   7.146   8.326
 6620WAT     H220103   2.325   6.999   8.256
 6621WAT      O20104   8.768   7.056   0.820
 6621WAT     H120105   8.829   7.053   0.900
 6621WAT     H220106   8.819   7.030   0.738
 6622WAT      O20107   8.836   8.814   4.963
 6622WAT     H120108   8.906   8.880   4.991
 6622WAT     H220109   8.776   8.856   4.895
 6623WAT      O20110   8.758   2.874   0.217
 6623WAT     H120111   8.837   2.876   0.156
 6623WAT     H220112   8.678   2.843   0.166
 6624WAT      O20113   8.815   8.718   1.360
 6624WAT     H120114   8.875   8.759   1.291
 6624WAT     H220115   8.746   8.784   1.388
 6625WAT      O20116   9.884   3.447   8.230
 6625WAT     H120117   9.877   3.420   8.326
 6625WAT     H220118   9.827   3.527   8.213
 6626WAT      O20119   9.099   3.807   8.141
 6626WAT     H120120   9.086   3.867   8.219
 6626WAT     H220121   9.032   3.733   8.143
 6627WAT      O20122   5.867   3.393   8.292
 6627WAT     H120123   5.849   3.462   8.223
 6627WAT     H220124   5.863   3.302   8.251
 6628WAT      O20125   5.933   7.599   1.308
 6628WAT     H120126   6.012   7.659   1.320
 6628WAT     H220127   5.878   7.632   1.232
 6629WAT      O20128   0.704   2.149   2.510
 6629WAT     H120129   0.657   2.235   2.489
 6629WAT     H220130   0.771   2.165   2.582
 6630WAT      O20131   0.232   0.132   0.974
 6630WAT     H120132   0.231   0.071   0.894
 6630WAT     H220133   0.138   0.159   0.995
 6631WAT      O20134   3.315   2.979   8.211
 6631WAT     H120135   3.358   2.923   8.141
 6631WAT     H220136   3.248   3.040   8.169
 6632WAT      O20137   7.038   0.105   9.847
 6632WAT     H120138   7.003   0.199   9.839
 6632WAT     H220139   7.049   0.066   9.756
 6633WAT      O20140   5.280   8.111   2.474
 6633WAT     H120141   5.237   8.035   2.524
 6633WAT     H220142   5.378   8.112   2.493
 6634WAT      O20143   6.993   3.510   5.347
 6634WAT     H120144   6.930   3.541   5.276
 6634WAT     H220145   7.081   3.556   5.336
 6635WAT      O20146   2.945   7.735   8.201
 6635WAT     H120147   3.005   7.691   8.135
 6635WAT     H220148   2.866   7.676   8.219
 6636WAT      O20149   4.869   2.435   8.337
 6636WAT     H120150   4.961   2.448   8.301
 6636WAT     H220151   4.863   2.347   8.383
 6637WAT      O20152   1.051   1.243   4.476
 6637WAT     H120153   1.014   1.153   4.499
 6637WAT     H220154   1.051   1.254   4.376
 6638WAT      O20155   6.895   0.687   1.273
 6638WAT     H120156   6.796   0.671   1.277
 6638WAT     H220157   6.939   0.613   1.221
 6639WAT      O20158   2.401   5.195   9.613
 6639WAT     H120159   2.484   5.143   9.636
 6639WAT     H220160   2.337   5.192   9.690
 6640WAT      O20161   0.740   7.313   0.895
 6640WAT     H120162   0.706   7.282   0.984
 6640WAT     H220163   0.697   7.260   0.823
 6641WAT      O20164   6.333   4.449   4.177
 6641WAT     H120165   6.399   4.423   4.107
 6641WAT     H220166   6.278   4.526   4.144
 6642WAT      O20167   7.501   1.892   0.891
 6642WAT     H120168   7.520   1.911   0.795
 6642WAT     H220169   7.412   1.931   0.916
 6643WAT      O20170   8.356   4.360   2.579
 6643WAT     H120171   8.359   4.402   2.669
 6643WAT     H220172   8.320   4.267   2.586
 6644WAT      O20173   9.512   9.526   4.056
 6644WAT     H120174   9.474   9.438   4.029
 6644WAT     H220175   9.438   9.586   4.089
 6645WAT      O20176   1.470   8.120   1.783
 6645WAT     H120177   1.374   8.102   1.763
 6645WAT     H220178   1.482   8.131   1.881
 6646WAT      O20179   7.261   6.385   0.162
 6646WAT     H120180   7.190   6.351   0.100
 6646WAT     H220181   7.330   6.435   0.109
 6647WAT      O20182   3.073   4.878   4.134
 6647WAT     H120183   3.118   4.916   4.215
 6647WAT     H220184   3.129   4.805   4.095
 6648WAT      O20185   1.165   4.322   8.424
 6648WAT     H120186   1.259   4.345   8.452
 6648WAT     H220187   1.153   4.347   8.327
 6649WAT      O20188   0.493   0.112   4.768
 6649WAT     H120189   0.480   0.209   4.749
 6649WAT     H220190   0.406   0.064   4.762
 6650WAT      O20191   5.189   3.214   4.463
 6650WAT     H120192   5.232   3.290   4.414
 6650WAT     H220193   5.245   3.132   4.452
 6651WAT      O20194   5.943   3.995   8.603
 6651WAT     H120195   5.982   3.905   8.584
 6651WAT     H220196   5.883   4.022   8.527
 6652WAT      O20197   5.699   9.528   2.067
 6652WAT     H120198   5.604   9.505   2.090
 6652WAT     H220199   5.752   9.539   2.150
 6653WAT      O20200   9.867   2.661   8.752
 6653WAT     H120201   9.873   2.716   8.668
 6653WAT     H220202   9.811   2.580   8.735
 6654WAT      O20203   8.737   1.406   8.192
 6654WAT     H120204   8.689   1.413   8.280
 6654WAT     H220205   8.762   1.310   8.176
 6655WAT      O20206   4.515   5.884   9.794
 6655WAT     H120207   4.424   5.844   9.804
 6655WAT     H220208   4.571   5.823   9.738
 6656WAT      O20209   1.528   8.476   0.934
 6656WAT     H120210   1.466   8.549   0.905
 6656WAT     H220211   1.510   8.394   0.880
 6657WAT      O20212   9.663   7.516   9.727
 6657WAT     H120213   9.714   7.431   9.738
 6657WAT     H220214   9.720   7.593   9.755
 6658WAT      O20215   9.829   2.573   8.086
 6658WAT     H120216   9.917   2.604   8.048
 6658WAT     H220217   9.809   2.481   8.052
 6659WAT      O20218   8.811   9.339   4.680
 6659WAT     H120219   8.842   9.425   4.639
 6659WAT     H220220   8.797   9.353   4.778
 6660WAT      O20221   8.915   0.926   7.377
 6660WAT     H120222   8.961   0.979   7.306
 6660WAT     H220223   8.982   0.898   7.447
 6661WAT      O20224   2.614   5.382   0.749
 6661WAT     H120225   2.514   5.381   0.750
 6661WAT     H220226   2.647   5.457   0.806
 6662WAT      O20227   5.167   2.775   7.931
 6662WAT     H120228   5.231   2.828   7.874
 6662WAT     H220229   5.164   2.681   7.897
 6663WAT      O20230   5.248   4.714   7.654
 6663WAT     H120231   5.289   4.804   7.668
 6663WAT     H220232   5.179   4.719   7.583
 6664WAT      O20233   5.054   1.780   6.069
 6664WAT     H120234   5.035   1.727   6.152
 6664WAT     H220235   5.051   1.719   5.990
 6665WAT      O20236   9.008   4.035   7.981
 6665WAT     H120237   9.051   3.956   8.025
 6665WAT     H220238   9.056   4.118   8.009
 6666WAT      O20239   2.847   9.363   2.676
 6666WAT     H120240   2.775   9.395   2.614
 6666WAT     H220241   2.817   9.279   2.721
 6667WAT      O20242   3.039   1.177   4.959
 6667WAT     H120243   3.011   1.183   5.055
 6667WAT     H220244   3.015   1.262   4.912
 6668WAT      O20245   4.597   1.109   8.490
 6668WAT     H120246   4.564   1.033   8.547
 6668WAT     H220247   4.601   1.193   8.544
 6669WAT      O20248   4.290   9.007   1.912
 6669WAT     H120249   4.266   8.982   1.818
 6669WAT     H220250   4.377   8.965   1.937
 6670WAT      O20251   5.479   0.196   0.611
 6670WAT     H120252   5.548   0.131   0.582
 6670WAT     H220253   5.467   0.190   0.710
 6671WAT      O20254   6.205   4.488   6.463
 6671WAT     H120255   6.257   4.411   6.426
 6671WAT     H220256   6.107   4.474   6.444
 6672WAT      O20257   1.443   0.584   8.057
 6672WAT     H120258   1.376   0.613   8.125
 6672WAT     H220259   1.395   0.559   7.972
 6673WAT      O20260   0.045   9.682   7.370
 6673WAT     H120261   0.119   9.627   7.408
 6673WAT     H220262   0.065   9.705   7.275
 6674WAT      O20263   3.386   2.174   0.437
 6674WAT     H120264   3.374   2.163   0.338
 6674WAT     H220265   3.346   2.261   0.466
 6675WAT      O20266   1.483   8.450   4.243
 6675WAT     H120267   1.521   8.367   4.284
 6675WAT     H220268   1.523   8.530   4.287
 6676WAT      O20269   7.059   2.104   9.570
 6676WAT     H120270   7.090   2.009   9.566
 6676WAT     H220271   6.959   2.107   9.573
 6677WAT      O20272   2.520   7.704   3.535
 6677WAT     H120273   2.514   7.693   3.634
 6677WAT     H220274   2.454   7.773   3.505
 6678WAT      O20275   9.406   3.534   2.544
 6678WAT     H120276   9.494   3.575   2.521
 6678WAT     H220277   9.383   3.463   2.476
 6679WAT      O20278   6.706   2.000   3.403
 6679WAT     H120279   6.776   2.055   3.356
 6679WAT     H220280   6.744   1.911   3.426
 6680WAT      O20281   2.342   5.045   3.872
 6680WAT     H120282   2.434   5.083   3.859
 6680WAT     H220283   2.287   5.111   3.924
 6681WAT      O20284   7.911   0.973   8.277
 6681WAT     H120285   7.898   0.966   8.178
 6681WAT     H220286   7.822   0.989   8.321
 6682WAT      O20287   2.385   3.801   5.142
 6682WAT     H120288   2.372   3.899   5.127
 6682WAT     H220289   2.337   3.750   5.071
 6683WAT      O20290   2.678   4.005   0.135
 6683WAT     H120291   2.613   3.943   0.180
 6683WAT     H220292   2.696   4.083   0.196
 6684WAT      O20293   2.362   8.773   9.644
 6684WAT     H120294   2.263   8.764   9.652
 6684WAT     H220295   2.404   8.683   9.639
 6685WAT      O20296   1.273   2.954   1.487
 6685WAT     H120297   1.253   3.051   1.494
 6685WAT     H220298   1.218   2.913   1.414
 6686WAT      O20299   6.734   2.632   3.067
 6686WAT     H120300   6.788   2.592   3.141
 6686WAT     H220301   6.780   2.618   2.980
 6687WAT      O20302   5.132   9.533   8.819
 6687WAT     H120303   5.168   9.441   8.834
 6687WAT     H220304   5.194   9.585   8.760
 6688WAT      O20305   3.317   0.058   8.020
 6688WAT     H120306   3.225   0.030   8.049
 6688WAT     H220307   3.369   0.088   8.100
 6689WAT      O20308   4.233   5.631   4.531
 6689WAT     H120309   4.251   5.643   4.629
 6689WAT     H220310   4.156   5.569   4.518
 6690WAT      O20311   7.853   1.786   7.194
 6690WAT     H120312   7.820   1.774   7.288
 6690WAT     H220313   7.888   1.698   7.160
 6691WAT      O20314   8.589   4.978   2.358
 6691WAT     H120315   8.651   5.036   2.306
 6691WAT     H220316   8.603   4.882   2.332
 6692WAT      O20317   0.630   5.141   5.372
 6692WAT     H120318   0.704   5.105   5.429
 6692WAT     H220319   0.645   5.112   5.277
 6693WAT      O20320   5.917   2.356   5.027
 6693WAT     H120321   5.841   2.367   4.963
 6693WAT     H220322   5.881   2.347   5.120
 6694WAT      O20323   9.678   3.855   1.827
 6694WAT     H120324   9.754   3.792   1.845
 6694WAT     H220325   9.630   3.825   1.744
 6695WAT      O20326   1.657   5.987   7.446
 6695WAT     H120327   1.724   6.012   7.376
 6695WAT     H220328   1.679   5.896   7.481
 6696WAT      O20329   8.202   7.713   1.081
 6696WAT     H120330   8.277   7.762   1.036
 6696WAT     H220331   8.238   7.632   1.128
 6697WAT      O20332   8.799   4.229   1.928
 6697WAT     H120333   8.886   4.192   1.893
 6697WAT     H220334   8.781   4.317   1.885
 6698WAT      O20335   2.994   5.670   4.333
 6698WAT     H120336   2.931   5.662   4.410
 6698WAT     H220337   3.088   5.654   4.365
 6699WAT      O20338   2.988   1.159   8.075
 6699WAT     H120339   2.921   1.100   8.121
 6699WAT     H220340   3.080   1.137   8.107
 6700WAT      O20341   4.305   2.537   7.228
 6700WAT     H120342   4.212   2.549   7.260
 6700WAT     H220343   4.305   2.522   7.129
 6701WAT      O20344   1.062   9.015   2.919
 6701WAT     H120345   0.992   8.983   2.855
 6701WAT     H220346   1.081   8.942   2.985
 6702WAT      O20347   7.813   7.175   3.509
 6702WAT     H120348   7.849   7.178   3.416
 6702WAT     H220349   7.720   7.211   3.509
 6703WAT      O20350   0.787   5.989   1.541
 6703WAT     H120351   0.716   5.923   1.519
 6703WAT     H220352   0.876   5.943   1.543
 6704WAT      O20353   8.479   8.810   1.243
 6704WAT     H120354   8.388   8.836   1.209
 6704WAT     H220355   8.543   8.805   1.166
 6705WAT      O20356   4.833   2.459   1.711
 6705WAT     H120357   4.766   2.404   1.661
 6705WAT     H220358   4.914   2.403   1.731
 6706WAT      O20359   5.645   9.440   6.117
 6706WAT     H120360   5.671   9.517   6.176
 6706WAT     H220361   5.560   9.399   6.152
 6707WAT      O20362   1.329   6.978   7.045
 6707WAT     H120363   1.233   6.950   7.046
 6707WAT     H220364   1.335   7.075   7.069
 6708WAT      O20365   3.449   0.220   2.105
 6708WAT     H120366   3.456   0.240   2.203
 6708WAT     H220367   3.441   0.306   2.054
 6709WAT      O20368   4.652   8.646   7.586
 6709WAT     H120369   4.695   8.733   7.563
 6709WAT     H220370   4.555   8.649   7.562
 6710WAT      O20371   6.135   5.962   7.963
 6710WAT     H120372   6.131   5.910   7.877
 6710WAT     H220373   6.189   5.911   8.030
 6711WAT      O20374   3.293   4.394   1.793
 6711WAT     H120375   3.298   4.294   1.803
 6711WAT     H220376   3.341   4.421   1.710
 6712WAT      O20377   2.550   2.834   5.926
 6712WAT     H120378   2.464   2.860   5.881
 6712WAT     H220379   2.594   2.761   5.874
 6713WAT      O20380   5.070   2.896   0.203
 6713WAT     H120381   5.051   2.853   0.115
 6713WAT     H220382   5.163   2.874   0.232
 6714WAT      O20383   1.204   1.049   2.687
 6714WAT     H120384   1.124   1.082   2.637
 6714WAT     H220385   1.234   1.118   2.753
 6715WAT      O20386   3.783   7.709   8.461
 6715WAT     H120387   3.755   7.640   8.394
 6715WAT     H220388   3.873   7.745   8.436
 6716WAT      O20389   1.310   3.322   2.358
 6716WAT     H120390   1.227   3.354   2.312
 6716WAT     H220391   1.291   3.312   2.456
 6717WAT      O20392   7.350   3.097   2.728
 6717WAT     H120393   7.305   3.186   2.722
 6717WAT     H220394   7.283   3.025   2.711
 6718WAT      O20395   6.172   3.933   2.690
 6718WAT     H120396   6.163   3.978   2.778
 6718WAT     H220397   6.180   3.834   2.704
 6719WAT      O20398   1.217   2.662   7.940
 6719WAT     H120399   1.276   2.673   7.861
 6719WAT     H220400   1.258   2.707   8.019
 6720WAT      O20401   1.783   0.748   3.509
 6720WAT     H120402   1.758   0.843   3.491
 6720WAT     H220403   1.703   0.700   3.546
 6721WAT      O20404   7.716   6.295   9.240
 6721WAT     H120405   7.678   6.331   9.155
 6721WAT     H220406   7.659   6.323   9.317
 6722WAT      O20407   2.555   2.905   3.537
 6722WAT     H120408   2.496   2.915   3.457
 6722WAT     H220409   2.624   2.978   3.537
 6723WAT      O20410   5.814   6.928   8.914
 6723WAT     H120411   5.906   6.961   8.930
 6723WAT     H220412   5.814   6.828   8.912
 6724WAT      O20413   6.336   4.587   2.282
 6724WAT     H120414   6.343   4.557   2.377
 6724WAT     H220415   6.406   4.540   2.227
 6725WAT      O20416   8.431   8.429   6.417
 6725WAT     H120417   8.523   8.400   6.439
 6725WAT     H220418   8.413   8.415   6.319
 6726WAT      O20419   7.281   1.361   3.882
 6726WAT     H120420   7.309   1.284   3.825
 6726WAT     H220421   7.184   1.353   3.904
 6727WAT      O20422   2.329   0.199   7.323
 6727WAT     H120423   2.237   0.225   7.295
 6727WAT     H220424   2.356   0.252   7.404
 6728WAT      O20425   0.649   6.241   5.298
 6728WAT     H120426   0.613   6.149   5.285
 6728WAT     H220427   0.584   6.308   5.263
 6729WAT      O20428   3.433   8.858   0.141
 6729WAT     H120429   3.401   8.814   0.057
 6729WAT     H220430   3.427   8.793   0.217
 6730WAT      O20431   9.055   0.366   2.189
 6730WAT     H120432   9.010   0.295   2.134
 6730WAT     H220433   9.133   0.403   2.138
 6731WAT      O20434   1.579   1.114   0.304
 6731WAT     H120435   1.613   1.169   0.380
 6731WAT     H220436   1.598   1.161   0.218
 6732WAT      O20437   3.029   5.136   9.404
 6732WAT     H120438   2.978   5.222   9.412
 6732WAT     H220439   3.107   5.149   9.342
 6733WAT      O20440   6.894   6.692   6.363
 6733WAT     H120441   6.808   6.677   6.314
 6733WAT     H220442   6.951   6.611   6.355
 6734WAT      O20443   2.818   1.187   8.758
 6734WAT     H120444   2.760   1.112   8.792
 6734WAT     H220445   2.800   1.270   8.811
 6735WAT      O20446   5.349   5.522   7.720
 6735WAT     H120447   5.401   5.440   7.692
 6735WAT     H220448   5.339   5.583   7.641
 6736WAT      O20449   1.835   6.863   1.267
 6736WAT     H120450   1.748   6.907   1.246
 6736WAT     H220451   1.844   6.780   1.211
 6737WAT      O20452   3.327   8.100   6.079
 6737WAT     H120453   3.416   8.115   6.037
 6737WAT     H220454   3.255   8.137   6.020
 6738WAT      O20455   5.239   0.666   2.654
 6738WAT     H120456   5.200   0.620   2.734
 6738WAT     H220457   5.243   0.764   2.671
 6739WAT      O20458   9.679   1.451   7.315
 6739WAT     H120459   9.590   1.480   7.349
 6739WAT     H220460   9.685   1.351   7.318
 6740WAT      O20461   5.313   0.745   5.959
 6740WAT     H120462   5.369   0.777   6.035
 6740WAT     H220463   5.260   0.666   5.988
 6741WAT      O20464   7.905   4.839   5.505
 6741WAT     H120465   7.961   4.911   5.546
 6741WAT     H220466   7.880   4.866   5.412
 6742WAT      O20467   3.870   5.324   2.438
 6742WAT     H120468   3.829   5.331   2.529
 6742WAT     H220469   3.962   5.286   2.445
 6743WAT      O20470   5.271   3.842   9.643
 6743WAT     H120471   5.299   3.823   9.737
 6743WAT     H220472   5.351   3.872   9.590
 6744WAT      O20473   1.830   7.180   6.615
 6744WAT     H120474   1.833   7.263   6.559
 6744WAT     H220475   1.855   7.202   6.710
 6745WAT      O20476   7.932   9.319   7.684
 6745WAT     H120477   7.880   9.245   7.643
 6745WAT     H220478   7.874   9.369   7.749
 6746WAT      O20479   2.795   2.601   4.882
 6746WAT     H120480   2.711   2.586   4.831
 6746WAT     H220481   2.872   2.560   4.833
 6747WAT      O20482   6.866   3.590   4.144
 6747WAT     H120483   6.940   3.526   4.121
 6747WAT     H220484   6.797   3.544   4.199
 6748WAT      O20485   7.197   9.316   8.498
 6748WAT     H120486   7.197   9.360   8.408
 6748WAT     H220487   7.148   9.229   8.493
 6749WAT      O20488   8.545   8.793   3.576
 6749WAT     H120489   8.496   8.718   3.531
 6749WAT     H220490   8.494   8.879   3.562
 6750WAT      O20491   3.823   9.200   7.881
 6750WAT     H120492   3.763   9.270   7.842
 6750WAT     H220493   3.767   9.130   7.926
 6751WAT      O20494   3.172   6.310   3.891
 6751WAT     H120495   3.222   6.365   3.958
 6751WAT     H220496   3.145   6.223   3.933
 6752WAT      O20497   5.724   2.385   8.123
 6752WAT     H120498   5.649   2.452   8.122
 6752WAT     H220499   5.797   2.418   8.183
 6753WAT      O20500   4.217   6.479   6.481
 6753WAT     H120501   4.166   6.557   6.518
 6753WAT     H220502   4.315   6.498   6.487
 6754WAT      O20503   4.693   8.152   8.468
 6754WAT     H120504   4.621   8.096   8.426
 6754WAT     H220505   4.725   8.220   8.402
 6755WAT      O20506   5.865   9.728   3.815
 6755WAT     H120507   5.901   9.793   3.882
 6755WAT     H220508   5.779   9.691   3.847
 6756WAT      O20509   5.708   9.419   1.609
 6756WAT     H120510   5.683   9.328   1.643
 6756WAT     H220511   5.700   9.486   1.682
 6757WAT      O20512   5.262   5.912   9.083
 6757WAT     H120513   5.296   5.903   9.177
 6757WAT     H220514   5.164   5.933   9.086
 6758WAT      O20515   1.537   4.815   8.974
 6758WAT     H120516   1.588   4.901   8.971
 6758WAT     H220517   1.446   4.833   9.011
 6759WAT      O20518   4.732   7.128   2.152
 6759WAT     H120519   4.787   7.165   2.227
 6759WAT     H220520   4.790   7.115   2.072
 6760WAT      O20521   2.307   6.528   5.541
 6760WAT     H120522   2.272   6.445   5.498
 6760WAT     H220523   2.392   6.555   5.496
 6761WAT      O20524   0.481   4.682   0.292
 6761WAT     H120525   0.406   4.618   0.279
 6761WAT     H220526   0.497   4.732   0.207
 6762WAT      O20527   5.051   4.015   8.647
 6762WAT     H120528   5.130   4.075   8.642
 6762WAT     H220529   5.035   3.987   8.742
 6763WAT      O20530   7.676   4.189   4.304
 6763WAT     H120531   7.627   4.267   4.344
 6763WAT     H220532   7.654   4.182   4.207
 6764WAT      O20533   3.178   0.522   6.404
 6764WAT     H120534   3.232   0.590   6.354
 6764WAT     H220535   3.235   0.443   6.426
 6765WAT      O20536   2.681   1.593   9.480
 6765WAT     H120537   2.650   1.686   9.461
 6765WAT     H220538   2.675   1.538   9.396
 6766WAT      O20539   5.569   7.332   5.124
 6766WAT     H120540   5.578   7.302   5.219
 6766WAT     H220541   5.501   7.275   5.078
 6767WAT      O20542   3.248   4.817   9.056
 6767WAT     H120543   3.189   4.894   9.032
 6767WAT     H220544   3.238   4.797   9.154
 6768WAT      O20545   3.117   6.618   4.754
 6768WAT     H120546   3.042   6.573   4.803
 6768WAT     H220547   3.165   6.550   4.698
 6769WAT      O20548   4.671   4.515   4.530
 6769WAT     H120549   4.606   4.569   4.475
 6769WAT     H220550   4.629   4.429   4.556
 6770WAT      O20551   5.646   2.494   7.605
 6770WAT     H120552   5.562   2.548   7.606
 6770WAT     H220553   5.725   2.555   7.614
 6771WAT      O20554   8.940   3.282   9.626
 6771WAT     H120555   8.999   3.230   9.688
 6771WAT     H220556   8.884   3.345   9.679
 6772WAT      O20557   4.784   5.688   5.825
 6772WAT     H120558   4.809   5.745   5.903
 6772WAT     H220559   4.824   5.726   5.742
 6773WAT      O20560   4.171   8.285   3.754
 6773WAT     H120561   4.208   8.378   3.764
 6773WAT     H220562   4.234   8.220   3.795
 6774WAT      O20563   7.632   5.837   8.897
 6774WAT     H120564   7.678   5.886   8.823
 6774WAT     H220565   7.533   5.833   8.878
 6775WAT      O20566   7.019   3.817   5.815
 6775WAT     H120567   7.024   3.741   5.750
 6775WAT     H220568   7.012   3.903   5.764
 6776WAT      O20569   9.111   6.670   1.233
 6776WAT     H120570   9.168   6.744   1.199
 6776WAT     H220571   9.145   6.638   1.321
 6777WAT      O20572   8.737   8.205   1.691
 6777WAT     H120573   8.695   8.283   1.643
 6777WAT     H220574   8.727   8.123   1.635
 6778WAT      O20575   3.020   5.770   7.766
 6778WAT     H120576   2.920   5.771   7.761
 6778WAT     H220577   3.051   5.683   7.803
 6779WAT      O20578   8.787   0.385   2.544
 6779WAT     H120579   8.764   0.363   2.639
 6779WAT     H220580   8.742   0.470   2.517
 6780WAT      O20581   9.210   5.086   7.847
 6780WAT     H120582   9.263   5.168   7.826
 6780WAT     H220583   9.112   5.106   7.838
 6781WAT      O20584   7.513   5.166   3.838
 6781WAT     H120585   7.594   5.184   3.893
 6781WAT     H220586   7.541   5.127   3.750
 6782WAT      O20587   0.788   4.465   1.930
 6782WAT     H120588   0.878   4.506   1.945
 6782WAT     H220589   0.799   4.379   1.881
 6783WAT      O20590   8.634   3.474   1.939
 6783WAT     H120591   8.573   3.424   2.000
 6783WAT     H220592   8.675   3.551   1.989
 6784WAT      O20593   8.856   6.240   2.464
 6784WAT     H120594   8.864   6.212   2.369
 6784WAT     H220595   8.830   6.161   2.520
 6785WAT      O20596   6.869   3.768   1.297
 6785WAT     H120597   6.882   3.701   1.224
 6785WAT     H220598   6.947   3.765   1.359
 6786WAT      O20599   6.956   0.072   1.573
 6786WAT     H120600   6.929   0.155   1.621
 6786WAT     H220601   6.920  -0.008   1.622
 6787WAT      O20602   6.857   9.129   4.802
 6787WAT     H120603   6.832   9.215   4.759
 6787WAT     H220604   6.924   9.081   4.745
 6788WAT      O20605   6.586   2.287   2.082
 6788WAT     H120606   6.544   2.225   2.015
 6788WAT     H220607   6.527   2.366   2.095
 6789WAT      O20608   0.650   4.816   5.497
 6789WAT     H120609   0.736   4.865   5.506
 6789WAT     H220610   0.574   4.881   5.503
 6790WAT      O20611   0.259   2.486   0.020
 6790WAT     H120612   0.331   2.506   0.086
 6790WAT     H220613   0.206   2.569   0.003
 6791WAT      O20614   8.750   6.649   8.549
 6791WAT     H120615   8.760   6.559   8.506
 6791WAT     H220616   8.729   6.638   8.646
 6792WAT      O20617   0.039   9.541   5.373
 6792WAT     H120618  -0.056   9.517   5.349
 6792WAT     H220619   0.095   9.458   5.371
 6793WAT      O20620   2.416   0.046   3.013
 6793WAT     H120621   2.433  -0.032   3.074
 6793WAT     H220622   2.320   0.071   3.017
 6794WAT      O20623   2.820   8.227   6.312
 6794WAT     H120624   2.725   8.222   6.342
 6794WAT     H220625   2.878   8.180   6.379
 6795WAT      O20626   4.210   4.721   7.444
 6795WAT     H120627   4.293   4.736   7.389
 6795WAT     H220628   4.197   4.623   7.458
 6796WAT      O20629   4.877   4.247   8.510
 6796WAT     H120630   4.801   4.312   8.501
 6796WAT     H220631   4.866   4.194   8.595
 6797WAT      O20632   1.599   3.732   8.590
 6797WAT     H120633   1.567   3.783   8.510
 6797WAT     H220634   1.549   3.646   8.596
 6798WAT      O20635   5.745   9.523   8.710
 6798WAT     H120636   5.664   9.478   8.748
 6798WAT     H220637   5.820   9.515   8.775
 6799WAT      O20638   7.569   7.559   0.593
 6799WAT     H120639   7.663   7.571   0.624
 6799WAT     H220640   7.537   7.642   0.548
 6800WAT      O20641   1.936   1.126   4.172
 6800WAT     H120642   1.964   1.034   4.199
 6800WAT     H220643   1.878   1.121   4.090
 6801WAT      O20644   2.330   8.553   9.200
 6801WAT     H120645   2.341   8.456   9.178
 6801WAT     H220646   2.234   8.579   9.189
 6802WAT      O20647   5.983   1.199   1.414
 6802WAT     H120648   6.069   1.205   1.364
 6802WAT     H220649   6.003   1.196   1.512
 6803WAT      O20650   0.925   1.333   1.430
 6803WAT     H120651   0.916   1.234   1.420
 6803WAT     H220652   0.867   1.364   1.505
 6804WAT      O20653   1.725   5.094   0.497
 6804WAT     H120654   1.814   5.103   0.454
 6804WAT     H220655   1.661   5.049   0.435
 6805WAT      O20656   7.500   3.103   2.156
 6805WAT     H120657   7.444   3.184   2.139
 6805WAT     H220658   7.484   3.035   2.084
 6806WAT      O20659   0.603   9.478   8.460
 6806WAT     H120660   0.600   9.554   8.395
 6806WAT     H220661   0.656   9.505   8.540
 6807WAT      O20662   7.477   0.807   6.907
 6807WAT     H120663   7.487   0.790   6.809
 6807WAT     H220664   7.390   0.855   6.924
 6808WAT      O20665   5.957   5.084   8.608
 6808WAT     H120666   5.904   5.000   8.605
 6808WAT     H220667   6.003   5.098   8.521
 6809WAT      O20668   6.226   3.724   1.525
 6809WAT     H120669   6.299   3.745   1.591
 6809WAT     H220670   6.239   3.632   1.490
 6810WAT      O20671   8.277   4.277   4.792
 6810WAT     H120672   8.296   4.184   4.825
 6810WAT     H220673   8.303   4.343   4.862
 6811WAT      O20674   5.257   6.323   3.840
 6811WAT     H120675   5.216   6.265   3.910
 6811WAT     H220676   5.355   6.306   3.835
 6812WAT      O20677   8.272   3.963   7.908
 6812WAT     H120678   8.341   4.034   7.919
 6812WAT     H220679   8.208   3.990   7.836
 6813WAT      O20680   5.764   4.997   2.733
 6813WAT     H120681   5.745   5.054   2.654
 6813WAT     H220682   5.678   4.978   2.782
 6814WAT      O20683   8.237   5.519   9.003
 6814WAT     H120684   8.277   5.507   9.093
 6814WAT     H220685   8.211   5.615   8.990
 6815WAT      O20686   8.936   3.960   1.391
 6815WAT     H120687   8.891   4.026   1.332
 6815WAT     H220688   9.034   3.958   1.371
 6816WAT      O20689   5.547   1.055   7.326
 6816WAT     H120690   5.561   1.146   7.364
 6816WAT     H220691   5.500   1.062   7.238
 6817WAT      O20692   3.777   8.491   2.671
 6817WAT     H120693   3.778   8.530   2.579
 6817WAT     H220694   3.835   8.410   2.673
 6818WAT      O20695   6.660   6.265   3.408
 6818WAT     H120696   6.641   6.221   3.496
 6818WAT     H220697   6.585   6.247   3.345
 6819WAT      O20698   8.792   4.292   4.707
 6819WAT     H120699   8.718   4.359   4.697
 6819WAT     H220700   8.806   4.245   4.620
 6820WAT      O20701   9.363   5.835   9.804
 6820WAT     H120702   9.419   5.911   9.837
 6820WAT     H220703   9.421   5.756   9.787
 6821WAT      O20704   8.442   6.655   4.771
 6821WAT     H120705   8.442   6.588   4.845
 6821WAT     H220706   8.439   6.608   4.683
 6822WAT      O20707   2.376   7.499   4.423
 6822WAT     H120708   2.372   7.467   4.328
 6822WAT     H220709   2.335   7.590   4.429
 6823WAT      O20710   7.696   6.846   7.239
 6823WAT     H120711   7.767   6.835   7.170
 6823WAT     H220712   7.734   6.823   7.329
 6824WAT      O20713   3.650   5.146   8.579
 6824WAT     H120714   3.738   5.168   8.535
 6824WAT     H220715   3.663   5.071   8.643
 6825WAT      O20716   6.761   6.997   7.166
 6825WAT     H120717   6.834   6.943   7.209
 6825WAT     H220718   6.697   7.028   7.237
 6826WAT      O20719   4.029   6.989   9.310
 6826WAT     H120720   4.081   6.919   9.261
 6826WAT     H220721   3.967   6.946   9.375
 6827WAT      O20722   9.418   5.368   8.930
 6827WAT     H120723   9.469   5.451   8.910
 6827WAT     H220724   9.355   5.386   9.006
 6828WAT      O20725   8.971   4.501   0.391
 6828WAT     H120726   9.012   4.477   0.479
 6828WAT     H220727   8.988   4.597   0.372
 6829WAT      O20728   9.261   0.721   2.688
 6829WAT     H120729   9.186   0.669   2.648
 6829WAT     H220730   9.256   0.715   2.788
 6830WAT      O20731   2.443   9.215   1.020
 6830WAT     H120732   2.494   9.207   0.935
 6830WAT     H220733   2.372   9.145   1.023
 6831WAT      O20734   6.795   5.914   4.271
 6831WAT     H120735   6.834   5.844   4.331
 6831WAT     H220736   6.699   5.928   4.293
 6832WAT      O20737   7.121   3.746   7.597
 6832WAT     H120738   7.043   3.763   7.536
 6832WAT     H220739   7.099   3.777   7.689
 6833WAT      O20740   7.874   9.017   5.227
 6833WAT     H120741   7.810   8.965   5.282
 6833WAT     H220742   7.946   8.957   5.192
 6834WAT      O20743   7.400   7.860   5.846
 6834WAT     H120744   7.471   7.823   5.787
 6834WAT     H220745   7.311   7.823   5.818
 6835WAT      O20746   8.673   0.066   3.377
 6835WAT     H120747   8.600  -0.001   3.362
 6835WAT     H220748   8.651   0.122   3.457
 6836WAT      O20749   8.501   0.150   7.200
 6836WAT     H120750   8.566   0.148   7.276
 6836WAT     H220751   8.520   0.074   7.138
 6837WAT      O20752   9.750   4.020   8.586
 6837WAT     H120753   9.786   4.023   8.492
 6837WAT     H220754   9.651   4.037   8.583
 6838WAT      O20755   2.586   3.365   2.645
 6838WAT     H120756   2.657   3.385   2.578
 6838WAT     H220757   2.519   3.439   2.645
 6839WAT      O20758   7.451   6.358   7.546
 6839WAT     H120759   7.411   6.402   7.466
 6839WAT     H220760   7.381   6.306   7.595
 6840WAT      O20761   3.895   9.677   3.951
 6840WAT     H120762   3.858   9.589   3.981
 6840WAT     H220763   3.981   9.695   4.000
 6841WAT      O20764   2.891   3.341   9.063
 6841WAT     H120765   2.928   3.422   9.109
 6841WAT     H220766   2.791   3.346   9.062
 6842WAT      O20767   5.602   7.623   8.963
 6842WAT     H120768   5.694   7.662   8.955
 6842WAT     H220769   5.609   7.525   8.982
 6843WAT      O20770   3.569   6.092   8.000
 6843WAT     H120771   3.519   6.176   7.979
 6843WAT     H220772   3.533   6.052   8.084
 6844WAT      O20773   3.647   7.329   7.238
 6844WAT     H120774   3.686   7.401   7.295
 6844WAT     H220775   3.626   7.249   7.295
 6845WAT      O20776   2.211   2.567   2.428
 6845WAT     H120777   2.292   2.623   2.410
 6845WAT     H220778   2.129   2.615   2.396
 6846WAT      O20779   8.121   8.557   6.759
 6846WAT     H120780   8.051   8.503   6.714
 6846WAT     H220781   8.210   8.539   6.717
 6847WAT      O20782   3.454   0.490   8.342
 6847WAT     H120783   3.407   0.444   8.416
 6847WAT     H220784   3.400   0.569   8.311
 6848WAT      O20785   5.733   0.375   6.444
 6848WAT     H120786   5.666   0.424   6.498
 6848WAT     H220787   5.772   0.436   6.375
 6849WAT      O20788   4.214   4.227   3.834
 6849WAT     H120789   4.207   4.129   3.817
 6849WAT     H220790   4.259   4.271   3.756
 6850WAT      O20791   2.651   8.822   1.365
 6850WAT     H120792   2.712   8.879   1.420
 6850WAT     H220793   2.617   8.875   1.287
 6851WAT      O20794   8.396   6.309   2.649
 6851WAT     H120795   8.482   6.301   2.598
 6851WAT     H220796   8.353   6.219   2.657
 6852WAT      O20797   3.747   0.759   8.768
 6852WAT     H120798   3.842   0.759   8.735
 6852WAT     H220799   3.735   0.831   8.836
 6853WAT      O20800   9.101   2.951   3.420
 6853WAT     H120801   9.032   3.019   3.397
 6853WAT     H220802   9.111   2.945   3.519
 6854WAT      O20803   5.103   9.255   1.896
 6854WAT     H120804   5.062   9.198   1.966
 6854WAT     H220805   5.202   9.256   1.907
 6855WAT      O20806   6.109   1.572   7.649
 6855WAT     H120807   6.127   1.514   7.728
 6855WAT     H220808   6.154   1.533   7.568
 6856WAT      O20809   2.177   1.959   2.236
 6856WAT     H120810   2.244   2.030   2.256
 6856WAT     H220811   2.087   2.001   2.221
 6857WAT      O20812   7.917   2.750   1.388
 6857WAT     H120813   7.903   2.831   1.331
 6857WAT     H220814   8.012   2.749   1.420
 6858WAT      O20815   1.854   1.189   9.042
 6858WAT     H120816   1.874   1.202   9.139
 6858WAT     H220817   1.773   1.244   9.018
 6859WAT      O20818   5.318   5.635   9.085
 6859WAT     H120819   5.244   5.599   9.141
 6859WAT     H220820   5.305   5.734   9.072
 6860WAT      O20821   7.205   0.036   1.635
 6860WAT     H120822   7.250   0.109   1.584
 6860WAT     H220823   7.109   0.031   1.609
 6861WAT      O20824   3.160   7.282   9.011
 6861WAT     H120825   3.224   7.296   8.935
 6861WAT     H220826   3.075   7.241   8.976
 6862WAT      O20827   0.363   1.031   8.262
 6862WAT     H120828   0.442   0.980   8.296
 6862WAT     H220829   0.339   1.103   8.328
 6863WAT      O20830   0.784   1.635   3.451
 6863WAT     H120831   0.720   1.594   3.385
 6863WAT     H220832   0.862   1.675   3.402
 6864WAT      O20833   8.423   0.863   1.518
 6864WAT     H120834   8.442   0.811   1.435
 6864WAT     H220835   8.378   0.803   1.585
 6865WAT      O20836   9.832   4.845   3.350
 6865WAT     H120837   9.923   4.839   3.392
 6865WAT     H220838   9.835   4.808   3.257
 6866WAT      O20839   5.764   8.099   4.303
 6866WAT     H120840   5.770   8.126   4.206
 6866WAT     H220841   5.695   8.028   4.314
 6867WAT      O20842   7.596   4.539   3.270
 6867WAT     H120843   7.678   4.482   3.257
 6867WAT     H220844   7.522   4.482   3.306
 6868WAT      O20845   2.307   9.796   1.292
 6868WAT     H120846   2.363   9.786   1.210
 6868WAT     H220847   2.276   9.891   1.300
 6869WAT      O20848   6.338   0.147   1.177
 6869WAT     H120849   6.278   0.068   1.162
 6869WAT     H220850   6.294   0.211   1.239
 6870WAT      O20851   4.094   9.023   1.318
 6870WAT     H120852   4.028   8.959   1.357
 6870WAT     H220853   4.185   8.984   1.324
 6871WAT      O20854   0.479   1.761   8.362
 6871WAT     H120855   0.461   1.846   8.312
 6871WAT     H220856   0.567   1.723   8.334
 6872WAT      O20857   3.106   1.319   9.645
 6872WAT     H120858   3.182   1.384   9.655
 6872WAT     H220859   3.019   1.370   9.642
 6873WAT      O20860   3.086   6.098   9.017
 6873WAT     H120861   3.028   6.071   8.940
 6873WAT     H220862   3.170   6.139   8.983
 6874WAT      O20863   7.351   9.732   4.154
 6874WAT     H120864   7.407   9.660   4.195
 6874WAT     H220865   7.339   9.806   4.221
 6875WAT      O20866   1.777   3.404   1.148
 6875WAT     H120867   1.827   3.318   1.141
 6875WAT     H220868   1.764   3.428   1.244
 6876WAT      O20869   8.752   9.809   8.543
 6876WAT     H120870   8.656   9.838   8.545
 6876WAT     H220871   8.772   9.765   8.456
 6877WAT      O20872   4.197   4.761   4.672
 6877WAT     H120873   4.166   4.840   4.620
 6877WAT     H220874   4.190   4.679   4.616
 6878WAT      O20875   6.845   0.693   8.676
 6878WAT     H120876   6.828   0.609   8.624
 6878WAT     H220877   6.771   0.708   8.741
 6879WAT      O20878   4.184   1.613   4.111
 6879WAT     H120879   4.268   1.649   4.150
 6879WAT     H220880   4.198   1.518   4.083
 6880WAT      O20881   4.487   9.169   8.425
 6880WAT     H120882   4.482   9.269   8.426
 6880WAT     H220883   4.579   9.140   8.452
 6881WAT      O20884   0.344   4.048   9.882
 6881WAT     H120885   0.434   4.017   9.851
 6881WAT     H220886   0.356   4.119   9.951
 6882WAT      O20887   1.208   2.842   0.727
 6882WAT     H120888   1.111   2.834   0.705
 6882WAT     H220889   1.261   2.856   0.643
 6883WAT      O20890   8.471   2.189   6.041
 6883WAT     H120891   8.541   2.147   5.983
 6883WAT     H220892   8.451   2.282   6.008
 6884WAT      O20893   1.280   9.679   4.998
 6884WAT     H120894   1.326   9.656   4.912
 6884WAT     H220895   1.300   9.609   5.066
 6885WAT      O20896   1.886   6.280   2.524
 6885WAT     H120897   1.872   6.311   2.431
 6885WAT     H220898   1.984   6.270   2.542
 6886WAT      O20899   5.641   7.920   5.769
 6886WAT     H120900   5.601   7.946   5.681
 6886WAT     H220901   5.698   7.839   5.757
 6887WAT      O20902   4.010   6.482   1.269
 6887WAT     H120903   3.977   6.417   1.337
 6887WAT     H220904   4.028   6.435   1.183
 6888WAT      O20905   5.710   2.123   1.336
 6888WAT     H120906   5.763   2.172   1.267
 6888WAT     H220907   5.674   2.188   1.403
 6889WAT      O20908   8.842   0.814   0.899
 6889WAT     H120909   8.822   0.899   0.948
 6889WAT     H220910   8.844   0.738   0.964
 6890WAT      O20911   8.783   6.037   6.438
 6890WAT     H120912   8.737   6.054   6.525
 6890WAT     H220913   8.753   6.105   6.371
 6891WAT      O20914   3.765   4.482   0.898
 6891WAT     H120915   3.698   4.497   0.971
 6891WAT     H220916   3.820   4.401   0.920
 6892WAT      O20917   7.944   6.061   1.992
 6892WAT     H120918   7.929   6.159   1.981
 6892WAT     H220919   7.946   6.039   2.090
 6893WAT      O20920   6.468   4.982   5.288
 6893WAT     H120921   6.531   4.983   5.365
 6893WAT     H220922   6.403   4.907   5.300
 6894WAT      O20923   2.961   5.551   7.164
 6894WAT     H120924   2.937   5.509   7.077
 6894WAT     H220925   2.906   5.633   7.178
 6895WAT      O20926   7.698   8.572   4.757
 6895WAT     H120927   7.606   8.599   4.727
 6895WAT     H220928   7.728   8.633   4.830
 6896WAT      O20929   3.415   9.150   6.145
 6896WAT     H120930   3.337   9.145   6.083
 6896WAT     H220931   3.473   9.227   6.120
 6897WAT      O20932   8.880   1.078   7.797
 6897WAT     H120933   8.976   1.105   7.808
 6897WAT     H220934   8.869   0.982   7.825
 6898WAT      O20935   9.022   2.357   0.512
 6898WAT     H120936   9.061   2.309   0.590
 6898WAT     H220937   9.065   2.447   0.504
 6899WAT      O20938   4.790   0.624   8.664
 6899WAT     H120939   4.863   0.600   8.600
 6899WAT     H220940   4.702   0.623   8.616
 6900WAT      O20941   9.212   4.947   1.977
 6900WAT     H120942   9.138   4.974   1.916
 6900WAT     H220943   9.266   4.874   1.933
 6901WAT      O20944   4.539   7.376   4.514
 6901WAT     H120945   4.552   7.332   4.603
 6901WAT     H220946   4.604   7.452   4.506
 6902WAT      O20947   1.289   8.867   3.537
 6902WAT     H120948   1.303   8.947   3.478
 6902WAT     H220949   1.292   8.896   3.633
 6903WAT      O20950   8.458   4.512   9.378
 6903WAT     H120951   8.480   4.588   9.439
 6903WAT     H220952   8.450   4.428   9.431
 6904WAT      O20953   2.233   4.727   9.289
 6904WAT     H120954   2.146   4.726   9.238
 6904WAT     H220955   2.214   4.730   9.387
 6905WAT      O20956   1.479   5.011   6.197
 6905WAT     H120957   1.444   4.919   6.212
 6905WAT     H220958   1.498   5.054   6.286
 6906WAT      O20959   8.534   2.591   6.309
 6906WAT     H120960   8.578   2.647   6.379
 6906WAT     H220961   8.502   2.506   6.350
 6907WAT      O20962   4.398   1.136   5.618
 6907WAT     H120963   4.495   1.130   5.642
 6907WAT     H220964   4.374   1.060   5.559
 6908WAT      O20965   3.043   8.838   4.326
 6908WAT     H120966   3.001   8.902   4.263
 6908WAT     H220967   3.073   8.756   4.276
 6909WAT      O20968   5.138   8.839   1.966
 6909WAT     H120969   5.064   8.841   1.898
 6909WAT     H220970   5.101   8.815   2.055
 6910WAT      O20971   9.444   6.141   2.717
 6910WAT     H120972   9.435   6.241   2.716
 6910WAT     H220973   9.456   6.108   2.623
 6911WAT      O20974   1.369   3.653   7.013
 6911WAT     H120975   1.426   3.650   7.095
 6911WAT     H220976   1.426   3.677   6.934
 6912WAT      O20977   6.003   6.062   7.293
 6912WAT     H120978   5.909   6.058   7.328
 6912WAT     H220979   6.033   6.158   7.291
 6913WAT      O20980   6.027   0.264   8.823
 6913WAT     H120981   5.945   0.312   8.792
 6913WAT     H220982   6.008   0.166   8.826
 6914WAT      O20983   3.665   1.685   7.192
 6914WAT     H120984   3.628   1.592   7.192
 6914WAT     H220985   3.634   1.734   7.274
 6915WAT      O20986   3.362   1.712   1.473
 6915WAT     H120987   3.413   1.731   1.390
 6915WAT     H220988   3.379   1.618   1.503
 6916WAT      O20989   9.214   3.411   8.770
 6916WAT     H120990   9.197   3.352   8.849
 6916WAT     H220991   9.200   3.506   8.795
 6917WAT      O20992   4.519   3.285   1.476
 6917WAT     H120993   4.436   3.240   1.510
 6917WAT     H220994   4.588   3.215   1.456
 6918WAT      O20995   6.374   7.780   8.418
 6918WAT     H120996   6.302   7.834   8.375
 6918WAT     H220997   6.422   7.836   8.485
 6919WAT      O20998   0.947   6.844   9.003
 6919WAT     H120999   1.044   6.838   8.981
 6919WAT     H221000   0.936   6.857   9.102
 6920WAT      O21001   9.077   6.093   8.987
 6920WAT     H121002   9.089   5.994   8.984
 6920WAT     H221003   9.134   6.136   8.918
 6921WAT      O21004   1.543   9.459   3.996
 6921WAT     H121005   1.554   9.411   4.083
 6921WAT     H221006   1.630   9.501   3.969
 6922WAT      O21007   4.106   5.169   8.965
 6922WAT     H121008   4.087   5.127   9.054
 6922WAT     H221009   4.020   5.186   8.917
 6923WAT      O21010   4.405   7.316   3.746
 6923WAT     H121011   4.318   7.336   3.701
 6923WAT     H221012   4.445   7.401   3.780
 6924WAT      O21013   6.609   7.769   1.843
 6924WAT     H121014   6.697   7.808   1.869
 6924WAT     H221015   6.618   7.670   1.830
 6925WAT      O21016   6.558   0.886   2.744
 6925WAT     H121017   6.655   0.910   2.759
 6925WAT     H221018   6.500   0.959   2.782
 6926WAT      O21019   2.544   8.635   3.791
 6926WAT     H121020   2.499   8.661   3.877
 6926WAT     H221021   2.477   8.590   3.732
 6927WAT      O21022   7.888   1.233   1.378
 6927WAT     H121023   7.910   1.136   1.372
 6927WAT     H221024   7.962   1.282   1.424
 6928WAT      O21025   4.534   9.346   8.129
 6928WAT     H121026   4.573   9.323   8.040
 6928WAT     H221027   4.596   9.316   8.202
 6929WAT      O21028   6.557   8.871   3.999
 6929WAT     H121029   6.508   8.943   3.949
 6929WAT     H221030   6.514   8.856   4.088
 6930WAT      O21031   8.999   4.638   2.282
 6930WAT     H121032   8.944   4.565   2.241
 6930WAT     H221033   9.078   4.657   2.223
 6931WAT      O21034   1.946   7.966   7.658
 6931WAT     H121035   2.008   8.016   7.718
 6931WAT     H221036   1.981   7.873   7.643
 6932WAT      O21037   2.356   9.289   5.216
 6932WAT     H121038   2.266   9.325   5.193
 6932WAT     H221039   2.350   9.236   5.301
 6933WAT      O21040   6.307   7.975   1.718
 6933WAT     H121041   6.335   8.071   1.714
 6933WAT     H221042   6.330   7.936   1.807
 6934WAT      O21043   8.307   1.990   1.189
 6934WAT     H121044   8.218   2.024   1.222
 6934WAT     H221045   8.293   1.908   1.134
 6935WAT      O21046   7.020   3.921   9.332
 6935WAT     H121047   7.074   3.993   9.289
 6935WAT     H221048   6.973   3.957   9.412
 6936WAT      O21049   3.507   2.539   7.759
 6936WAT     H121050   3.433   2.539   7.691
 6936WAT     H221051   3.468   2.553   7.850
 6937WAT      O21052   1.207   8.125   1.412
 6937WAT     H121053   1.215   8.213   1.366
 6937WAT     H221054   1.110   8.101   1.424
 6938WAT      O21055   6.506   5.647   0.205
 6938WAT     H121056   6.567   5.588   0.258
 6938WAT     H221057   6.463   5.593   0.132
 6939WAT      O21058   4.959   5.041   1.919
 6939WAT     H121059   4.947   5.121   1.859
 6939WAT     H221060   4.952   4.958   1.865
 6940WAT      O21061   8.014   0.483   3.938
 6940WAT     H121062   8.009   0.437   3.849
 6940WAT     H221063   8.109   0.508   3.957
 6941WAT      O21064   9.729   2.950   5.497
 6941WAT     H121065   9.775   2.863   5.517
 6941WAT     H221066   9.669   2.938   5.417
 6942WAT      O21067   4.995   0.436   4.439
 6942WAT     H121068   5.021   0.400   4.350
 6942WAT     H221069   4.930   0.511   4.427
 6943WAT      O21070   4.227   2.608   3.125
 6943WAT     H121071   4.260   2.690   3.172
 6943WAT     H221072   4.144   2.575   3.170
 6944WAT      O21073   2.686   7.655   2.039
 6944WAT     H121074   2.688   7.752   2.014
 6944WAT     H221075   2.743   7.603   1.975
 6945WAT      O21076   1.826   5.276   1.278
 6945WAT     H121077   1.850   5.197   1.334
 6945WAT     H221078   1.890   5.351   1.297
 6946WAT      O21079   1.332   6.277   0.566
 6946WAT     H121080   1.257   6.343   0.567
 6946WAT     H221081   1.296   6.185   0.578
 6947WAT      O21082   7.631   7.157   9.216
 6947WAT     H121083   7.623   7.256   9.221
 6947WAT     H221084   7.543   7.115   9.240
 6948WAT      O21085   3.275   7.538   3.719
 6948WAT     H121086   3.334   7.493   3.652
 6948WAT     H221087   3.257   7.475   3.795
 6949WAT      O21088   0.835   6.673   1.539
 6949WAT     H121089   0.822   6.596   1.478
 6949WAT     H221090   0.800   6.650   1.630
 6950WAT      O21091   7.218   7.200   4.035
 6950WAT     H121092   7.168   7.148   3.966
 6950WAT     H221093   7.236   7.292   4.001
 6951WAT      O21094   0.705   6.410   7.943
 6951WAT     H121095   0.708   6.505   7.973
 6951WAT     H221096   0.774   6.395   7.872
 6952WAT      O21097   6.368   5.190   3.719
 6952WAT     H121098   6.274   5.183   3.687
 6952WAT     H221099   6.418   5.107   3.696
 6953WAT      O21100   0.193   4.850   4.144
 6953WAT     H121101   0.217   4.943   4.172
 6953WAT     H221102   0.099   4.850   4.108
 6954WAT      O21103   2.002   4.259   8.203
 6954WAT     H121104   1.932   4.324   8.232
 6954WAT     H221105   1.961   4.168   8.191
 6955WAT      O21106   1.865   7.712   5.348
 6955WAT     H121107   1.793   7.695   5.416
 6955WAT     H221108   1.882   7.629   5.296
 6956WAT      O21109   1.875   5.181   3.102
 6956WAT     H121110   1.879   5.083   3.081
 6956WAT     H221111   1.878   5.234   3.018
 6957WAT      O21112   8.873   1.558   4.056
 6957WAT     H121113   8.931   1.477   4.061
 6957WAT     H221114   8.800   1.551   4.124
 6958WAT      O21115   8.052   7.152   2.373
 6958WAT     H121116   8.053   7.052   2.381
 6958WAT     H221117   7.958   7.185   2.370
 6959WAT      O21118   2.706   7.470   1.246
 6959WAT     H121119   2.762   7.441   1.324
 6959WAT     H221120   2.622   7.416   1.243
 6960WAT      O21121   2.091   7.096   8.052
 6960WAT     H121122   2.164   7.163   8.043
 6960WAT     H221123   2.017   7.119   7.990
 6961WAT      O21124   9.441   2.247   0.031
 6961WAT     H121125   9.527   2.201   0.053
 6961WAT     H221126   9.455   2.346   0.035
 6962WAT      O21127   2.152   3.548   6.944
 6962WAT     H121128   2.085   3.484   6.981
 6962WAT     H221129   2.121   3.579   6.854
 6963WAT      O21130   4.113   3.472   7.237
 6963WAT     H121131   4.126   3.379   7.270
 6963WAT     H221132   4.022   3.481   7.197
 6964WAT      O21133   7.412   4.564   6.308
 6964WAT     H121134   7.317   4.542   6.329
 6964WAT     H221135   7.468   4.554   6.390
 6965WAT      O21136   6.189   3.742   8.782
 6965WAT     H121137   6.160   3.821   8.835
 6965WAT     H221138   6.134   3.734   8.699
 6966WAT      O21139   7.031   8.985   4.670
 6966WAT     H121140   6.999   8.894   4.643
 6966WAT     H221141   7.107   9.012   4.610
 6967WAT      O21142   1.606   2.665   9.377
 6967WAT     H121143   1.654   2.730   9.318
 6967WAT     H221144   1.670   2.625   9.443
 6968WAT      O21145   2.549   3.926   6.023
 6968WAT     H121146   2.533   3.992   6.096
 6968WAT     H221147   2.464   3.912   5.972
 6969WAT      O21148   1.267   3.622   8.879
 6969WAT     H121149   1.349   3.578   8.916
 6969WAT     H221150   1.263   3.606   8.780
 6970WAT      O21151   2.435   3.403   1.812
 6970WAT     H121152   2.437   3.304   1.827
 6970WAT     H221153   2.376   3.424   1.734
 6971WAT      O21154   5.433   2.030   1.687
 6971WAT     H121155   5.458   1.934   1.671
 6971WAT     H221156   5.466   2.086   1.610
 6972WAT      O21157   7.478   0.662   2.799
 6972WAT     H121158   7.415   0.591   2.833
 6972WAT     H221159   7.438   0.752   2.815
 6973WAT      O21160   0.780   2.480   0.117
 6973WAT     H121161   0.863   2.437   0.153
 6973WAT     H221162   0.805   2.560   0.062
 6974WAT      O21163   2.110   6.680   1.763
 6974WAT     H121164   2.066   6.764   1.795
 6974WAT     H221165   2.053   6.602   1.788
 6975WAT      O21166   6.224   8.406   1.385
 6975WAT     H121167   6.252   8.315   1.413
 6975WAT     H221168   6.243   8.418   1.288
 6976WAT      O21169   0.609   2.926   5.178
 6976WAT     H121170   0.618   2.997   5.108
 6976WAT     H221171   0.665   2.847   5.153
 6977WAT      O21172   8.626   4.117   2.872
 6977WAT     H121173   8.611   4.037   2.813
 6977WAT     H221174   8.696   4.175   2.832
 6978WAT      O21175   6.168   7.984   0.734
 6978WAT     H121176   6.076   8.004   0.702
 6978WAT     H221177   6.235   8.024   0.672
 6979WAT      O21178   5.162   7.985   8.199
 6979WAT     H121179   5.119   7.949   8.116
 6979WAT     H221180   5.090   8.007   8.266
 6980WAT      O21181   2.089   4.681   3.626
 6980WAT     H121182   2.043   4.593   3.637
 6980WAT     H221183   2.121   4.713   3.715
 6981WAT      O21184   0.339   5.640   2.946
 6981WAT     H121185   0.320   5.652   2.849
 6981WAT     H221186   0.253   5.627   2.996
 6982WAT      O21187   1.916   3.790   3.941
 6982WAT     H121188   1.946   3.808   3.847
 6982WAT     H221189   1.906   3.692   3.955
 6983WAT      O21190   6.429   7.703   0.948
 6983WAT     H121191   6.350   7.762   0.963
 6983WAT     H221192   6.438   7.639   1.025
 6984WAT      O21193   7.601   4.795   8.386
 6984WAT     H121194   7.652   4.743   8.317
 6984WAT     H221195   7.511   4.818   8.348
 6985WAT      O21196   6.747   7.577   7.607
 6985WAT     H121197   6.688   7.650   7.572
 6985WAT     H221198   6.840   7.612   7.621
 6986WAT      O21199   3.462   4.918   6.418
 6986WAT     H121200   3.504   5.007   6.429
 6986WAT     H221201   3.512   4.865   6.349
 6987WAT      O21202   7.418   5.354   0.659
 6987WAT     H121203   7.339   5.412   0.680
 6987WAT     H221204   7.418   5.274   0.718
 6988WAT      O21205   1.237   0.544   7.864
 6988WAT     H121206   1.198   0.502   7.783
 6988WAT     H221207   1.226   0.643   7.859
 6989WAT      O21208   9.166   1.495   2.378
 6989WAT     H121209   9.241   1.441   2.415
 6989WAT     H221210   9.087   1.436   2.362
 6990WAT      O21211   6.783   3.035   3.210
 6990WAT     H121212   6.708   2.989   3.257
 6990WAT     H221213   6.796   3.126   3.249
 6991WAT      O21214   9.297   7.011   7.067
 6991WAT     H121215   9.320   6.998   6.970
 6991WAT     H221216   9.331   7.100   7.097
 6992WAT      O21217   5.999   0.819   0.704
 6992WAT     H121218   5.931   0.795   0.636
 6992WAT     H221219   6.082   0.764   0.690
 6993WAT      O21220   2.074   8.471   3.243
 6993WAT     H121221   1.981   8.468   3.280
 6993WAT     H221222   2.124   8.390   3.273
 6994WAT      O21223   0.902   2.148   7.503
 6994WAT     H121224   0.922   2.198   7.418
 6994WAT     H221225   0.874   2.055   7.481
 6995WAT      O21226   4.015   6.417   1.004
 6995WAT     H121227   3.947   6.346   0.985
 6995WAT     H221228   4.056   6.448   0.919
 6996WAT      O21229   3.742   7.170   1.314
 6996WAT     H121230   3.756   7.258   1.268
 6996WAT     H221231   3.777   7.097   1.256
 6997WAT      O21232   6.550   6.501   9.260
 6997WAT     H121233   6.466   6.482   9.210
 6997WAT     H221234   6.539   6.475   9.355
 6998WAT      O21235   0.160   5.326   9.092
 6998WAT     H121236   0.217   5.284   9.164
 6998WAT     H221237   0.129   5.255   9.029
 6999WAT      O21238   3.183   8.854   8.016
 6999WAT     H121239   3.092   8.888   8.040
 6999WAT     H221240   3.189   8.756   8.037
 7000WAT      O21241   9.747   5.996   7.511
 7000WAT     H121242   9.665   6.005   7.455
 7000WAT     H221243   9.823   6.046   7.469
 7001WAT      O21244   8.936   1.826   9.271
 7001WAT     H121245   8.907   1.899   9.209
 7001WAT     H221246   9.002   1.767   9.225
 7002WAT      O21247   5.132   2.212   3.273
 7002WAT     H121248   5.199   2.261   3.218
 7002WAT     H221249   5.178   2.161   3.345
 7003WAT      O21250   3.112   8.314   4.652
 7003WAT     H121251   3.095   8.278   4.744
 7003WAT     H221252   3.210   8.315   4.634
 7004WAT      O21253   3.513   0.621   6.110
 7004WAT     H121254   3.446   0.588   6.043
 7004WAT     H221255   3.526   0.552   6.181
 7005WAT      O21256   8.760   0.999   6.519
 7005WAT     H121257   8.707   1.083   6.519
 7005WAT     H221258   8.855   1.019   6.544
 7006WAT      O21259   2.575   2.801   5.449
 7006WAT     H121260   2.492   2.747   5.433
 7006WAT     H221261   2.602   2.846   5.364
 7007WAT      O21262   0.801   2.365   0.492
 7007WAT     H121263   0.888   2.409   0.515
 7007WAT     H221264   0.786   2.287   0.553
 7008WAT      O21265   5.075   4.068   2.918
 7008WAT     H121266   5.155   4.042   2.973
 7008WAT     H221267   5.089   4.039   2.824
 7009WAT      O21268   6.124   2.288   4.185
 7009WAT     H121269   6.125   2.388   4.185
 7009WAT     H221270   6.127   2.254   4.091
 7010WAT      O21271   6.711   9.408   5.704
 7010WAT     H121272   6.679   9.359   5.623
 7010WAT     H221273   6.728   9.504   5.681
 7011WAT      O21274   5.984   1.518   1.388
 7011WAT     H121275   5.889   1.486   1.384
 7011WAT     H221276   6.039   1.453   1.440
 7012WAT      O21277   2.668   3.962   4.444
 7012WAT     H121278   2.757   3.927   4.414
 7012WAT     H221279   2.645   4.044   4.391
 7013WAT      O21280   6.532   8.476   5.743
 7013WAT     H121281   6.461   8.537   5.709
 7013WAT     H221282   6.588   8.525   5.811
 7014WAT      O21283   3.824   3.423   7.238
 7014WAT     H121284   3.785   3.506   7.198
 7014WAT     H221285   3.825   3.431   7.338
 7015WAT      O21286   6.392   4.850   8.794
 7015WAT     H121287   6.377   4.752   8.807
 7015WAT     H221288   6.305   4.895   8.774
 7016WAT      O21289   3.082   5.970   4.592
 7016WAT     H121290   3.092   5.881   4.637
 7016WAT     H221291   3.150   6.034   4.629
 7017WAT      O21292   1.705   4.364   2.139
 7017WAT     H121293   1.793   4.320   2.156
 7017WAT     H221294   1.683   4.356   2.041
 7018WAT      O21295   1.511   5.039   1.683
 7018WAT     H121296   1.595   5.087   1.655
 7018WAT     H221297   1.450   5.028   1.605
 7019WAT      O21298   7.073   8.535   4.146
 7019WAT     H121299   6.982   8.568   4.171
 7019WAT     H221300   7.073   8.505   4.051
 7020WAT      O21301   9.253   6.181   3.526
 7020WAT     H121302   9.324   6.245   3.556
 7020WAT     H221303   9.173   6.232   3.496
 7021WAT      O21304   5.880   6.327   1.699
 7021WAT     H121305   5.812   6.279   1.644
 7021WAT     H221306   5.968   6.327   1.650
 7022WAT      O21307   8.503   7.205   4.646
 7022WAT     H121308   8.561   7.124   4.650
 7022WAT     H221309   8.484   7.228   4.551
 7023WAT      O21310   0.156   5.719   0.475
 7023WAT     H121311   0.082   5.667   0.518
 7023WAT     H221312   0.120   5.767   0.395
 7024WAT      O21313   8.103   4.591   8.173
 7024WAT     H121314   8.004   4.600   8.185
 7024WAT     H221315   8.136   4.666   8.116
 7025WAT      O21316   1.323   1.504   0.921
 7025WAT     H121317   1.379   1.422   0.933
 7025WAT     H221318   1.381   1.580   0.893
 7026WAT      O21319   6.311   3.556   2.993
 7026WAT     H121320   6.261   3.642   2.994
 7026WAT     H221321   6.249   3.482   2.968
 7027WAT      O21322   8.953   6.060   2.813
 7027WAT     H121323   8.910   6.035   2.726
 7027WAT     H221324   8.995   6.150   2.805
 7028WAT      O21325   1.604   1.135   3.728
 7028WAT     H121326   1.665   1.085   3.667
 7028WAT     H221327   1.568   1.215   3.681
 7029WAT      O21328   5.969   9.804   1.578
 7029WAT     H121329   6.023   9.721   1.597
 7029WAT     H221330   6.026   9.885   1.591
 7030WAT      O21331   7.051   6.313   9.149
 7030WAT     H121332   7.032   6.402   9.106
 7030WAT     H221333   6.979   6.291   9.214
 7031WAT      O21334   9.773   8.944   6.537
 7031WAT     H121335   9.749   8.944   6.635
 7031WAT     H221336   9.870   8.924   6.527
 7032WAT      O21337   5.582   9.250   4.978
 7032WAT     H121338   5.583   9.178   4.909
 7032WAT     H221339   5.630   9.218   5.060
 7033WAT      O21340   2.635   9.235   5.999
 7033WAT     H121341   2.652   9.309   6.064
 7033WAT     H221342   2.548   9.250   5.953
 7034WAT      O21343   6.163   9.661   5.682
 7034WAT     H121344   6.079   9.663   5.737
 7034WAT     H221345   6.236   9.616   5.734
 7035WAT      O21346   3.885   3.190   5.941
 7035WAT     H121347   3.826   3.221   6.015
 7035WAT     H221348   3.838   3.203   5.854
 7036WAT      O21349   3.918   9.735   1.335
 7036WAT     H121350   3.984   9.807   1.355
 7036WAT     H221351   3.953   9.677   1.261
 7037WAT      O21352   8.821   8.095   4.998
 7037WAT     H121353   8.902   8.076   4.941
 7037WAT     H221354   8.817   8.193   5.017
 7038WAT      O21355   0.202   7.939   0.546
 7038WAT     H121356   0.201   7.985   0.634
 7038WAT     H221357   0.262   7.988   0.483
 7039WAT      O21358   3.559   1.445   7.189
 7039WAT     H121359   3.504   1.385   7.247
 7039WAT     H221360   3.505   1.474   7.110
 7040WAT      O21361   3.455   9.373   8.785
 7040WAT     H121362   3.424   9.298   8.727
 7040WAT     H221363   3.516   9.433   8.732
 7041WAT      O21364   4.618   9.517   3.049
 7041WAT     H121365   4.543   9.512   3.115
 7041WAT     H221366   4.600   9.455   2.973
 7042WAT      O21367   0.468   3.110   5.983
 7042WAT     H121368   0.521   3.111   6.068
 7042WAT     H221369   0.527   3.135   5.906
 7043WAT      O21370   5.894   1.199   7.378
 7043WAT     H121371   5.889   1.159   7.286
 7043WAT     H221372   5.806   1.239   7.402
 7044WAT      O21373   3.715   8.960   7.427
 7044WAT     H121374   3.815   8.965   7.421
 7044WAT     H221375   3.687   8.864   7.424
 7045WAT      O21376   1.587   7.780   3.350
 7045WAT     H121377   1.545   7.865   3.320
 7045WAT     H221378   1.626   7.732   3.271
 7046WAT      O21379   7.302   6.437   4.428
 7046WAT     H121380   7.353   6.356   4.458
 7046WAT     H221381   7.365   6.505   4.393
 7047WAT      O21382   5.706   3.480   2.550
 7047WAT     H121383   5.776   3.552   2.549
 7047WAT     H221384   5.749   3.393   2.526
 7048WAT      O21385   5.795   1.851   5.883
 7048WAT     H121386   5.837   1.856   5.973
 7048WAT     H221387   5.743   1.766   5.875
 7049WAT      O21388   6.315   6.994   7.696
 7049WAT     H121389   6.288   6.909   7.650
 7049WAT     H221390   6.240   7.060   7.690
 7050WAT      O21391   2.765   9.023   4.760
 7050WAT     H121392   2.860   9.000   4.737
 7050WAT     H221393   2.706   8.998   4.683
 7051WAT      O21394   4.032   6.341   4.298
 7051WAT     H121395   4.109   6.396   4.266
 7051WAT     H221396   4.051   6.245   4.281
 7052WAT      O21397   9.751   0.910   4.202
 7052WAT     H121398   9.839   0.872   4.229
 7052WAT     H221399   9.713   0.963   4.278
 7053WAT      O21400   0.811   4.333   6.155
 7053WAT     H121401   0.846   4.425   6.174
 7053WAT     H221402   0.849   4.300   6.069
 7054WAT      O21403   9.627   0.427   1.237
 7054WAT     H121404   9.618   0.510   1.293
 7054WAT     H221405   9.643   0.453   1.142
 7055WAT      O21406   5.631   0.420   5.635
 7055WAT     H121407   5.542   0.374   5.631
 7055WAT     H221408   5.640   0.482   5.558
 7056WAT      O21409   6.839   0.076   2.871
 7056WAT     H121410   6.815   0.173   2.861
 7056WAT     H221411   6.801   0.042   2.957
 7057WAT      O21412   4.793   9.379   3.586
 7057WAT     H121413   4.800   9.279   3.591
 7057WAT     H221414   4.766   9.415   3.675
 7058WAT      O21415   5.713   3.833   4.549
 7058WAT     H121416   5.768   3.749   4.544
 7058WAT     H221417   5.696   3.856   4.645
 7059WAT      O21418   1.298   0.102   7.869
 7059WAT     H121419   1.244   0.179   7.904
 7059WAT     H221420   1.378   0.088   7.927
 7060WAT      O21421   2.170   0.420   1.008
 7060WAT     H121422   2.180   0.398   0.911
 7060WAT     H221423   2.229   0.497   1.032
 7061WAT      O21424   9.756   7.438   6.560
 7061WAT     H121425   9.795   7.360   6.608
 7061WAT     H221426   9.829   7.489   6.514
 7062WAT      O21427   1.456   3.747   8.022
 7062WAT     H121428   1.546   3.788   8.035
 7062WAT     H221429   1.409   3.794   7.947
 7063WAT      O21430   9.848   7.545   3.307
 7063WAT     H121431   9.922   7.581   3.363
 7063WAT     H221432   9.785   7.493   3.365
 7064WAT      O21433   2.625   6.147   7.669
 7064WAT     H121434   2.543   6.114   7.715
 7064WAT     H221435   2.703   6.142   7.733
 7065WAT      O21436   6.056   5.551   1.686
 7065WAT     H121437   5.989   5.506   1.627
 7065WAT     H221438   6.025   5.547   1.781
 7066WAT      O21439   1.996   7.013   3.956
 7066WAT     H121440   2.006   6.972   3.865
 7066WAT     H221441   1.966   6.943   4.021
 7067WAT      O21442   4.909   3.307   7.180
 7067WAT     H121443   4.837   3.320   7.111
 7067WAT     H221444   4.867   3.281   7.267
 7068WAT      O21445   2.333   9.163   1.528
 7068WAT     H121446   2.419   9.214   1.529
 7068WAT     H221447   2.259   9.223   1.496
 7069WAT      O21448   4.264   8.248   4.655
 7069WAT     H121449   4.311   8.163   4.632
 7069WAT     H221450   4.209   8.278   4.577
 7070WAT      O21451   5.582   4.568   0.123
 7070WAT     H121452   5.532   4.653   0.101
 7070WAT     H221453   5.621   4.575   0.215
 7071WAT      O21454   7.546   9.440   6.643
 7071WAT     H121455   7.459   9.402   6.612
 7071WAT     H221456   7.561   9.529   6.599
 7072WAT      O21457   3.835   9.249   9.421
 7072WAT     H121458   3.752   9.201   9.449
 7072WAT     H221459   3.915   9.205   9.463
 7073WAT      O21460   5.346   8.886   5.064
 7073WAT     H121461   5.285   8.921   5.136
 7073WAT     H221462   5.326   8.790   5.047
 7074WAT      O21463   5.254   5.098   7.411
 7074WAT     H121464   5.250   5.045   7.326
 7074WAT     H221465   5.311   5.050   7.478
 7075WAT      O21466   5.711   5.636   7.906
 7075WAT     H121467   5.755   5.639   7.816
 7075WAT     H221468   5.616   5.664   7.897
 7076WAT      O21469   1.894   4.276   9.103
 7076WAT     H121470   1.820   4.269   9.036
 7076WAT     H221471   1.892   4.197   9.164
 7077WAT      O21472   8.680   6.995   1.671
 7077WAT     H121473   8.660   6.951   1.758
 7077WAT     H221474   8.650   7.090   1.673
 7078WAT      O21475   0.341   8.216   3.929
 7078WAT     H121476   0.441   8.226   3.925
 7078WAT     H221477   0.316   8.159   4.008
 7079WAT      O21478   5.283   2.351   1.611
 7079WAT     H121479   5.238   2.364   1.522
 7079WAT     H221480   5.382   2.353   1.598
 7080WAT      O21481   7.573   2.372   3.432
 7080WAT     H121482   7.598   2.464   3.400
 7080WAT     H221483   7.639   2.306   3.397
 7081WAT      O21484   8.114   1.032   2.422
 7081WAT     H121485   8.086   0.942   2.389
 7081WAT     H221486   8.210   1.048   2.398
 7082WAT      O21487   2.518   2.527   2.471
 7082WAT     H121488   2.504   2.506   2.374
 7082WAT     H221489   2.478   2.616   2.492
 7083WAT      O21490   4.511   4.407   0.469
 7083WAT     H121491   4.478   4.355   0.548
 7083WAT     H221492   4.440   4.470   0.439
 7084WAT      O21493   5.447   0.161   0.938
 7084WAT     H121494   5.415   0.096   1.006
 7084WAT     H221495   5.369   0.210   0.898
 7085WAT      O21496   4.858   0.326   2.693
 7085WAT     H121497   4.915   0.351   2.615
 7085WAT     H221498   4.916   0.288   2.765
 7086WAT      O21499   4.973   7.069   5.838
 7086WAT     H121500   5.062   7.072   5.794
 7086WAT     H221501   4.901   7.075   5.769
 7087WAT      O21502   2.394   2.394   3.106
 7087WAT     H121503   2.468   2.335   3.074
 7087WAT     H221504   2.415   2.427   3.198
 7088WAT      O21505   5.423   9.782   7.786
 7088WAT     H121506   5.405   9.778   7.885
 7088WAT     H221507   5.464   9.870   7.763
 7089WAT      O21508   9.763   8.915   9.584
 7089WAT     H121509   9.851   8.958   9.602
 7089WAT     H221510   9.702   8.982   9.539
 7090WAT      O21511   0.728   7.925   0.610
 7090WAT     H121512   0.774   7.844   0.646
 7090WAT     H221513   0.792   8.002   0.608
 7091WAT      O21514   3.228   1.268   1.191
 7091WAT     H121515   3.318   1.305   1.170
 7091WAT     H221516   3.167   1.343   1.216
 7092WAT      O21517   9.079   5.661   5.328
 7092WAT     H121518   9.164   5.694   5.370
 7092WAT     H221519   9.063   5.566   5.356
 7093WAT      O21520   8.271   5.278   0.219
 7093WAT     H121521   8.206   5.231   0.279
 7093WAT     H221522   8.315   5.211   0.159
 7094WAT      O21523   0.253   9.597   5.804
 7094WAT     H121524   0.216   9.679   5.848
 7094WAT     H221525   0.203   9.517   5.835
 7095WAT      O21526   8.433   3.985   9.012
 7095WAT     H121527   8.349   3.954   9.056
 7095WAT     H221528   8.429   4.084   8.998
 7096WAT      O21529   5.961   7.459   4.855
 7096WAT     H121530   5.876   7.418   4.889
 7096WAT     H221531   6.007   7.394   4.795
 7097WAT      O21532   6.371   3.475   8.093
 7097WAT     H121533   6.316   3.481   8.176
 7097WAT     H221534   6.450   3.536   8.100
 7098WAT      O21535   3.365   1.528   6.327
 7098WAT     H121536   3.377   1.514   6.229
 7098WAT     H221537   3.335   1.622   6.344
 7099WAT      O21538   2.376   2.100   3.835
 7099WAT     H121539   2.434   2.073   3.758
 7099WAT     H221540   2.431   2.104   3.918
 7100WAT      O21541   4.661   3.989   4.274
 7100WAT     H121542   4.727   3.920   4.303
 7100WAT     H221543   4.682   4.076   4.318
 7101WAT      O21544   8.354   0.839   2.596
 7101WAT     H121545   8.319   0.796   2.513
 7101WAT     H221546   8.439   0.794   2.624
 7102WAT      O21547   5.355   0.396   9.070
 7102WAT     H121548   5.325   0.419   9.163
 7102WAT     H221549   5.346   0.297   9.055
 7103WAT      O21550   4.766   8.110   5.040
 7103WAT     H121551   4.829   8.055   4.984
 7103WAT     H221552   4.819   8.165   5.105
 7104WAT      O21553   4.934   3.075   4.787
 7104WAT     H121554   4.921   3.131   4.705
 7104WAT     H221555   4.966   3.132   4.862
 7105WAT      O21556   3.533   5.062   0.686
 7105WAT     H121557   3.536   5.162   0.687
 7105WAT     H221558   3.454   5.031   0.738
 7106WAT      O21559   1.959   0.123   0.710
 7106WAT     H121560   1.916   0.071   0.636
 7106WAT     H221561   1.891   0.145   0.779
 7107WAT      O21562   3.694   3.069   1.883
 7107WAT     H121563   3.755   3.040   1.809
 7107WAT     H221564   3.732   3.039   1.971
 7108WAT      O21565   5.176   0.364   7.067
 7108WAT     H121566   5.274   0.382   7.057
 7108WAT     H221567   5.124   0.431   7.014
 7109WAT      O21568   7.449   3.697   7.768
 7109WAT     H121569   7.381   3.679   7.840
 7109WAT     H221570   7.403   3.735   7.688
 7110WAT      O21571   6.095   2.543   1.909
 7110WAT     H121572   6.016   2.497   1.949
 7110WAT     H221573   6.179   2.497   1.937
 7111WAT      O21574   8.293   8.410   9.463
 7111WAT     H121575   8.219   8.342   9.465
 7111WAT     H221576   8.256   8.497   9.429
 7112WAT      O21577   6.503   8.528   4.210
 7112WAT     H121578   6.443   8.480   4.146
 7112WAT     H221579   6.492   8.627   4.199
 7113WAT      O21580   3.731   5.659   0.832
 7113WAT     H121581   3.636   5.633   0.812
 7113WAT     H221582   3.762   5.723   0.762
 7114WAT      O21583   2.673   1.390   4.760
 7114WAT     H121584   2.691   1.439   4.675
 7114WAT     H221585   2.700   1.447   4.838
 7115WAT      O21586   9.310   0.642   8.419
 7115WAT     H121587   9.396   0.593   8.402
 7115WAT     H221588   9.255   0.642   8.336
 7116WAT      O21589   6.752   2.443   5.295
 7116WAT     H121590   6.695   2.519   5.262
 7116WAT     H221591   6.721   2.358   5.252
 7117WAT      O21592   3.010   0.809   6.599
 7117WAT     H121593   3.108   0.788   6.602
 7117WAT     H221594   2.993   0.879   6.529
 7118WAT      O21595   9.196   8.629   2.156
 7118WAT     H121596   9.149   8.701   2.105
 7118WAT     H221597   9.249   8.670   2.230
 7119WAT      O21598   4.854   8.557   6.450
 7119WAT     H121599   4.845   8.514   6.360
 7119WAT     H221600   4.933   8.517   6.497
 7120WAT      O21601   4.462   5.375   3.641
 7120WAT     H121602   4.534   5.316   3.678
 7120WAT     H221603   4.377   5.323   3.633
 7121WAT      O21604   5.359   6.717   0.794
 7121WAT     H121605   5.449   6.723   0.839
 7121WAT     H221606   5.310   6.638   0.830
 7122WAT      O21607   7.888   0.363   5.601
 7122WAT     H121608   7.899   0.313   5.687
 7122WAT     H221609   7.851   0.454   5.620
 7123WAT      O21610   6.526   5.994   9.508
 7123WAT     H121611   6.441   5.963   9.551
 7123WAT     H221612   6.588   5.916   9.497
 7124WAT      O21613   3.089   0.314   4.193
 7124WAT     H121614   3.141   0.233   4.166
 7124WAT     H221615   3.018   0.333   4.125
 7125WAT      O21616   7.135   7.786   9.144
 7125WAT     H121617   7.142   7.686   9.141
 7125WAT     H221618   7.099   7.814   9.233
 7126WAT      O21619   5.707   1.900   4.462
 7126WAT     H121620   5.673   1.954   4.386
 7126WAT     H221621   5.805   1.917   4.475
 7127WAT      O21622   0.920   0.616   1.350
 7127WAT     H121623   0.936   0.521   1.377
 7127WAT     H221624   0.840   0.652   1.397
 7128WAT      O21625   4.536   0.968   1.318
 7128WAT     H121626   4.543   0.943   1.221
 7128WAT     H221627   4.627   0.971   1.358
 7129WAT      O21628   9.327   5.907   7.108
 7129WAT     H121629   9.264   5.832   7.089
 7129WAT     H221630   9.326   5.971   7.032
 7130WAT      O21631   6.053   4.268   1.833
 7130WAT     H121632   6.078   4.301   1.924
 7130WAT     H221633   6.014   4.176   1.841
 7131WAT      O21634   2.862   9.186   0.006
 7131WAT     H121635   2.801   9.137  -0.055
 7131WAT     H221636   2.950   9.138   0.011
 7132WAT      O21637   5.913   3.050   9.329
 7132WAT     H121638   5.970   3.071   9.408
 7132WAT     H221639   5.879   3.135   9.289
 7133WAT      O21640   2.057   0.549   8.900
 7133WAT     H121641   1.965   0.510   8.900
 7133WAT     H221642   2.052   0.647   8.880
 7134WAT      O21643   8.110   3.356   4.412
 7134WAT     H121644   8.056   3.427   4.458
 7134WAT     H221645   8.056   3.315   4.339
 7135WAT      O21646   5.705   7.041   9.785
 7135WAT     H121647   5.700   6.952   9.828
 7135WAT     H221648   5.682   7.033   9.688
 7136WAT      O21649   6.612   3.018   7.178
 7136WAT     H121650   6.535   3.028   7.241
 7136WAT     H221651   6.581   2.978   7.092
 7137WAT      O21652   1.933   5.326   3.314
 7137WAT     H121653   1.845   5.360   3.346
 7137WAT     H221654   1.918   5.261   3.239
 7138WAT      O21655   2.624   0.641   0.623
 7138WAT     H121656   2.564   0.721   0.631
 7138WAT     H221657   2.699   0.662   0.561
 7139WAT      O21658   3.443   4.559   3.756
 7139WAT     H121659   3.443   4.462   3.781
 7139WAT     H221660   3.449   4.568   3.657
 7140WAT      O21661   9.537   9.733   4.690
 7140WAT     H121662   9.515   9.827   4.662
 7140WAT     H221663   9.479   9.706   4.767
 7141WAT      O21664   2.730   2.183   6.577
 7141WAT     H121665   2.711   2.198   6.480
 7141WAT     H221666   2.795   2.107   6.587
 7142WAT      O21667   5.399   6.232   7.838
 7142WAT     H121668   5.439   6.178   7.912
 7142WAT     H221669   5.300   6.218   7.836
 7143WAT      O21670   6.458   3.723   4.234
 7143WAT     H121671   6.487   3.628   4.247
 7143WAT     H221672   6.507   3.781   4.300
 7144WAT      O21673   8.441   9.064   2.918
 7144WAT     H121674   8.501   9.143   2.933
 7144WAT     H221675   8.488   8.997   2.860
 7145WAT      O21676   5.107   6.587   5.686
 7145WAT     H121677   5.203   6.604   5.663
 7145WAT     H221678   5.090   6.488   5.684
 7146WAT      O21679   7.580   6.321   3.242
 7146WAT     H121680   7.650   6.285   3.303
 7146WAT     H221681   7.508   6.364   3.296
 7147WAT      O21682   0.448   4.381   0.419
 7147WAT     H121683   0.538   4.391   0.376
 7147WAT     H221684   0.410   4.472   0.437
 7148WAT      O21685   2.728   5.444   7.888
 7148WAT     H121686   2.653   5.456   7.953
 7148WAT     H221687   2.750   5.347   7.881
 7149WAT      O21688   9.375   0.569   9.549
 7149WAT     H121689   9.317   0.627   9.492
 7149WAT     H221690   9.321   0.494   9.588
 7150WAT      O21691   2.581   2.601   1.803
 7150WAT     H121692   2.542   2.525   1.749
 7150WAT     H221693   2.674   2.578   1.830
 7151WAT      O21694   0.415   0.525   9.378
 7151WAT     H121695   0.466   0.457   9.430
 7151WAT     H221696   0.334   0.553   9.429
 7152WAT      O21697   6.999   4.229   7.561
 7152WAT     H121698   6.901   4.216   7.543
 7152WAT     H221699   7.021   4.194   7.652
 7153WAT      O21700   7.625   0.104   9.079
 7153WAT     H121701   7.576   0.112   8.992
 7153WAT     H221702   7.623   0.009   9.110
 7154WAT      O21703   5.747   6.246   8.637
 7154WAT     H121704   5.684   6.168   8.632
 7154WAT     H221705   5.817   6.237   8.566
 7155WAT      O21706   1.414   6.814   2.001
 7155WAT     H121707   1.422   6.787   1.905
 7155WAT     H221708   1.331   6.868   2.013
 7156WAT      O21709   7.835   2.781   6.166
 7156WAT     H121710   7.783   2.744   6.089
 7156WAT     H221711   7.850   2.879   6.151
 7157WAT      O21712   7.970   6.361   0.263
 7157WAT     H121713   7.981   6.460   0.279
 7157WAT     H221714   7.911   6.347   0.184
 7158WAT      O21715   3.960   4.671   9.742
 7158WAT     H121716   3.996   4.686   9.650
 7158WAT     H221717   3.983   4.750   9.799
 7159WAT      O21718   7.810   7.446   3.945
 7159WAT     H121719   7.838   7.355   3.976
 7159WAT     H221720   7.891   7.498   3.917
 7160WAT      O21721   2.416   2.368   1.238
 7160WAT     H121722   2.375   2.458   1.222
 7160WAT     H221723   2.514   2.373   1.222
 7161WAT      O21724   9.013   4.191   8.979
 7161WAT     H121725   8.917   4.172   8.956
 7161WAT     H221726   9.073   4.143   8.915
 7162WAT      O21727   2.148   6.578   0.924
 7162WAT     H121728   2.053   6.580   0.894
 7162WAT     H221729   2.183   6.671   0.933
 7163WAT      O21730   0.244   4.124   9.502
 7163WAT     H121731   0.217   4.125   9.598
 7163WAT     H221732   0.326   4.181   9.491
 7164WAT      O21733   5.619   1.483   2.991
 7164WAT     H121734   5.545   1.424   2.957
 7164WAT     H221735   5.634   1.464   3.088
 7165WAT      O21736   6.699   5.703   9.524
 7165WAT     H121737   6.782   5.744   9.561
 7165WAT     H221738   6.630   5.697   9.597
 7166WAT      O21739   8.601   4.971   0.404
 7166WAT     H121740   8.666   4.974   0.479
 7166WAT     H221741   8.508   4.985   0.439
 7167WAT      O21742   6.728   3.448   0.486
 7167WAT     H121743   6.706   3.442   0.583
 7167WAT     H221744   6.658   3.503   0.440
 7168WAT      O21745   7.282   0.971   1.350
 7168WAT     H121746   7.333   0.931   1.273
 7168WAT     H221747   7.188   0.937   1.349
 7169WAT      O21748   6.465   9.304   3.866
 7169WAT     H121749   6.468   9.217   3.818
 7169WAT     H221750   6.532   9.304   3.940
 7170WAT      O21751   2.041   2.035   6.470
 7170WAT     H121752   2.014   2.075   6.557
 7170WAT     H221753   1.962   1.994   6.425
 7171WAT      O21754   5.671   5.833   4.459
 7171WAT     H121755   5.606   5.907   4.439
 7171WAT     H221756   5.678   5.820   4.558
 7172WAT      O21757   5.831   3.220   8.508
 7172WAT     H121758   5.917   3.184   8.475
 7172WAT     H221759   5.841   3.249   8.603
 7173WAT      O21760   3.393   3.477   2.028
 7173WAT     H121761   3.331   3.440   1.959
 7173WAT     H221762   3.474   3.516   1.982
 7174WAT      O21763   0.936   6.781   7.413
 7174WAT     H121764   0.968   6.711   7.350
 7174WAT     H221765   1.009   6.847   7.429
 7175WAT      O21766   8.502   7.979   8.888
 7175WAT     H121767   8.543   7.888   8.893
 7175WAT     H221768   8.565   8.046   8.927
 7176WAT      O21769   5.121   3.490   7.349
 7176WAT     H121770   5.206   3.538   7.329
 7176WAT     H221771   5.071   3.472   7.264
 7177WAT      O21772   3.623   4.648   1.867
 7177WAT     H121773   3.686   4.674   1.794
 7177WAT     H221774   3.585   4.730   1.909
 7178WAT      O21775   1.817   3.469   5.914
 7178WAT     H121776   1.885   3.536   5.945
 7178WAT     H221777   1.813   3.394   5.979
 7179WAT      O21778   8.194   1.417   4.632
 7179WAT     H121779   8.131   1.412   4.555
 7179WAT     H221780   8.148   1.458   4.711
 7180WAT      O21781   5.524   2.019   0.021
 7180WAT     H121782   5.462   2.072  -0.036
 7180WAT     H221783   5.617   2.026  -0.015
 7181WAT      O21784   1.699   1.220   2.762
 7181WAT     H121785   1.653   1.190   2.678
 7181WAT     H221786   1.787   1.171   2.771
 7182WAT      O21787   9.397   8.345   7.011
 7182WAT     H121788   9.354   8.396   6.936
 7182WAT     H221789   9.335   8.340   7.089
 7183WAT      O21790   0.345   5.706   3.316
 7183WAT     H121791   0.353   5.645   3.395
 7183WAT     H221792   0.372   5.657   3.234
 7184WAT      O21793   4.306   7.556   1.920
 7184WAT     H121794   4.390   7.543   1.972
 7184WAT     H221795   4.227   7.546   1.981
 7185WAT      O21796   9.574   6.682   8.121
 7185WAT     H121797   9.635   6.715   8.048
 7185WAT     H221798   9.621   6.688   8.209
 7186WAT      O21799   7.930   2.348   9.619
 7186WAT     H121800   8.025   2.353   9.652
 7186WAT     H221801   7.927   2.371   9.522
 7187WAT      O21802   2.673   1.327   4.412
 7187WAT     H121803   2.747   1.291   4.469
 7187WAT     H221804   2.613   1.253   4.384
 7188WAT      O21805   3.663   8.127   6.608
 7188WAT     H121806   3.664   8.050   6.672
 7188WAT     H221807   3.570   8.140   6.572
 7189WAT      O21808   2.196   6.270   5.448
 7189WAT     H121809   2.116   6.209   5.452
 7189WAT     H221810   2.279   6.216   5.466
 7190WAT      O21811   0.303   3.763   2.411
 7190WAT     H121812   0.269   3.751   2.504
 7190WAT     H221813   0.344   3.677   2.379
 7191WAT      O21814   7.668   8.860   7.916
 7191WAT     H121815   7.700   8.834   8.008
 7191WAT     H221816   7.624   8.949   7.921
 7192WAT      O21817   4.249   7.451   3.137
 7192WAT     H121818   4.164   7.443   3.189
 7192WAT     H221819   4.320   7.395   3.181
 7193WAT      O21820   1.060   3.579   5.467
 7193WAT     H121821   1.031   3.558   5.373
 7193WAT     H221822   1.160   3.586   5.470
 7194WAT      O21823   3.226   1.220   2.717
 7194WAT     H121824   3.270   1.306   2.740
 7194WAT     H221825   3.163   1.234   2.641
 7195WAT      O21826   4.165   3.798   2.122
 7195WAT     H121827   4.144   3.705   2.153
 7195WAT     H221828   4.108   3.820   2.043
 7196WAT      O21829   1.539   2.219   4.797
 7196WAT     H121830   1.479   2.161   4.743
 7196WAT     H221831   1.570   2.296   4.741
 7197WAT      O21832   7.241   1.782   7.346
 7197WAT     H121833   7.204   1.823   7.263
 7197WAT     H221834   7.197   1.822   7.426
 7198WAT      O21835   0.892   2.236   1.282
 7198WAT     H121836   0.865   2.256   1.376
 7198WAT     H221837   0.961   2.301   1.253
 7199WAT      O21838   7.159   7.214   2.122
 7199WAT     H121839   7.239   7.155   2.134
 7199WAT     H221840   7.187   7.299   2.078
 7200WAT      O21841   9.488   2.456   1.485
 7200WAT     H121842   9.482   2.428   1.581
 7200WAT     H221843   9.401   2.497   1.456
 7201WAT      O21844   6.896   6.287   4.676
 7201WAT     H121845   6.862   6.216   4.614
 7201WAT     H221846   6.821   6.323   4.730
 7202WAT      O21847   3.655   7.899   0.002
 7202WAT     H121848   3.567   7.946   0.008
 7202WAT     H221849   3.659   7.826   0.071
 7203WAT      O21850   1.049   2.601   3.660
 7203WAT     H121851   1.075   2.625   3.754
 7203WAT     H221852   0.971   2.538   3.662
 7204WAT      O21853   1.618   0.791   1.005
 7204WAT     H121854   1.683   0.755   0.938
 7204WAT     H221855   1.614   0.729   1.084
 7205WAT      O21856   9.030   2.346   5.957
 7205WAT     H121857   9.106   2.410   5.962
 7205WAT     H221858   9.016   2.317   5.862
 7206WAT      O21859   3.768   4.626   6.988
 7206WAT     H121860   3.832   4.634   7.064
 7206WAT     H221861   3.812   4.657   6.904
 7207WAT      O21862   9.850   0.205   8.652
 7207WAT     H121863   9.904   0.243   8.577
 7207WAT     H221864   9.881   0.112   8.671
 7208WAT      O21865   7.468   0.191   7.626
 7208WAT     H121866   7.469   0.099   7.666
 7208WAT     H221867   7.477   0.258   7.699
 7209WAT      O21868   7.781   8.240   2.349
 7209WAT     H121869   7.817   8.192   2.269
 7209WAT     H221870   7.858   8.268   2.407
 7210WAT      O21871   4.415   4.229   6.624
 7210WAT     H121872   4.335   4.170   6.636
 7210WAT     H221873   4.488   4.178   6.579
 7211WAT      O21874   6.137   0.070   9.645
 7211WAT     H121875   6.096   0.056   9.555
 7211WAT     H221876   6.097   0.151   9.688
 7212WAT      O21877   4.979   3.334   8.264
 7212WAT     H121878   4.982   3.424   8.308
 7212WAT     H221879   5.060   3.322   8.207
 7213WAT      O21880   7.095   2.205   4.661
 7213WAT     H121881   7.078   2.248   4.750
 7213WAT     H221882   7.193   2.188   4.650
 7214WAT      O21883   8.290   7.646   7.598
 7214WAT     H121884   8.251   7.697   7.675
 7214WAT     H221885   8.216   7.602   7.547
 7215WAT      O21886   1.230   4.963   2.242
 7215WAT     H121887   1.143   5.000   2.210
 7215WAT     H221888   1.222   4.934   2.337
 7216WAT      O21889   5.590   8.012   6.859
 7216WAT     H121890   5.608   7.972   6.770
 7216WAT     H221891   5.527   7.954   6.910
 7217WAT      O21892   9.654   4.931   6.022
 7217WAT     H121893   9.675   4.881   5.939
 7217WAT     H221894   9.678   4.876   6.102
 7218WAT      O21895   3.717   3.627   0.953
 7218WAT     H121896   3.743   3.602   0.860
 7218WAT     H221897   3.699   3.545   1.006
 7219WAT      O21898   2.906   5.276   4.249
 7219WAT     H121899   2.864   5.328   4.175
 7219WAT     H221900   2.835   5.224   4.298
 7220WAT      O21901   7.867   4.948   5.260
 7220WAT     H121902   7.952   4.984   5.221
 7220WAT     H221903   7.791   5.010   5.238
 7221WAT      O21904   6.670   7.942   8.288
 7221WAT     H121905   6.728   7.866   8.258
 7221WAT     H221906   6.626   7.918   8.374
 7222WAT      O21907   1.619   5.142   2.853
 7222WAT     H121908   1.711   5.175   2.832
 7222WAT     H221909   1.591   5.177   2.943
 7223WAT      O21910   8.351   0.677   1.709
 7223WAT     H121911   8.434   0.626   1.734
 7223WAT     H221912   8.296   0.623   1.646
 7224WAT      O21913   2.841   3.866   8.858
 7224WAT     H121914   2.929   3.912   8.849
 7224WAT     H221915   2.782   3.918   8.919
 7225WAT      O21916   0.651   8.620   0.702
 7225WAT     H121917   0.716   8.676   0.651
 7225WAT     H221918   0.566   8.612   0.649
 7226WAT      O21919   3.432   0.137   0.066
 7226WAT     H121920   3.336   0.113   0.049
 7226WAT     H221921   3.440   0.176   0.158
 7227WAT      O21922   0.466   9.089   1.992
 7227WAT     H121923   0.530   9.113   1.919
 7227WAT     H221924   0.514   9.089   2.080
 7228WAT      O21925   3.576   4.457   8.137
 7228WAT     H121926   3.642   4.382   8.136
 7228WAT     H221927   3.592   4.516   8.058
 7229WAT      O21928   8.337   6.897   3.037
 7229WAT     H121929   8.312   6.930   2.946
 7229WAT     H221930   8.256   6.893   3.095
 7230WAT      O21931   2.874   2.808   0.384
 7230WAT     H121932   2.817   2.882   0.422
 7230WAT     H221933   2.883   2.735   0.453
 7231WAT      O21934   7.072   2.009   2.532
 7231WAT     H121935   7.134   1.977   2.604
 7231WAT     H221936   7.077   1.945   2.454
 7232WAT      O21937   1.408   8.522   1.745
 7232WAT     H121938   1.458   8.463   1.682
 7232WAT     H221939   1.441   8.507   1.838
 7233WAT      O21940   9.445   8.481   4.452
 7233WAT     H121941   9.361   8.428   4.441
 7233WAT     H221942   9.501   8.470   4.371
 7234WAT      O21943   6.707   2.914   8.103
 7234WAT     H121944   6.682   2.995   8.050
 7234WAT     H221945   6.679   2.832   8.053
 7235WAT      O21946   0.683   1.434   1.138
 7235WAT     H121947   0.605   1.414   1.078
 7235WAT     H221948   0.746   1.356   1.138
 7236WAT      O21949   0.863   9.075   7.186
 7236WAT     H121950   0.948   9.116   7.220
 7236WAT     H221951   0.813   9.033   7.263
 7237WAT      O21952   2.769   8.263   9.870
 7237WAT     H121953   2.676   8.298   9.855
 7237WAT     H221954   2.765   8.164   9.880
 7238WAT      O21955   8.643   5.455   3.145
 7238WAT     H121956   8.653   5.414   3.236
 7238WAT     H221957   8.552   5.433   3.109
 7239WAT      O21958   7.504   5.237   3.225
 7239WAT     H121959   7.543   5.306   3.163
 7239WAT     H221960   7.405   5.237   3.217
 7240WAT      O21961   6.451   1.865   5.007
 7240WAT     H121962   6.438   1.937   5.075
 7240WAT     H221963   6.508   1.899   4.932
 7241WAT      O21964   6.944   9.265   1.129
 7241WAT     H121965   7.042   9.277   1.113
 7241WAT     H221966   6.894   9.290   1.046
 7242WAT      O21967   4.224   3.011   3.041
 7242WAT     H121968   4.259   3.034   2.950
 7242WAT     H221969   4.141   2.956   3.033
 7243WAT      O21970   6.723   4.165   7.520
 7243WAT     H121971   6.679   4.254   7.529
 7243WAT     H221972   6.653   4.094   7.513
 7244WAT      O21973   9.447   1.772   3.181
 7244WAT     H121974   9.527   1.829   3.163
 7244WAT     H221975   9.395   1.812   3.257
 7245WAT      O21976   3.084   6.741   6.514
 7245WAT     H121977   3.030   6.730   6.598
 7245WAT     H221978   3.067   6.665   6.452
 7246WAT      O21979   0.060   8.719   2.087
 7246WAT     H121980   0.019   8.673   2.009
 7246WAT     H221981   0.057   8.818   2.073
 7247WAT      O21982   7.166   4.764   6.522
 7247WAT     H121983   7.178   4.683   6.465
 7247WAT     H221984   7.104   4.742   6.597
 7248WAT      O21985   3.018   7.700   5.335
 7248WAT     H121986   3.005   7.701   5.434
 7248WAT     H221987   2.968   7.623   5.296
 7249WAT      O21988   2.913   5.945   8.501
 7249WAT     H121989   2.840   5.945   8.433
 7249WAT     H221990   2.983   6.011   8.474
 7250WAT      O21991   2.225   7.933   5.140
 7250WAT     H121992   2.255   7.982   5.221
 7250WAT     H221993   2.291   7.860   5.119
 7251WAT      O21994   9.547   2.072   9.065
 7251WAT     H121995   9.587   1.982   9.047
 7251WAT     H221996   9.590   2.141   9.006
 7252WAT      O21997   7.310   5.686   6.121
 7252WAT     H121998   7.322   5.587   6.131
 7252WAT     H221999   7.398   5.732   6.131
 7253WAT      O22000   3.373   1.859   2.928
 7253WAT     H122001   3.337   1.939   2.977
 7253WAT     H222002   3.437   1.890   2.857
 7254WAT      O22003   4.224   1.869   7.981
 7254WAT     H122004   4.290   1.943   7.988
 7254WAT     H222005   4.272   1.782   7.967
 7255WAT      O22006   0.329   3.093   8.576
 7255WAT     H122007   0.256   3.093   8.508
 7255WAT     H222008   0.371   3.183   8.580
 7256WAT      O22009   2.763   0.615   8.582
 7256WAT     H122010   2.854   0.602   8.543
 7256WAT     H222011   2.746   0.543   8.650
 7257WAT      O22012   8.069   7.834   2.463
 7257WAT     H122013   8.149   7.887   2.434
 7257WAT     H222014   8.085   7.737   2.447
 7258WAT      O22015   5.387   2.969   6.222
 7258WAT     H122016   5.315   2.919   6.173
 7258WAT     H222017   5.390   2.938   6.317
 7259WAT      O22018   6.085   8.946   2.763
 7259WAT     H122019   6.043   8.872   2.815
 7259WAT     H222020   6.026   9.027   2.765
 7260WAT      O22021   8.137   5.455   0.032
 7260WAT     H122022   8.105   5.541   0.071
 7260WAT     H222023   8.192   5.406   0.099
 7261WAT      O22024   3.291   5.306   0.455
 7261WAT     H122025   3.369   5.307   0.517
 7261WAT     H222026   3.281   5.396   0.413
 7262WAT      O22027   4.831   9.233   0.139
 7262WAT     H122028   4.872   9.246   0.230
 7262WAT     H222029   4.902   9.213   0.073
 7263WAT      O22030   1.326   3.024   0.899
 7263WAT     H122031   1.283   2.959   0.836
 7263WAT     H222032   1.386   3.085   0.847
 7264WAT      O22033   0.620   3.943   5.143
 7264WAT     H122034   0.576   3.853   5.131
 7264WAT     H222035   0.550   4.014   5.144
 7265WAT      O22036   1.381   9.027   1.419
 7265WAT     H122037   1.330   8.957   1.370
 7265WAT     H222038   1.476   9.026   1.388
 7266WAT      O22039   4.441   9.454   8.407
 7266WAT     H122040   4.493   9.538   8.416
 7266WAT     H222041   4.383   9.459   8.325
 7267WAT      O22042   7.323   6.947   3.770
 7267WAT     H122043   7.236   6.992   3.787
 7267WAT     H222044   7.308   6.853   3.739
 7268WAT      O22045   1.596   3.509   4.024
 7268WAT     H122046   1.558   3.589   4.071
 7268WAT     H222047   1.693   3.524   4.005
 7269WAT      O22048   5.609   4.762   4.215
 7269WAT     H122049   5.596   4.861   4.216
 7269WAT     H222050   5.542   4.720   4.153
 7270WAT      O22051   3.666   7.395   5.560
 7270WAT     H122052   3.637   7.490   5.570
 7270WAT     H222053   3.623   7.339   5.630
 7271WAT      O22054   8.567   0.219   6.743
 7271WAT     H122055   8.496   0.155   6.713
 7271WAT     H222056   8.532   0.312   6.739
 7272WAT      O22057   5.316   4.214   1.072
 7272WAT     H122058   5.295   4.242   0.978
 7272WAT     H222059   5.402   4.163   1.073
 7273WAT      O22060   7.730   4.940   3.325
 7273WAT     H122061   7.649   4.883   3.336
 7273WAT     H222062   7.803   4.905   3.384
 7274WAT      O22063   1.569   1.525   0.638
 7274WAT     H122064   1.470   1.511   0.643
 7274WAT     H222065   1.589   1.615   0.599
 7275WAT      O22066   0.635   1.811   1.369
 7275WAT     H122067   0.615   1.731   1.425
 7275WAT     H222068   0.662   1.782   1.277
 7276WAT      O22069   8.263   0.721   9.664
 7276WAT     H122070   8.221   0.812   9.667
 7276WAT     H222071   8.353   0.724   9.707
 7277WAT      O22072   3.858   4.312   1.841
 7277WAT     H122073   3.786   4.337   1.777
 7277WAT     H222074   3.826   4.328   1.934
 7278WAT      O22075   1.499   4.819   4.081
 7278WAT     H122076   1.451   4.807   3.994
 7278WAT     H222077   1.494   4.915   4.108
 7279WAT      O22078   1.060   7.851   8.402
 7279WAT     H122079   1.129   7.817   8.339
 7279WAT     H222080   1.025   7.939   8.369
 7280WAT      O22081   7.870   8.992   8.810
 7280WAT     H122082   7.825   9.074   8.846
 7280WAT     H222083   7.956   9.018   8.765
 7281WAT      O22084   3.261   4.676   4.042
 7281WAT     H122085   3.317   4.604   4.082
 7281WAT     H222086   3.317   4.734   3.983
 7282WAT      O22087   6.279   3.353   8.573
 7282WAT     H122088   6.367   3.311   8.595
 7282WAT     H222089   6.230   3.374   8.658
 7283WAT      O22090   8.515   0.712   4.599
 7283WAT     H122091   8.543   0.638   4.538
 7283WAT     H222092   8.455   0.775   4.550
 7284WAT      O22093   4.916   1.351   5.623
 7284WAT     H122094   4.882   1.440   5.591
 7284WAT     H222095   4.848   1.281   5.602
 7285WAT      O22096   9.409   3.304   2.359
 7285WAT     H122097   9.441   3.280   2.268
 7285WAT     H222098   9.451   3.243   2.427
 7286WAT      O22099   3.735   6.864   2.900
 7286WAT     H122100   3.794   6.912   2.965
 7286WAT     H222101   3.749   6.901   2.809
 7287WAT      O22102   1.534   0.562   5.030
 7287WAT     H122103   1.445   0.561   4.984
 7287WAT     H222104   1.603   0.598   4.967
 7288WAT      O22105   9.777   2.108   1.970
 7288WAT     H122106   9.718   2.188   1.981
 7288WAT     H222107   9.745   2.034   2.029
 7289WAT      O22108   5.301   4.305   3.493
 7289WAT     H122109   5.201   4.293   3.499
 7289WAT     H222110   5.341   4.287   3.583
 7290WAT      O22111   1.997   8.473   8.180
 7290WAT     H122112   1.902   8.504   8.181
 7290WAT     H222113   2.011   8.405   8.251
 7291WAT      O22114   4.104   8.259   1.953
 7291WAT     H122115   4.120   8.313   1.870
 7291WAT     H222116   4.069   8.169   1.928
 7292WAT      O22117   8.163   8.659   9.432
 7292WAT     H122118   8.087   8.649   9.368
 7292WAT     H222119   8.206   8.748   9.420
 7293WAT      O22120   3.992   3.097   9.588
 7293WAT     H122121   4.068   3.034   9.603
 7293WAT     H222122   3.953   3.081   9.497
 7294WAT      O22123   1.669   3.658   1.482
 7294WAT     H122124   1.762   3.695   1.483
 7294WAT     H222125   1.617   3.699   1.408
 7295WAT      O22126   0.657   8.027   9.375
 7295WAT     H122127   0.586   8.091   9.404
 7295WAT     H222128   0.643   7.939   9.421
 7296WAT      O22129   4.898   1.045   4.733
 7296WAT     H122130   4.908   1.141   4.760
 7296WAT     H222131   4.980   0.994   4.758
 7297WAT      O22132   4.414   5.896   6.801
 7297WAT     H122133   4.435   5.801   6.775
 7297WAT     H222134   4.467   5.959   6.744
 7298WAT      O22135   2.724   7.720   8.467
 7298WAT     H122136   2.770   7.632   8.471
 7298WAT     H222137   2.625   7.706   8.457
 7299WAT      O22138   0.016   1.590   3.960
 7299WAT     H122139  -0.014   1.573   4.054
 7299WAT     H222140   0.080   1.667   3.959
 7300WAT      O22141   6.615   2.433   5.523
 7300WAT     H122142   6.656   2.483   5.599
 7300WAT     H222143   6.678   2.434   5.445
 7301WAT      O22144   0.881   0.545   2.081
 7301WAT     H122145   0.801   0.522   2.025
 7301WAT     H222146   0.919   0.632   2.050
 7302WAT      O22147   0.043   5.214   0.022
 7302WAT     H122148   0.126   5.203  -0.032
 7302WAT     H222149  -0.030   5.254  -0.035
 7303WAT      O22150   3.586   1.053   7.243
 7303WAT     H122151   3.502   1.032   7.195
 7303WAT     H222152   3.584   1.148   7.274
 7304WAT      O22153   6.246   5.362   7.068
 7304WAT     H122154   6.222   5.459   7.065
 7304WAT     H222155   6.225   5.319   6.980
 7305WAT      O22156   8.529   5.765   4.941
 7305WAT     H122157   8.514   5.703   5.017
 7305WAT     H222158   8.478   5.849   4.955
 7306WAT      O22159   9.564   1.299   1.052
 7306WAT     H122160   9.656   1.323   1.082
 7306WAT     H222161   9.515   1.381   1.024
 7307WAT      O22162   8.540   1.783   3.502
 7307WAT     H122163   8.598   1.781   3.421
 7307WAT     H222164   8.561   1.704   3.560
 7308WAT      O22165   3.686   4.195   1.438
 7308WAT     H122166   3.698   4.245   1.524
 7308WAT     H222167   3.619   4.242   1.382
 7309WAT      O22168   6.344   6.120   8.379
 7309WAT     H122169   6.370   6.027   8.350
 7309WAT     H222170   6.254   6.118   8.422
 7310WAT      O22171   1.782   1.483   9.604
 7310WAT     H122172   1.734   1.521   9.525
 7310WAT     H222173   1.880   1.495   9.593
 7311WAT      O22174   0.923   6.636   1.029
 7311WAT     H122175   0.878   6.717   1.065
 7311WAT     H222176   0.972   6.659   0.945
 7312WAT      O22177   4.857   0.380   5.368
 7312WAT     H122178   4.900   0.426   5.289
 7312WAT     H222179   4.928   0.356   5.434
 7313WAT      O22180   6.710   8.215   7.632
 7313WAT     H122181   6.631   8.157   7.611
 7313WAT     H222182   6.763   8.229   7.549
 7314WAT      O22183   5.402   6.933   0.150
 7314WAT     H122184   5.412   6.906   0.054
 7314WAT     H222185   5.385   6.852   0.206
 7315WAT      O22186   4.455   4.595   1.058
 7315WAT     H122187   4.531   4.548   1.102
 7315WAT     H222188   4.470   4.596   0.959
 7316WAT      O22189   4.042   1.877   8.610
 7316WAT     H122190   3.978   1.929   8.667
 7316WAT     H222191   4.121   1.934   8.588
 7317WAT      O22192   0.935   4.268   8.092
 7317WAT     H122193   0.914   4.272   7.994
 7317WAT     H222194   0.997   4.343   8.115
 7318WAT      O22195   0.651   0.205   3.401
 7318WAT     H122196   0.661   0.304   3.393
 7318WAT     H222197   0.554   0.180   3.390
 7319WAT      O22198   8.932   9.116   6.195
 7319WAT     H122199   8.878   9.083   6.272
 7319WAT     H222200   9.021   9.071   6.196
 7320WAT      O22201   6.595   4.703   3.442
 7320WAT     H122202   6.566   4.761   3.519
 7320WAT     H222203   6.554   4.612   3.452
 7321WAT      O22204   8.263   0.120   9.270
 7321WAT     H122205   8.350   0.094   9.228
 7321WAT     H222206   8.273   0.122   9.369
 7322WAT      O22207   3.317   3.768   6.436
 7322WAT     H122208   3.388   3.831   6.468
 7322WAT     H222209   3.295   3.786   6.341
 7323WAT      O22210   7.828   3.708   2.209
 7323WAT     H122211   7.831   3.780   2.278
 7323WAT     H222212   7.819   3.619   2.253
 7324WAT      O22213   5.230   0.539   3.245
 7324WAT     H122214   5.292   0.545   3.323
 7324WAT     H222215   5.137   0.520   3.278
 7325WAT      O22216   4.057   5.437   4.444
 7325WAT     H122217   4.096   5.394   4.363
 7325WAT     H222218   3.995   5.511   4.417
 7326WAT      O22219   5.201   2.093   5.027
 7326WAT     H122220   5.197   2.161   5.100
 7326WAT     H222221   5.279   2.031   5.043
 7327WAT      O22222   0.874   5.734   4.759
 7327WAT     H122223   0.847   5.682   4.677
 7327WAT     H222224   0.833   5.825   4.755
 7328WAT      O22225   5.005   2.016   4.638
 7328WAT     H122226   4.944   1.978   4.569
 7328WAT     H222227   5.086   1.958   4.648
 7329WAT      O22228   0.032   0.821   2.537
 7329WAT     H122229  -0.064   0.826   2.564
 7329WAT     H222230   0.041   0.758   2.460
 7330WAT      O22231   0.217   5.581   5.559
 7330WAT     H122232   0.213   5.500   5.618
 7330WAT     H222233   0.293   5.570   5.495
 7331WAT      O22234   4.085   1.323   8.727
 7331WAT     H122235   4.088   1.247   8.793
 7331WAT     H222236   3.991   1.339   8.698
 7332WAT      O22237   4.554   4.400   4.119
 7332WAT     H122238   4.535   4.432   4.212
 7332WAT     H222239   4.481   4.430   4.058
 7333WAT      O22240   7.149   6.514   0.574
 7333WAT     H122241   7.200   6.544   0.654
 7333WAT     H222242   7.207   6.456   0.518
 7334WAT      O22243   4.306   5.286   9.802
 7334WAT     H122244   4.285   5.202   9.853
 7334WAT     H222245   4.365   5.264   9.724
 7335WAT      O22246   3.272   7.306   9.736
 7335WAT     H122247   3.341   7.375   9.760
 7335WAT     H222248   3.299   7.262   9.650
 7336WAT      O22249   4.883   1.370   7.491
 7336WAT     H122250   4.837   1.446   7.534
 7336WAT     H222251   4.910   1.395   7.398
 7337WAT      O22252   2.308   2.235   5.732
 7337WAT     H122253   2.342   2.156   5.680
 7337WAT     H222254   2.278   2.206   5.822
 7338WAT      O22255   9.466   3.832   4.470
 7338WAT     H122256   9.481   3.870   4.561
 7338WAT     H222257   9.433   3.904   4.409
 7339WAT      O22258   6.453   5.693   5.132
 7339WAT     H122259   6.467   5.723   5.038
 7339WAT     H222260   6.406   5.765   5.183
 7340WAT      O22261   1.855   4.988   6.239
 7340WAT     H122262   1.947   5.014   6.267
 7340WAT     H222263   1.805   5.068   6.208
 7341WAT      O22264   4.515   1.473   5.346
 7341WAT     H122265   4.487   1.535   5.272
 7341WAT     H222266   4.436   1.452   5.404
 7342WAT      O22267   4.784   7.597   6.213
 7342WAT     H122268   4.746   7.506   6.194
 7342WAT     H222269   4.757   7.660   6.141
 7343WAT      O22270   0.770   1.351   6.664
 7343WAT     H122271   0.708   1.425   6.687
 7343WAT     H222272   0.755   1.274   6.727
 7344WAT      O22273   3.317   6.602   7.904
 7344WAT     H122274   3.353   6.610   7.997
 7344WAT     H222275   3.239   6.662   7.892
 7345WAT      O22276   2.730   2.323   6.998
 7345WAT     H122277   2.766   2.232   7.018
 7345WAT     H222278   2.758   2.350   6.906
 7346WAT      O22279   0.640   5.737   3.501
 7346WAT     H122280   0.692   5.799   3.442
 7346WAT     H222281   0.543   5.758   3.494
 7347WAT      O22282   2.520   0.311   3.428
 7347WAT     H122283   2.537   0.290   3.332
 7347WAT     H222284   2.569   0.395   3.454
 7348WAT      O22285   8.828   2.898   3.681
 7348WAT     H122286   8.774   2.939   3.607
 7348WAT     H222287   8.776   2.902   3.766
 7349WAT      O22288   9.566   1.150   6.848
 7349WAT     H122289   9.533   1.234   6.892
 7349WAT     H222290   9.662   1.160   6.825
 7350WAT      O22291   7.413   6.235   3.900
 7350WAT     H122292   7.446   6.141   3.910
 7350WAT     H222293   7.452   6.275   3.817
 7351WAT      O22294   5.506   4.389   3.761
 7351WAT     H122295   5.470   4.482   3.754
 7351WAT     H222296   5.587   4.381   3.703
 7352WAT      O22297   5.037   4.596   8.587
 7352WAT     H122298   5.069   4.566   8.676
 7352WAT     H222299   5.035   4.518   8.524
 7353WAT      O22300   6.871   8.707   0.509
 7353WAT     H122301   6.908   8.756   0.587
 7353WAT     H222302   6.771   8.707   0.513
 7354WAT      O22303   6.955   2.709   7.929
 7354WAT     H122304   6.882   2.770   7.959
 7354WAT     H222305   7.044   2.751   7.947
 7355WAT      O22306   6.483   7.924   8.099
 7355WAT     H122307   6.540   7.918   8.181
 7355WAT     H222308   6.492   7.840   8.045
 7356WAT      O22309   1.216   8.771   5.754
 7356WAT     H122310   1.304   8.818   5.746
 7356WAT     H222311   1.194   8.758   5.851
 7357WAT      O22312   9.746   0.213   8.264
 7357WAT     H122313   9.710   0.122   8.244
 7357WAT     H222314   9.677   0.282   8.243
 7358WAT      O22315   5.530   8.154   7.550
 7358WAT     H122316   5.454   8.219   7.544
 7358WAT     H222317   5.495   8.061   7.540
 7359WAT      O22318   2.068   9.582   0.944
 7359WAT     H122319   1.975   9.556   0.920
 7359WAT     H222320   2.065   9.658   1.010
 7360WAT      O22321   0.077   5.963   3.032
 7360WAT     H122322   0.016   5.918   3.097
 7360WAT     H222323   0.164   5.983   3.077
 7361WAT      O22324   6.901   3.855   2.351
 7361WAT     H122325   6.950   3.876   2.435
 7361WAT     H222326   6.965   3.822   2.282
 7362WAT      O22327   3.707   4.615   6.250
 7362WAT     H122328   3.749   4.678   6.183
 7362WAT     H222329   3.609   4.608   6.231
 7363WAT      O22330   7.280   9.025   2.069
 7363WAT     H122331   7.217   9.032   1.992
 7363WAT     H222332   7.367   9.067   2.045
 7364WAT      O22333   0.020   9.291   5.619
 7364WAT     H122334  -0.039   9.367   5.648
 7364WAT     H222335  -0.027   9.204   5.636
 7365WAT      O22336   5.874   3.341   7.433
 7365WAT     H122337   5.835   3.349   7.524
 7365WAT     H222338   5.938   3.264   7.430
 7366WAT      O22339   8.833   7.967   6.781
 7366WAT     H122340   8.818   8.065   6.794
 7366WAT     H222341   8.754   7.927   6.734
 7367WAT      O22342   6.565   6.015   5.962
 7367WAT     H122343   6.633   6.026   6.034
 7367WAT     H222344   6.589   6.073   5.884
 7368WAT      O22345   4.101   9.008   8.234
 7368WAT     H122346   4.139   9.029   8.144
 7368WAT     H222347   4.005   9.036   8.238
 7369WAT      O22348   9.118   5.718   0.252
 7369WAT     H122349   9.032   5.737   0.298
 7369WAT     H222350   9.119   5.762   0.163
 7370WAT      O22351   9.579   1.735   4.243
 7370WAT     H122352   9.553   1.673   4.317
 7370WAT     H222353   9.508   1.733   4.172
 7371WAT      O22354   9.563   3.756   3.421
 7371WAT     H122355   9.527   3.751   3.515
 7371WAT     H222356   9.661   3.740   3.423
 7372WAT      O22357   6.611   4.046   5.427
 7372WAT     H122358   6.512   4.031   5.430
 7372WAT     H222359   6.633   4.135   5.469
 7373WAT      O22360   6.713   8.385   4.172
 7373WAT     H122361   6.726   8.336   4.258
 7373WAT     H222362   6.631   8.443   4.180
 7374WAT      O22363   7.990   2.989   6.370
 7374WAT     H122364   8.051   2.915   6.340
 7374WAT     H222365   7.901   2.979   6.326
 7375WAT      O22366   8.301   4.291   5.360
 7375WAT     H122367   8.393   4.254   5.366
 7375WAT     H222368   8.239   4.222   5.323
 7376WAT      O22369   6.399   1.227   5.977
 7376WAT     H122370   6.345   1.144   5.964
 7376WAT     H222371   6.492   1.211   5.942
 7377WAT      O22372   8.500   9.392   6.550
 7377WAT     H122373   8.420   9.408   6.608
 7377WAT     H222374   8.568   9.462   6.567
 7378WAT      O22375   9.886   3.439   1.188
 7378WAT     H122376   9.968   3.404   1.143
 7378WAT     H222377   9.840   3.504   1.128
 7379WAT      O22378   8.756   0.384   3.572
 7379WAT     H122379   8.803   0.465   3.609
 7379WAT     H222380   8.822   0.311   3.557
 7380WAT      O22381   2.750   0.495   8.836
 7380WAT     H122382   2.713   0.571   8.890
 7380WAT     H222383   2.835   0.462   8.878
 7381WAT      O22384   0.685   3.505   7.202
 7381WAT     H122385   0.734   3.463   7.278
 7381WAT     H222386   0.593   3.467   7.197
 7382WAT      O22387   5.752   1.212   0.538
 7382WAT     H122388   5.821   1.174   0.601
 7382WAT     H222389   5.769   1.178   0.446
 7383WAT      O22390   3.883   5.878   2.660
 7383WAT     H122391   3.964   5.886   2.718
 7383WAT     H222392   3.843   5.968   2.645
 7384WAT      O22393   6.192   7.866   7.200
 7384WAT     H122394   6.208   7.865   7.101
 7384WAT     H222395   6.222   7.953   7.237
 7385WAT      O22396   8.898   2.740   8.585
 7385WAT     H122397   8.806   2.761   8.618
 7385WAT     H222398   8.966   2.787   8.640
 7386WAT      O22399   7.954   6.041   8.509
 7386WAT     H122400   8.006   5.973   8.458
 7386WAT     H222401   7.939   6.121   8.451
 7387WAT      O22402   5.662   7.621   9.473
 7387WAT     H122403   5.567   7.642   9.496
 7387WAT     H222404   5.720   7.639   9.552
 7388WAT      O22405   7.004   8.953   3.094
 7388WAT     H122406   7.056   8.868   3.102
 7388WAT     H222407   7.031   9.017   3.166
 7389WAT      O22408   4.520   9.003   0.137
 7389WAT     H122409   4.518   9.050   0.049
 7389WAT     H222410   4.469   9.057   0.204
 7390WAT      O22411   5.405   2.085   6.800
 7390WAT     H122412   5.502   2.059   6.791
 7390WAT     H222413   5.348   2.012   6.762
 7391WAT      O22414   5.668   0.651   3.183
 7391WAT     H122415   5.605   0.706   3.129
 7391WAT     H222416   5.657   0.555   3.160
 7392WAT      O22417   0.451   5.432   7.803
 7392WAT     H122418   0.542   5.391   7.814
 7392WAT     H222419   0.415   5.408   7.712
 7393WAT      O22420   8.407   4.281   0.314
 7393WAT     H122421   8.422   4.243   0.405
 7393WAT     H222422   8.494   4.284   0.265
 7394WAT      O22423   2.395   0.899   0.859
 7394WAT     H122424   2.416   0.942   0.947
 7394WAT     H222425   2.460   0.932   0.790
 7395WAT      O22426   6.011   6.900   0.181
 7395WAT     H122427   5.966   6.987   0.162
 7395WAT     H222428   5.950   6.825   0.157
 7396WAT      O22429   2.059   0.519   2.273
 7396WAT     H122430   2.136   0.456   2.288
 7396WAT     H222431   2.078   0.576   2.193
 7397WAT      O22432   7.061   0.887   3.415
 7397WAT     H122433   6.992   0.957   3.434
 7397WAT     H222434   7.059   0.818   3.487
 7398WAT      O22435   6.863   7.329   9.433
 7398WAT     H122436   6.783   7.297   9.483
 7398WAT     H222437   6.946   7.306   9.484
 7399WAT      O22438   5.524   1.881   6.014
 7399WAT     H122439   5.521   1.798   6.069
 7399WAT     H222440   5.610   1.886   5.964
 7400WAT      O22441   7.451   8.339   9.045
 7400WAT     H122442   7.375   8.392   9.008
 7400WAT     H222443   7.421   8.291   9.128
 7401WAT      O22444   2.322   5.524   0.365
 7401WAT     H122445   2.282   5.564   0.283
 7401WAT     H222446   2.315   5.589   0.441
 7402WAT      O22447   6.553   0.026   9.808
 7402WAT     H122448   6.561   0.126   9.806
 7402WAT     H222449   6.473   0.001   9.862
 7403WAT      O22450   8.873   5.538   8.104
 7403WAT     H122451   8.784   5.503   8.075
 7403WAT     H222452   8.944   5.473   8.078
 7404WAT      O22453   5.685   7.717   7.244
 7404WAT     H122454   5.768   7.748   7.198
 7404WAT     H222455   5.608   7.717   7.180
 7405WAT      O22456   1.716   7.353   7.447
 7405WAT     H122457   1.745   7.441   7.409
 7405WAT     H222458   1.624   7.362   7.484
 7406WAT      O22459   8.553   9.227   1.128
 7406WAT     H122460   8.633   9.205   1.183
 7406WAT     H222461   8.469   9.210   1.180
 7407WAT      O22462   8.165   3.293   8.811
 7407WAT     H122463   8.206   3.327   8.726
 7407WAT     H222464   8.081   3.343   8.830
 7408WAT      O22465   0.326   4.717   2.123
 7408WAT     H122466   0.306   4.684   2.030
 7408WAT     H222467   0.282   4.806   2.136
 7409WAT      O22468   8.592   2.975   8.515
 7409WAT     H122469   8.535   2.976   8.433
 7409WAT     H222470   8.555   3.041   8.581
 7410WAT      O22471   9.453   7.132   3.293
 7410WAT     H122472   9.416   7.172   3.209
 7410WAT     H222473   9.408   7.044   3.311
 7411WAT      O22474   8.356   3.575   2.131
 7411WAT     H122475   8.280   3.519   2.163
 7411WAT     H222476   8.399   3.621   2.209
 7412WAT      O22477   6.093   2.167   2.316
 7412WAT     H122478   6.083   2.257   2.275
 7412WAT     H222479   6.148   2.109   2.255
 7413WAT      O22480   6.381   4.679   5.528
 7413WAT     H122481   6.313   4.628   5.580
 7413WAT     H222482   6.459   4.619   5.507
 7414WAT      O22483   7.684   3.422   1.713
 7414WAT     H122484   7.780   3.413   1.687
 7414WAT     H222485   7.653   3.337   1.757
 7415WAT      O22486   5.274   9.632   2.398
 7415WAT     H122487   5.281   9.576   2.481
 7415WAT     H222488   5.326   9.588   2.325
 7416WAT      O22489   8.600   7.734   8.890
 7416WAT     H122490   8.560   7.651   8.929
 7416WAT     H222491   8.691   7.714   8.854
 7417WAT      O22492   6.635   2.674   9.000
 7417WAT     H122493   6.595   2.666   8.908
 7417WAT     H222494   6.732   2.649   8.996
 7418WAT      O22495   9.354   1.432   4.791
 7418WAT     H122496   9.320   1.435   4.697
 7418WAT     H222497   9.336   1.520   4.836
 7419WAT      O22498   2.752   5.874   7.506
 7419WAT     H122499   2.680   5.816   7.468
 7419WAT     H222500   2.759   5.859   7.605
 7420WAT      O22501   9.019   3.352   2.623
 7420WAT     H122502   9.093   3.366   2.689
 7420WAT     H222503   9.058   3.315   2.538
 7421WAT      O22504   9.133   3.074   5.390
 7421WAT     H122505   9.067   3.093   5.462
 7421WAT     H222506   9.113   2.986   5.348
 7422WAT      O22507   6.811   9.616   0.901
 7422WAT     H122508   6.904   9.636   0.872
 7422WAT     H222509   6.753   9.696   0.888
 7423WAT      O22510   3.404   3.547   9.767
 7423WAT     H122511   3.411   3.447   9.758
 7423WAT     H222512   3.308   3.573   9.766
 7424WAT      O22513   3.694   7.378   4.171
 7424WAT     H122514   3.748   7.321   4.110
 7424WAT     H222515   3.641   7.444   4.118
 7425WAT      O22516   8.127   7.542   1.711
 7425WAT     H122517   8.089   7.503   1.627
 7425WAT     H222518   8.183   7.622   1.689
 7426WAT      O22519   8.992   5.053   8.016
 7426WAT     H122520   8.997   4.978   8.082
 7426WAT     H222521   8.920   5.035   7.949
 7427WAT      O22522   2.694   0.907   7.316
 7427WAT     H122523   2.654   0.820   7.288
 7427WAT     H222524   2.699   0.968   7.237
 7428WAT      O22525   7.475   1.052   1.733
 7428WAT     H122526   7.424   0.981   1.782
 7428WAT     H222527   7.509   1.120   1.798
 7429WAT      O22528   4.106   4.726   0.866
 7429WAT     H122529   4.136   4.786   0.940
 7429WAT     H222530   4.184   4.704   0.807
 7430WAT      O22531   6.043   2.808   3.516
 7430WAT     H122532   6.002   2.800   3.607
 7430WAT     H222533   5.980   2.855   3.455
 7431WAT      O22534   1.436   1.634   9.561
 7431WAT     H122535   1.463   1.730   9.551
 7431WAT     H222536   1.404   1.618   9.655
 7432WAT      O22537   1.075   6.734   6.056
 7432WAT     H122538   0.993   6.714   6.001
 7432WAT     H222539   1.108   6.826   6.034
 7433WAT      O22540   8.131   2.421   0.106
 7433WAT     H122541   8.032   2.410   0.115
 7433WAT     H222542   8.160   2.387   0.017
 7434WAT      O22543   6.732   2.499   7.565
 7434WAT     H122544   6.816   2.518   7.617
 7434WAT     H222545   6.696   2.409   7.591
 7435WAT      O22546   6.858   1.266   7.824
 7435WAT     H122547   6.868   1.365   7.838
 7435WAT     H222548   6.900   1.217   7.900
 7436WAT      O22549   5.607   6.762   3.077
 7436WAT     H122550   5.695   6.795   3.110
 7436WAT     H222551   5.546   6.840   3.061
 7437WAT      O22552   6.030   1.067   5.168
 7437WAT     H122553   5.931   1.058   5.161
 7437WAT     H222554   6.056   1.160   5.142
 7438WAT      O22555   6.874   9.542   6.382
 7438WAT     H122556   6.798   9.486   6.414
 7438WAT     H222557   6.862   9.636   6.414
 7439WAT      O22558   9.776   5.792   4.425
 7439WAT     H122559   9.808   5.861   4.360
 7439WAT     H222560   9.686   5.759   4.397
 7440WAT      O22561   7.052   0.602   4.918
 7440WAT     H122562   7.019   0.513   4.949
 7440WAT     H222563   7.085   0.655   4.996
 7441WAT      O22564   9.138   4.267   0.305
 7441WAT     H122565   9.088   4.335   0.359
 7441WAT     H222566   9.079   4.188   0.289
 7442WAT      O22567   6.439   7.457   0.698
 7442WAT     H122568   6.355   7.504   0.672
 7442WAT     H222569   6.469   7.397   0.624
 7443WAT      O22570   8.606   7.273   4.060
 7443WAT     H122571   8.511   7.242   4.046
 7443WAT     H222572   8.659   7.200   4.103
 7444WAT      O22573   1.654   4.341   4.800
 7444WAT     H122574   1.565   4.386   4.804
 7444WAT     H222575   1.718   4.396   4.746
 7445WAT      O22576   0.836   6.291   6.788
 7445WAT     H122577   0.804   6.374   6.835
 7445WAT     H222578   0.929   6.307   6.754
 7446WAT      O22579   3.832   9.601   3.503
 7446WAT     H122580   3.876   9.554   3.579
 7446WAT     H222581   3.900   9.656   3.454
 7447WAT      O22582   4.724   8.391   9.135
 7447WAT     H122583   4.692   8.305   9.176
 7447WAT     H222584   4.823   8.388   9.126
 7448WAT      O22585   1.345   6.809   2.896
 7448WAT     H122586   1.289   6.801   2.813
 7448WAT     H222587   1.309   6.882   2.953
 7449WAT      O22588   8.343   1.995   5.483
 7449WAT     H122589   8.411   2.061   5.514
 7449WAT     H222590   8.271   1.985   5.552
 7450WAT      O22591   4.367   6.092   4.420
 7450WAT     H122592   4.357   6.191   4.424
 7450WAT     H222593   4.464   6.068   4.420
 7451WAT      O22594   3.982   6.032   8.767
 7451WAT     H122595   3.915   6.024   8.840
 7451WAT     H222596   4.070   6.062   8.804
 7452WAT      O22597   3.760   7.330   8.153
 7452WAT     H122598   3.787   7.425   8.137
 7452WAT     H222599   3.671   7.328   8.197
 7453WAT      O22600   9.505   0.558   8.763
 7453WAT     H122601   9.519   0.560   8.862
 7453WAT     H222602   9.410   0.580   8.742
 7454WAT      O22603   4.720   5.112   8.650
 7454WAT     H122604   4.814   5.095   8.680
 7454WAT     H222605   4.659   5.115   8.729
 7455WAT      O22606   2.664   2.582   5.176
 7455WAT     H122607   2.680   2.586   5.275
 7455WAT     H222608   2.706   2.662   5.132
 7456WAT      O22609   5.047   4.801   0.959
 7456WAT     H122610   5.116   4.807   1.032
 7456WAT     H222611   5.026   4.894   0.927
 7457WAT      O22612   6.720   5.090   2.032
 7457WAT     H122613   6.631   5.103   1.989
 7457WAT     H222614   6.792   5.091   1.962
 7458WAT      O22615   2.957   5.043   4.564
 7458WAT     H122616   2.919   4.970   4.620
 7458WAT     H222617   2.888   5.076   4.500
 7459WAT      O22618   7.890   0.684   2.384
 7459WAT     H122619   7.811   0.667   2.443
 7459WAT     H222620   7.973   0.653   2.430
 7460WAT      O22621   7.654   5.242   2.569
 7460WAT     H122622   7.684   5.337   2.560
 7460WAT     H222623   7.703   5.185   2.503
 7461WAT      O22624   7.141   4.165   8.054
 7461WAT     H122625   7.062   4.224   8.036
 7461WAT     H222626   7.190   4.199   8.134
 7462WAT      O22627   7.878   7.372   6.105
 7462WAT     H122628   7.806   7.431   6.141
 7462WAT     H222629   7.838   7.302   6.046
 7463WAT      O22630   2.203   1.161   3.930
 7463WAT     H122631   2.111   1.196   3.915
 7463WAT     H222632   2.270   1.231   3.904
 7464WAT      O22633   8.924   7.027   9.732
 7464WAT     H122634   9.015   7.015   9.773
 7464WAT     H222635   8.922   7.113   9.680
 7465WAT      O22636   1.196   5.292   2.713
 7465WAT     H122637   1.246   5.216   2.755
 7465WAT     H222638   1.225   5.378   2.755
 7466WAT      O22639   0.183   7.056   9.252
 7466WAT     H122640   0.224   7.017   9.170
 7466WAT     H222641   0.111   7.121   9.227
 7467WAT      O22642   3.451   0.091   2.843
 7467WAT     H122643   3.445   0.191   2.845
 7467WAT     H222644   3.440   0.060   2.748
 7468WAT      O22645   6.899   0.753   7.831
 7468WAT     H122646   6.820   0.786   7.882
 7468WAT     H222647   6.934   0.670   7.874
 7469WAT      O22648   0.256   7.140   9.737
 7469WAT     H122649   0.188   7.075   9.703
 7469WAT     H222650   0.308   7.178   9.660
 7470WAT      O22651   2.491   3.754   8.814
 7470WAT     H122652   2.493   3.848   8.781
 7470WAT     H222653   2.405   3.711   8.785
 7471WAT      O22654   3.385   7.453   6.291
 7471WAT     H122655   3.467   7.508   6.308
 7471WAT     H222656   3.326   7.456   6.372
 7472WAT      O22657   4.950   9.134   1.130
 7472WAT     H122658   4.975   9.179   1.044
 7472WAT     H222659   5.012   9.165   1.202
 7473WAT      O22660   0.799   4.751   2.412
 7473WAT     H122661   0.709   4.722   2.444
 7473WAT     H222662   0.869   4.717   2.476
 7474WAT      O22663   1.177   3.199   3.038
 7474WAT     H122664   1.198   3.219   3.133
 7474WAT     H222665   1.135   3.279   2.996
 7475WAT      O22666   7.407   7.295   1.894
 7475WAT     H122667   7.451   7.332   1.812
 7475WAT     H222668   7.364   7.370   1.944
 7476WAT      O22669   0.889   0.937   1.559
 7476WAT     H122670   0.986   0.912   1.555
 7476WAT     H222671   0.872   0.990   1.642
 7477WAT      O22672   7.777   6.410   6.940
 7477WAT     H122673   7.832   6.357   6.875
 7477WAT     H222674   7.720   6.475   6.891
 7478WAT      O22675   2.045   6.180   7.206
 7478WAT     H122676   2.114   6.163   7.277
 7478WAT     H222677   2.026   6.278   7.201
 7479WAT      O22678   2.590   0.271   5.767
 7479WAT     H122679   2.684   0.278   5.733
 7479WAT     H222680   2.529   0.250   5.691
 7480WAT      O22681   2.461   2.913   6.368
 7480WAT     H122682   2.478   2.860   6.451
 7480WAT     H222683   2.475   2.854   6.288
 7481WAT      O22684   8.860   8.918   1.713
 7481WAT     H122685   8.957   8.900   1.696
 7481WAT     H222686   8.808   8.833   1.705
 7482WAT      O22687   0.413   4.537   9.295
 7482WAT     H122688   0.475   4.542   9.373
 7482WAT     H222689   0.318   4.541   9.328
 7483WAT      O22690   2.648   1.958   9.810
 7483WAT     H122691   2.628   2.050   9.845
 7483WAT     H222692   2.571   1.897   9.831
 7484WAT      O22693   6.871   0.849   9.615
 7484WAT     H122694   6.946   0.784   9.625
 7484WAT     H222695   6.874   0.890   9.524
 7485WAT      O22696   8.258   9.367   7.069
 7485WAT     H122697   8.184   9.419   7.027
 7485WAT     H222698   8.345   9.395   7.029
 7486WAT      O22699   3.412   4.510   4.683
 7486WAT     H122700   3.356   4.583   4.644
 7486WAT     H222701   3.452   4.455   4.610
 7487WAT      O22702   2.425   7.428   1.557
 7487WAT     H122703   2.460   7.458   1.646
 7487WAT     H222704   2.478   7.349   1.526
 7488WAT      O22705   3.447   8.032   4.888
 7488WAT     H122706   3.496   8.113   4.920
 7488WAT     H222707   3.493   7.995   4.807
 7489WAT      O22708   2.216   5.424   4.048
 7489WAT     H122709   2.305   5.392   4.014
 7489WAT     H222710   2.182   5.496   3.988
 7490WAT      O22711   8.676   5.563   1.760
 7490WAT     H122712   8.657   5.628   1.686
 7490WAT     H222713   8.736   5.491   1.726
 7491WAT      O22714   9.384   0.623   7.829
 7491WAT     H122715   9.368   0.716   7.864
 7491WAT     H222716   9.315   0.561   7.867
 7492WAT      O22717   5.768   1.459   6.766
 7492WAT     H122718   5.821   1.375   6.781
 7492WAT     H222719   5.828   1.538   6.775
 7493WAT      O22720   9.001   4.032   0.268
 7493WAT     H122721   9.034   3.984   0.187
 7493WAT     H222722   8.905   4.007   0.285
 7494WAT      O22723   5.936   4.786   1.330
 7494WAT     H122724   5.991   4.737   1.397
 7494WAT     H222725   5.993   4.809   1.251
 7495WAT      O22726   9.489   5.695   9.130
 7495WAT     H122727   9.467   5.770   9.068
 7495WAT     H222728   9.545   5.627   9.082
 7496WAT      O22729   2.934   9.101   3.564
 7496WAT     H122730   2.910   9.036   3.637
 7496WAT     H222731   2.951   9.051   3.480
 7497WAT      O22732   6.042   8.018   4.416
 7497WAT     H122733   6.027   8.019   4.317
 7497WAT     H222734   5.954   8.017   4.464
 7498WAT      O22735   7.179   7.334   3.635
 7498WAT     H122736   7.168   7.424   3.593
 7498WAT     H222737   7.115   7.270   3.592
 7499WAT      O22738   4.363   5.029   2.479
 7499WAT     H122739   4.430   4.956   2.497
 7499WAT     H222740   4.388   5.077   2.396
 7500WAT      O22741   8.787   6.430   8.792
 7500WAT     H122742   8.831   6.341   8.810
 7500WAT     H222743   8.715   6.418   8.725
 7501WAT      O22744   1.360   5.667   6.606
 7501WAT     H122745   1.414   5.695   6.686
 7501WAT     H222746   1.286   5.732   6.591
 7502WAT      O22747   8.415   1.072   5.852
 7502WAT     H122748   8.490   1.113   5.905
 7502WAT     H222749   8.453   1.025   5.772
 7503WAT      O22750   9.330   1.590   1.615
 7503WAT     H122751   9.394   1.667   1.616
 7503WAT     H222752   9.348   1.531   1.693
 7504WAT      O22753   3.440   9.674   0.341
 7504WAT     H122754   3.361   9.628   0.382
 7504WAT     H222755   3.511   9.686   0.410
 7505WAT      O22756   6.049   6.287   6.958
 7505WAT     H122757   5.952   6.266   6.970
 7505WAT     H222758   6.094   6.288   7.047
 7506WAT      O22759   4.723   1.807   1.499
 7506WAT     H122760   4.802   1.747   1.510
 7506WAT     H222761   4.706   1.856   1.585
 7507WAT      O22762   0.741   1.239   4.419
 7507WAT     H122763   0.701   1.155   4.455
 7507WAT     H222764   0.787   1.289   4.493
 7508WAT      O22765   1.359   1.719   6.917
 7508WAT     H122766   1.448   1.749   6.882
 7508WAT     H222767   1.372   1.647   6.984
 7509WAT      O22768   5.227   0.736   3.050
 7509WAT     H122769   5.229   0.688   3.137
 7509WAT     H222770   5.170   0.686   2.985
 7510WAT      O22771   6.964   5.411   8.562
 7510WAT     H122772   6.938   5.315   8.552
 7510WAT     H222773   6.918   5.465   8.491
 7511WAT      O22774   0.205   1.367   0.270
 7511WAT     H122775   0.251   1.306   0.334
 7511WAT     H222776   0.265   1.444   0.249
 7512WAT      O22777   2.869   7.269   9.836
 7512WAT     H122778   2.897   7.270   9.932
 7512WAT     H222779   2.927   7.205   9.785
 7513WAT      O22780   2.675   8.767   6.127
 7513WAT     H122781   2.669   8.672   6.157
 7513WAT     H222782   2.765   8.803   6.151
 7514WAT      O22783   6.105   9.764   7.055
 7514WAT     H122784   6.127   9.718   6.969
 7514WAT     H222785   6.098   9.863   7.039
 7515WAT      O22786   1.060   1.018   8.485
 7515WAT     H122787   0.982   0.992   8.542
 7515WAT     H222788   1.037   1.002   8.389
 7516WAT      O22789   9.764   9.090   1.230
 7516WAT     H122790   9.677   9.138   1.217
 7516WAT     H222791   9.763   9.005   1.178
 7517WAT      O22792   9.205   2.277   3.398
 7517WAT     H122793   9.140   2.292   3.473
 7517WAT     H222794   9.173   2.200   3.343
 7518WAT      O22795   8.285   2.494   3.486
 7518WAT     H122796   8.293   2.462   3.391
 7518WAT     H222797   8.368   2.471   3.536
 7519WAT      O22798   4.830   3.769   4.339
 7519WAT     H122799   4.818   3.761   4.438
 7519WAT     H222800   4.927   3.779   4.318
 7520WAT      O22801   5.546   5.201   2.757
 7520WAT     H122802   5.481   5.128   2.735
 7520WAT     H222803   5.530   5.233   2.851
 7521WAT      O22804   2.557   1.686   0.618
 7521WAT     H122805   2.547   1.590   0.590
 7521WAT     H222806   2.577   1.742   0.538
 7522WAT      O22807   5.027   2.439   4.715
 7522WAT     H122808   5.103   2.501   4.734
 7522WAT     H222809   5.043   2.351   4.761
 7523WAT      O22810   3.352   1.226   8.891
 7523WAT     H122811   3.395   1.236   8.801
 7523WAT     H222812   3.255   1.203   8.879
 7524WAT      O22813   8.301   5.254   7.659
 7524WAT     H122814   8.307   5.342   7.612
 7524WAT     H222815   8.255   5.267   7.747
 7525WAT      O22816   1.060   2.167   4.123
 7525WAT     H122817   1.069   2.088   4.184
 7525WAT     H222818   1.087   2.141   4.030
 7526WAT      O22819   6.183   2.136   5.594
 7526WAT     H122820   6.253   2.066   5.610
 7526WAT     H222821   6.225   2.214   5.548
 7527WAT      O22822   4.404   0.343   0.183
 7527WAT     H122823   4.342   0.269   0.157
 7527WAT     H222824   4.486   0.304   0.224
 7528WAT      O22825   2.874   6.675   0.381
 7528WAT     H122826   2.808   6.620   0.433
 7528WAT     H222827   2.961   6.626   0.376
 7529WAT      O22828   1.824   5.851   5.466
 7529WAT     H122829   1.732   5.890   5.478
 7529WAT     H222830   1.830   5.765   5.516
 7530WAT      O22831   5.990   7.106   9.341
 7530WAT     H122832   6.040   7.120   9.426
 7530WAT     H222833   5.911   7.047   9.358
 7531WAT      O22834   1.080   6.344   6.680
 7531WAT     H122835   1.144   6.391   6.740
 7531WAT     H222836   1.078   6.389   6.591
 7532WAT      O22837   1.103   9.015   2.572
 7532WAT     H122838   1.043   9.057   2.504
 7532WAT     H222839   1.049   8.962   2.636
 7533WAT      O22840   4.051   7.180   5.019
 7533WAT     H122841   4.071   7.265   4.971
 7533WAT     H222842   4.133   7.124   5.023
 7534WAT      O22843   2.279   8.571   8.285
 7534WAT     H122844   2.296   8.647   8.223
 7534WAT     H222845   2.183   8.545   8.280
 7535WAT      O22846   1.760   1.983   3.852
 7535WAT     H122847   1.676   1.940   3.819
 7535WAT     H222848   1.806   1.923   3.916
 7536WAT      O22849   1.160   8.008   3.990
 7536WAT     H122850   1.177   8.105   3.973
 7536WAT     H222851   1.170   7.957   3.904
 7537WAT      O22852   7.151   3.609   2.799
 7537WAT     H122853   7.058   3.580   2.820
 7537WAT     H222854   7.179   3.682   2.861
 7538WAT      O22855   9.180   3.479   1.608
 7538WAT     H122856   9.085   3.472   1.578
 7538WAT     H222857   9.189   3.441   1.700
 7539WAT      O22858   0.509   5.938   4.223
 7539WAT     H122859   0.533   5.934   4.126
 7539WAT     H222860   0.548   6.020   4.264
 7540WAT      O22861   6.548   6.909   5.304
 7540WAT     H122862   6.594   6.942   5.221
 7540WAT     H222863   6.459   6.953   5.312
 7541WAT      O22864   8.547   0.882   6.794
 7541WAT     H122865   8.448   0.895   6.790
 7541WAT     H222866   8.593   0.969   6.775
 7542WAT      O22867   2.467   3.097   6.841
 7542WAT     H122868   2.419   3.169   6.791
 7542WAT     H222869   2.439   3.008   6.806
 7543WAT      O22870   8.119   4.961   4.206
 7543WAT     H122871   8.078   5.040   4.160
 7543WAT     H222872   8.116   4.881   4.146
 7544WAT      O22873   1.168   9.713   1.800
 7544WAT     H122874   1.133   9.744   1.711
 7544WAT     H222875   1.265   9.737   1.807
 7545WAT      O22876   9.126   1.902   0.557
 7545WAT     H122877   9.040   1.869   0.519
 7545WAT     H222878   9.117   1.914   0.655
 7546WAT      O22879   5.113   8.610   2.201
 7546WAT     H122880   5.103   8.514   2.173
 7546WAT     H222881   5.209   8.629   2.221
 7547WAT      O22882   4.227   7.874   2.640
 7547WAT     H122883   4.224   7.849   2.543
 7547WAT     H222884   4.134   7.875   2.677
 7548WAT      O22885   4.818   4.892   0.031
 7548WAT     H122886   4.730   4.869   0.074
 7548WAT     H222887   4.863   4.809  -0.002
 7549WAT      O22888   8.552   0.178   0.475
 7549WAT     H122889   8.620   0.246   0.502
 7549WAT     H222890   8.461   0.218   0.478
 7550WAT      O22891   7.021   1.630   3.226
 7550WAT     H122892   6.946   1.582   3.180
 7550WAT     H222893   7.082   1.668   3.158
 7551WAT      O22894   7.051   4.331   3.695
 7551WAT     H122895   6.995   4.413   3.683
 7551WAT     H222896   7.047   4.276   3.612
 7552WAT      O22897   3.041   4.754   1.101
 7552WAT     H122898   3.032   4.694   1.022
 7552WAT     H222899   2.950   4.777   1.136
 7553WAT      O22900   4.392   2.481   5.224
 7553WAT     H122901   4.313   2.471   5.164
 7553WAT     H222902   4.400   2.399   5.282
 7554WAT      O22903   6.941   4.000   8.889
 7554WAT     H122904   6.863   3.995   8.826
 7554WAT     H222905   6.947   3.915   8.941
 7555WAT      O22906   8.336   3.007   2.520
 7555WAT     H122907   8.407   3.066   2.558
 7555WAT     H222908   8.246   3.046   2.539
 7556WAT      O22909   6.304   2.958   0.549
 7556WAT     H122910   6.257   2.999   0.627
 7556WAT     H222911   6.378   2.899   0.582
 7557WAT      O22912   0.890   8.470   8.188
 7557WAT     H122913   0.861   8.535   8.118
 7557WAT     H222914   0.989   8.458   8.184
 7558WAT      O22915   7.339   6.490   7.341
 7558WAT     H122916   7.408   6.555   7.310
 7558WAT     H222917   7.248   6.525   7.320
 7559WAT      O22918   0.887   4.319   0.002
 7559WAT     H122919   0.857   4.258   0.074
 7559WAT     H222920   0.851   4.287  -0.086
 7560WAT      O22921   6.682   1.249   6.307
 7560WAT     H122922   6.757   1.184   6.293
 7560WAT     H222923   6.601   1.217   6.257
 7561WAT      O22924   4.668   5.952   3.181
 7561WAT     H122925   4.651   5.876   3.118
 7561WAT     H222926   4.765   5.976   3.179
 7562WAT      O22927   1.673   2.219   4.512
 7562WAT     H122928   1.730   2.229   4.431
 7562WAT     H222929   1.706   2.280   4.584
 7563WAT      O22930   2.474   2.552   6.839
 7563WAT     H122931   2.549   2.498   6.800
 7563WAT     H222932   2.504   2.594   6.924
 7564WAT      O22933   3.546   4.158   4.300
 7564WAT     H122934   3.569   4.245   4.344
 7564WAT     H222935   3.467   4.118   4.346
 7565WAT      O22936   2.419   4.332   2.101
 7565WAT     H122937   2.478   4.254   2.079
 7565WAT     H222938   2.336   4.300   2.147
 7566WAT      O22939   7.877   9.786   2.084
 7566WAT     H122940   7.866   9.886   2.085
 7566WAT     H222941   7.967   9.762   2.121
 7567WAT      O22942   1.706   9.561   4.430
 7567WAT     H122943   1.786   9.578   4.372
 7567WAT     H222944   1.625   9.603   4.388
 7568WAT      O22945   4.375   1.962   3.951
 7568WAT     H122946   4.301   1.894   3.953
 7568WAT     H222947   4.400   1.980   3.856
 7569WAT      O22948   2.171   5.629   9.155
 7569WAT     H122949   2.162   5.710   9.096
 7569WAT     H222950   2.205   5.552   9.101
 7570WAT      O22951   0.156   9.205   7.472
 7570WAT     H122952   0.122   9.121   7.430
 7570WAT     H222953   0.244   9.187   7.517
 7571WAT      O22954   2.206   8.043   1.567
 7571WAT     H122955   2.273   7.970   1.562
 7571WAT     H222956   2.244   8.127   1.528
 7572WAT      O22957   9.201   0.160   8.108
 7572WAT     H122958   9.227   0.217   8.186
 7572WAT     H222959   9.116   0.196   8.068
 7573WAT      O22960   2.646   6.228   9.517
 7573WAT     H122961   2.604   6.148   9.560
 7573WAT     H222962   2.582   6.267   9.451
 7574WAT      O22963   6.417   6.336   6.955
 7574WAT     H122964   6.508   6.300   6.933
 7574WAT     H222965   6.351   6.302   6.887
 7575WAT      O22966   7.876   6.934   7.873
 7575WAT     H122967   7.850   7.026   7.844
 7575WAT     H222968   7.796   6.875   7.874
 7576WAT      O22969   6.423   1.591   1.040
 7576WAT     H122970   6.457   1.503   1.074
 7576WAT     H222971   6.366   1.634   1.109
 7577WAT      O22972   9.227   1.722   6.058
 7577WAT     H122973   9.181   1.711   5.970
 7577WAT     H222974   9.326   1.712   6.044
 7578WAT      O22975   0.023   9.792   1.855
 7578WAT     H122976   0.110   9.839   1.871
 7578WAT     H222977  -0.050   9.843   1.900
 7579WAT      O22978   9.003   8.173   3.156
 7579WAT     H122979   9.015   8.129   3.067
 7579WAT     H222980   8.930   8.241   3.151
 7580WAT      O22981   4.419   2.987   6.858
 7580WAT     H122982   4.339   2.932   6.832
 7580WAT     H222983   4.469   3.014   6.775
 7581WAT      O22984   4.264   7.732   3.175
 7581WAT     H122985   4.282   7.640   3.142
 7581WAT     H222986   4.304   7.744   3.266
 7582WAT      O22987   0.701   0.722   1.510
 7582WAT     H122988   0.754   0.807   1.511
 7582WAT     H222989   0.713   0.674   1.597
 7583WAT      O22990   0.851   7.247   4.669
 7583WAT     H122991   0.805   7.165   4.637
 7583WAT     H222992   0.872   7.238   4.767
 7584WAT      O22993   8.471   4.219   7.933
 7584WAT     H122994   8.540   4.180   7.872
 7584WAT     H222995   8.516   4.269   8.007
 7585WAT      O22996   6.987   7.441   7.189
 7585WAT     H122997   7.052   7.369   7.165
 7585WAT     H222998   7.027   7.500   7.259
 7586WAT      O22999   9.508   7.970   0.340
 7586WAT     H123000   9.532   7.958   0.437
 7586WAT     H223001   9.411   7.949   0.327
 7587WAT      O23002   7.734   3.427   2.615
 7587WAT     H123003   7.652   3.384   2.577
 7587WAT     H223004   7.799   3.447   2.540
 7588WAT      O23005   3.350   2.834   7.931
 7588WAT     H123006   3.431   2.884   7.899
 7588WAT     H223007   3.377   2.774   8.007
 7589WAT      O23008   7.324   2.426   2.671
 7589WAT     H123009   7.420   2.424   2.642
 7589WAT     H223010   7.268   2.379   2.603
 7590WAT      O23011   9.289   5.395   3.818
 7590WAT     H123012   9.226   5.436   3.884
 7590WAT     H223013   9.317   5.304   3.850
 7591WAT      O23014   8.851   2.618   0.850
 7591WAT     H123015   8.784   2.568   0.795
 7591WAT     H223016   8.873   2.705   0.806
 7592WAT      O23017   4.249   5.415   8.855
 7592WAT     H123018   4.215   5.327   8.889
 7592WAT     H223019   4.187   5.488   8.881
 7593WAT      O23020   4.877   0.739   0.270
 7593WAT     H123021   4.885   0.826   0.318
 7593WAT     H223022   4.812   0.680   0.318
 7594WAT      O23023   3.063   5.160   6.173
 7594WAT     H123024   2.972   5.182   6.139
 7594WAT     H223025   3.098   5.238   6.226
 7595WAT      O23026   8.394   1.326   1.604
 7595WAT     H123027   8.376   1.246   1.547
 7595WAT     H223028   8.465   1.304   1.670
 7596WAT      O23029   6.081   6.477   2.346
 7596WAT     H123030   6.174   6.440   2.338
 7596WAT     H223031   6.043   6.449   2.435
 7597WAT      O23032   8.089   0.620   6.915
 7597WAT     H123033   8.133   0.602   6.827
 7597WAT     H223034   8.025   0.546   6.936
 7598WAT      O23035   9.242   3.619   4.904
 7598WAT     H123036   9.222   3.630   4.806
 7598WAT     H223037   9.233   3.707   4.950
 7599WAT      O23038   6.256   2.291   6.607
 7599WAT     H123039   6.160   2.311   6.625
 7599WAT     H223040   6.263   2.221   6.536
 7600WAT      O23041   3.662   3.695   0.386
 7600WAT     H123042   3.665   3.624   0.316
 7600WAT     H223043   3.603   3.666   0.461
 7601WAT      O23044   0.432   5.119   5.720
 7601WAT     H123045   0.488   5.196   5.688
 7601WAT     H223046   0.427   5.049   5.649
 7602WAT      O23047   3.517   9.452   4.311
 7602WAT     H123048   3.424   9.435   4.279
 7602WAT     H223049   3.565   9.510   4.246
 7603WAT      O23050   2.833   4.773   2.410
 7603WAT     H123051   2.799   4.861   2.377
 7603WAT     H223052   2.760   4.726   2.459
 7604WAT      O23053   5.365   8.684   4.760
 7604WAT     H123054   5.326   8.769   4.725
 7604WAT     H223055   5.292   8.615   4.768
 7605WAT      O23056   2.106   7.408   0.122
 7605WAT     H123057   2.205   7.408   0.134
 7605WAT     H223058   2.072   7.314   0.124
 7606WAT      O23059   9.380   8.014   6.478
 7606WAT     H123060   9.297   7.971   6.443
 7606WAT     H223061   9.455   8.001   6.413
 7607WAT      O23062   5.635   8.803   9.358
 7607WAT     H123063   5.614   8.705   9.350
 7607WAT     H223064   5.618   8.833   9.452
 7608WAT      O23065   2.913   9.385   4.515
 7608WAT     H123066   2.951   9.292   4.511
 7608WAT     H223067   2.860   9.403   4.432
 7609WAT      O23068   0.797   5.005   7.471
 7609WAT     H123069   0.711   4.972   7.509
 7609WAT     H223070   0.814   4.962   7.383
 7610WAT      O23071   2.729   9.488   4.353
 7610WAT     H123072   2.738   9.583   4.385
 7610WAT     H223073   2.642   9.477   4.305
 7611WAT      O23074   5.317   3.095   9.248
 7611WAT     H123075   5.371   3.037   9.187
 7611WAT     H223076   5.326   3.190   9.221
 7612WAT      O23077   9.714   6.399   2.730
 7612WAT     H123078   9.730   6.325   2.795
 7612WAT     H223079   9.705   6.485   2.779
 7613WAT      O23080   5.003   8.314   7.122
 7613WAT     H123081   4.917   8.344   7.164
 7613WAT     H223082   5.047   8.392   7.078
 7614WAT      O23083   2.017   6.372   4.939
 7614WAT     H123084   1.982   6.451   4.989
 7614WAT     H223085   2.099   6.398   4.888
 7615WAT      O23086   0.600   0.408   5.659
 7615WAT     H123087   0.585   0.507   5.657
 7615WAT     H223088   0.533   0.364   5.600
 7616WAT      O23089   7.367   4.888   9.244
 7616WAT     H123090   7.353   4.971   9.299
 7616WAT     H223091   7.456   4.849   9.267
 7617WAT      O23092   6.273   2.848   6.032
 7617WAT     H123093   6.234   2.770   6.080
 7617WAT     H223094   6.287   2.825   5.936
 7618WAT      O23095   8.753   4.317   9.599
 7618WAT     H123096   8.765   4.221   9.574
 7618WAT     H223097   8.842   4.362   9.602
 7619WAT      O23098   4.751   8.867   3.967
 7619WAT     H123099   4.810   8.837   4.041
 7619WAT     H223100   4.785   8.832   3.880
 7620WAT      O23101   9.432   7.368   6.843
 7620WAT     H123102   9.469   7.340   6.931
 7620WAT     H223103   9.336   7.392   6.854
 7621WAT      O23104   0.731   5.004   3.357
 7621WAT     H123105   0.817   5.014   3.308
 7621WAT     H223106   0.671   5.082   3.337
 7622WAT      O23107   3.838   6.975   0.399
 7622WAT     H123108   3.880   6.888   0.372
 7622WAT     H223109   3.908   7.035   0.437
 7623WAT      O23110   6.183   9.754   4.941
 7623WAT     H123111   6.144   9.664   4.922
 7623WAT     H223112   6.230   9.789   4.860
 7624WAT      O23113   4.984   2.126   1.368
 7624WAT     H123114   4.958   2.097   1.460
 7624WAT     H223115   5.084   2.125   1.361
 7625WAT      O23116   4.860   3.470   7.529
 7625WAT     H123117   4.934   3.431   7.583
 7625WAT     H223118   4.810   3.537   7.584
 7626WAT      O23119   8.184   7.873   2.781
 7626WAT     H123120   8.107   7.871   2.717
 7626WAT     H223121   8.249   7.801   2.756
 7627WAT      O23122   6.287   6.195   6.767
 7627WAT     H123123   6.239   6.121   6.814
 7627WAT     H223124   6.223   6.269   6.748
 7628WAT      O23125   6.643   7.865   5.145
 7628WAT     H123126   6.583   7.787   5.164
 7628WAT     H223127   6.722   7.834   5.093
 7629WAT      O23128   9.338   9.025   1.708
 7629WAT     H123129   9.423   8.973   1.713
 7629WAT     H223130   9.343   9.103   1.770
 7630WAT      O23131   6.060   4.042   6.175
 7630WAT     H123132   6.007   4.102   6.114
 7630WAT     H223133   6.156   4.068   6.172
 7631WAT      O23134   2.330   0.867   7.271
 7631WAT     H123135   2.238   0.829   7.286
 7631WAT     H223136   2.344   0.946   7.332
 7632WAT      O23137   7.733   0.032   2.567
 7632WAT     H123138   7.752  -0.066   2.578
 7632WAT     H223139   7.711   0.071   2.656
 7633WAT      O23140   7.879   8.864   4.105
 7633WAT     H123141   7.879   8.840   4.008
 7633WAT     H223142   7.915   8.956   4.117
 7634WAT      O23143   8.609   2.616   2.545
 7634WAT     H123144   8.663   2.658   2.472
 7634WAT     H223145   8.561   2.688   2.595
 7635WAT      O23146   0.207   0.586   9.531
 7635WAT     H123147   0.236   0.568   9.625
 7635WAT     H223148   0.111   0.559   9.520
 7636WAT      O23149   3.257   2.688   9.277
 7636WAT     H123150   3.250   2.787   9.266
 7636WAT     H223151   3.168   2.646   9.256
 7637WAT      O23152   6.483   8.520   3.630
 7637WAT     H123153   6.529   8.574   3.700
 7637WAT     H223154   6.488   8.423   3.654
 7638WAT      O23155   2.189   0.683   2.103
 7638WAT     H123156   2.209   0.775   2.072
 7638WAT     H223157   2.256   0.619   2.066
 7639WAT      O23158   5.651   2.835   9.293
 7639WAT     H123159   5.689   2.907   9.236
 7639WAT     H223160   5.583   2.873   9.355
 7640WAT      O23161   8.130   5.497   5.140
 7640WAT     H123162   8.140   5.565   5.068
 7640WAT     H223163   8.097   5.411   5.101
 7641WAT      O23164   6.862   6.920   4.232
 7641WAT     H123165   6.839   6.915   4.329
 7641WAT     H223166   6.942   6.862   4.214
 7642WAT      O23167   3.507   9.681   9.047
 7642WAT     H123168   3.464   9.735   8.975
 7642WAT     H223169   3.535   9.741   9.121
 7643WAT      O23170   7.682   5.365   5.750
 7643WAT     H123171   7.745   5.442   5.736
 7643WAT     H223172   7.658   5.326   5.661
 7644WAT      O23173   0.546   1.675   6.118
 7644WAT     H123174   0.612   1.605   6.094
 7644WAT     H223175   0.464   1.631   6.156
 7645WAT      O23176   4.380   2.043   3.685
 7645WAT     H123177   4.454   2.055   3.619
 7645WAT     H223178   4.342   2.132   3.709
 7646WAT      O23179   3.453   8.703   1.956
 7646WAT     H123180   3.505   8.780   1.991
 7646WAT     H223181   3.359   8.732   1.935
 7647WAT      O23182   2.094   7.583   9.573
 7647WAT     H123183   2.152   7.551   9.648
 7647WAT     H223184   2.152   7.614   9.498
 7648WAT      O23185   5.378   2.794   6.471
 7648WAT     H123186   5.368   2.713   6.413
 7648WAT     H223187   5.291   2.811   6.518
 7649WAT      O23188   3.949   8.112   0.587
 7649WAT     H123189   3.860   8.069   0.570
 7649WAT     H223190   3.960   8.130   0.685
 7650WAT      O23191   7.247   4.422   9.033
 7650WAT     H123192   7.279   4.337   8.991
 7650WAT     H223193   7.265   4.498   8.970
 7651WAT      O23194   4.667   8.597   9.632
 7651WAT     H123195   4.766   8.587   9.622
 7651WAT     H223196   4.630   8.518   9.680
 7652WAT      O23197   8.623   5.791   8.307
 7652WAT     H123198   8.651   5.838   8.391
 7652WAT     H223199   8.705   5.769   8.253
 7653WAT      O23200   7.922   3.633   1.923
 7653WAT     H123201   7.875   3.644   1.835
 7653WAT     H223202   7.860   3.657   1.998
 7654WAT      O23203   6.579   1.790   1.209
 7654WAT     H123204   6.572   1.765   1.113
 7654WAT     H223205   6.509   1.857   1.231
 7655WAT      O23206   9.518   5.279   6.756
 7655WAT     H123207   9.457   5.215   6.803
 7655WAT     H223208   9.562   5.339   6.823
 7656WAT      O23209   2.940   4.274   0.214
 7656WAT     H123210   3.004   4.310   0.281
 7656WAT     H223211   2.928   4.340   0.140
 7657WAT      O23212   8.215   2.970   2.093
 7657WAT     H123213   8.140   2.958   2.028
 7657WAT     H223214   8.206   2.903   2.167
 7658WAT      O23215   0.523   8.834   2.812
 7658WAT     H123216   0.477   8.772   2.876
 7658WAT     H223217   0.459   8.904   2.781
 7659WAT      O23218   9.364   4.453   3.199
 7659WAT     H123219   9.387   4.535   3.253
 7659WAT     H223220   9.435   4.384   3.212
 7660WAT      O23221   4.260   7.622   9.203
 7660WAT     H123222   4.261   7.522   9.207
 7660WAT     H223223   4.201   7.657   9.276
 7661WAT      O23224   8.677   5.741   7.545
 7661WAT     H123225   8.631   5.793   7.473
 7661WAT     H223226   8.610   5.684   7.593
 7662WAT      O23227   6.639   8.572   9.758
 7662WAT     H123228   6.599   8.594   9.846
 7662WAT     H223229   6.589   8.619   9.685
 7663WAT      O23230   3.490   3.535   7.919
 7663WAT     H123231   3.392   3.548   7.906
 7663WAT     H223232   3.505   3.454   7.976
 7664WAT      O23233   3.571   6.966   5.287
 7664WAT     H123234   3.653   6.953   5.341
 7664WAT     H223235   3.592   6.951   5.190
 7665WAT      O23236   9.250   4.803   6.792
 7665WAT     H123237   9.310   4.817   6.713
 7665WAT     H223238   9.185   4.729   6.772
 7666WAT      O23239   4.243   7.199   0.092
 7666WAT     H123240   4.333   7.163   0.117
 7666WAT     H223241   4.186   7.124   0.057
 7667WAT      O23242   4.511   0.505   9.268
 7667WAT     H123243   4.538   0.476   9.176
 7667WAT     H223244   4.486   0.602   9.266
 7668WAT      O23245   7.870   6.171   7.365
 7668WAT     H123246   7.826   6.092   7.408
 7668WAT     H223247   7.945   6.140   7.307
 7669WAT      O23248   0.464   7.770   6.366
 7669WAT     H123249   0.397   7.832   6.407
 7669WAT     H223250   0.419   7.684   6.340
 7670WAT      O23251   0.746   2.837   3.263
 7670WAT     H123252   0.751   2.934   3.288
 7670WAT     H223253   0.791   2.823   3.175
 7671WAT      O23254   0.836   6.265   0.133
 7671WAT     H123255   0.863   6.347   0.182
 7671WAT     H223256   0.917   6.224   0.090
 7672WAT      O23257   1.761   2.036   3.011
 7672WAT     H123258   1.779   1.938   3.003
 7672WAT     H223259   1.772   2.079   2.921
 7673WAT      O23260   1.226   0.911   8.681
 7673WAT     H123261   1.172   0.951   8.755
 7673WAT     H223262   1.187   0.936   8.593
 7674WAT      O23263   3.219   0.844   1.778
 7674WAT     H123264   3.176   0.826   1.867
 7674WAT     H223265   3.204   0.939   1.753
 7675WAT      O23266   5.785   5.251   4.384
 7675WAT     H123267   5.699   5.209   4.358
 7675WAT     H223268   5.836   5.190   4.445
 7676WAT      O23269   9.750   3.788   9.530
 7676WAT     H123270   9.666   3.839   9.512
 7676WAT     H223271   9.797   3.829   9.609
 7677WAT      O23272   6.027   7.619   7.056
 7677WAT     H123273   5.968   7.697   7.081
 7677WAT     H223274   6.116   7.654   7.026
 7678WAT      O23275   9.214   2.836   1.316
 7678WAT     H123276   9.168   2.847   1.404
 7678WAT     H223277   9.182   2.753   1.272
 7679WAT      O23278   4.364   2.998   2.014
 7679WAT     H123279   4.385   2.996   2.112
 7679WAT     H223280   4.285   2.939   1.996
 7680WAT      O23281   4.669   9.841   3.409
 7680WAT     H123282   4.628   9.927   3.442
 7680WAT     H223283   4.603   9.767   3.419
 7681WAT      O23284   0.173   3.409   7.029
 7681WAT     H123285   0.234   3.440   7.102
 7681WAT     H223286   0.094   3.469   7.024
 7682WAT      O23287   2.866   6.192   2.502
 7682WAT     H123288   2.778   6.228   2.473
 7682WAT     H223289   2.929   6.190   2.424
 7683WAT      O23290   7.471   9.156   1.660
 7683WAT     H123291   7.413   9.077   1.641
 7683WAT     H223292   7.567   9.133   1.641
 7684WAT      O23293   7.585   2.017   6.777
 7684WAT     H123294   7.657   2.084   6.797
 7684WAT     H223295   7.628   1.931   6.747
 7685WAT      O23296   2.612   3.781   7.545
 7685WAT     H123297   2.677   3.731   7.602
 7685WAT     H223298   2.662   3.834   7.476
 7686WAT      O23299   5.670   9.635   7.619
 7686WAT     H123300   5.594   9.694   7.646
 7686WAT     H223301   5.653   9.600   7.527
 7687WAT      O23302   4.930   9.213   8.142
 7687WAT     H123303   4.930   9.116   8.167
 7687WAT     H223304   4.875   9.264   8.208
 7688WAT      O23305   1.031   9.262   4.482
 7688WAT     H123306   0.986   9.331   4.424
 7688WAT     H223307   0.995   9.269   4.575
 7689WAT      O23308   5.331   0.189   1.535
 7689WAT     H123309   5.405   0.133   1.572
 7689WAT     H223310   5.362   0.284   1.528
 7690WAT      O23311   8.237   8.776   7.123
 7690WAT     H123312   8.275   8.814   7.207
 7690WAT     H223313   8.308   8.724   7.075
 7691WAT      O23314   0.888   9.590   0.883
 7691WAT     H123315   0.879   9.618   0.978
 7691WAT     H223316   0.797   9.577   0.843
 7692WAT      O23317   7.652   7.322   6.930
 7692WAT     H123318   7.693   7.366   6.851
 7692WAT     H223319   7.552   7.322   6.921
 7693WAT      O23320   7.093   1.331   7.238
 7693WAT     H123321   7.066   1.371   7.151
 7693WAT     H223322   7.087   1.231   7.232
 7694WAT      O23323   1.062   4.450   6.569
 7694WAT     H123324   1.097   4.421   6.480
 7694WAT     H223325   0.963   4.467   6.563
 7695WAT      O23326   9.796   4.141   3.564
 7695WAT     H123327   9.871   4.167   3.504
 7695WAT     H223328   9.710   4.140   3.511
 7696WAT      O23329   3.649   3.437   7.717
 7696WAT     H123330   3.625   3.502   7.789
 7696WAT     H223331   3.567   3.389   7.685
 7697WAT      O23332   6.962   7.130   5.341
 7697WAT     H123333   6.986   7.034   5.353
 7697WAT     H223334   6.929   7.167   5.428
 7698WAT      O23335   0.311   1.545   6.283
 7698WAT     H123336   0.304   1.448   6.304
 7698WAT     H223337   0.237   1.571   6.220
 7699WAT      O23338   1.144   6.141   1.515
 7699WAT     H123339   1.057   6.178   1.483
 7699WAT     H223340   1.198   6.213   1.556
 7700WAT      O23341   8.611   1.744   2.642
 7700WAT     H123342   8.515   1.718   2.638
 7700WAT     H223343   8.642   1.772   2.552
 7701WAT      O23344   7.345   4.040   8.471
 7701WAT     H123345   7.345   4.136   8.443
 7701WAT     H223346   7.433   3.999   8.448
 7702WAT      O23347   0.863   6.865   9.259
 7702WAT     H123348   0.779   6.826   9.295
 7702WAT     H223349   0.869   6.961   9.284
 7703WAT      O23350   4.737   7.179   2.518
 7703WAT     H123351   4.778   7.197   2.607
 7703WAT     H223352   4.787   7.105   2.472
 7704WAT      O23353   9.124   5.851   2.809
 7704WAT     H123354   9.062   5.929   2.816
 7704WAT     H223355   9.209   5.871   2.856
 7705WAT      O23356   4.835   3.219   7.431
 7705WAT     H123357   4.892   3.287   7.477
 7705WAT     H223358   4.860   3.127   7.461
 7706WAT      O23359   4.347   0.231   7.593
 7706WAT     H123360   4.413   0.257   7.664
 7706WAT     H223361   4.260   0.276   7.610
 7707WAT      O23362   4.568   8.177   2.289
 7707WAT     H123363   4.566   8.274   2.313
 7707WAT     H223364   4.476   8.139   2.298
 7708WAT      O23365   4.907   1.151   3.417
 7708WAT     H123366   4.835   1.128   3.351
 7708WAT     H223367   4.874   1.132   3.509
 7709WAT      O23368   2.409   3.928   6.419
 7709WAT     H123369   2.499   3.971   6.417
 7709WAT     H223370   2.417   3.836   6.457
 7710WAT      O23371   6.108   4.997   6.184
 7710WAT     H123372   6.185   4.935   6.197
 7710WAT     H223373   6.088   5.006   6.086
 7711WAT      O23374   4.655   2.470   8.844
 7711WAT     H123375   4.623   2.469   8.749
 7711WAT     H223376   4.616   2.549   8.891
 7712WAT      O23377   6.698   0.396   2.046
 7712WAT     H123378   6.687   0.429   1.952
 7712WAT     H223379   6.668   0.467   2.110
 7713WAT      O23380   6.759   1.865   5.975
 7713WAT     H123381   6.789   1.828   5.886
 7713WAT     H223382   6.838   1.905   6.022
 7714WAT      O23383   7.325   8.225   8.463
 7714WAT     H123384   7.357   8.131   8.463
 7714WAT     H223385   7.392   8.284   8.417
 7715WAT      O23386   1.905   2.032   0.168
 7715WAT     H123387   1.820   2.042   0.117
 7715WAT     H223388   1.982   2.066   0.114
 7716WAT      O23389   9.081   4.657   7.203
 7716WAT     H123390   9.093   4.655   7.302
 7716WAT     H223391   8.983   4.655   7.181
 7717WAT      O23392   1.612   5.070   4.993
 7717WAT     H123393   1.519   5.043   4.968
 7717WAT     H223394   1.674   5.049   4.918
 7718WAT      O23395   0.933   0.755   5.636
 7718WAT     H123396   0.878   0.673   5.654
 7718WAT     H223397   1.025   0.729   5.610
 7719WAT      O23398   3.888   1.879   6.342
 7719WAT     H123399   3.932   1.841   6.424
 7719WAT     H223400   3.804   1.828   6.323
 7720WAT      O23401   7.788   4.099   6.825
 7720WAT     H123402   7.793   4.030   6.896
 7720WAT     H223403   7.711   4.079   6.764
 7721WAT      O23404   7.505   6.726   3.984
 7721WAT     H123405   7.559   6.775   3.916
 7721WAT     H223406   7.455   6.792   4.040
 7722WAT      O23407   9.176   6.461   6.397
 7722WAT     H123408   9.125   6.533   6.349
 7722WAT     H223409   9.203   6.493   6.487
 7723WAT      O23410   8.538   8.460   5.148
 7723WAT     H123411   8.463   8.413   5.100
 7723WAT     H223412   8.532   8.441   5.246
 7724WAT      O23413   9.619   7.211   4.622
 7724WAT     H123414   9.639   7.203   4.719
 7724WAT     H223415   9.556   7.139   4.594
 7725WAT      O23416   4.363   8.460   5.491
 7725WAT     H123417   4.459   8.480   5.508
 7725WAT     H223418   4.306   8.527   5.539
 7726WAT      O23419   5.917   6.500   1.086
 7726WAT     H123420   5.848   6.446   1.038
 7726WAT     H223421   5.873   6.571   1.140
 7727WAT      O23422   4.376   2.260   8.912
 7727WAT     H123423   4.390   2.319   8.832
 7727WAT     H223424   4.313   2.186   8.888
 7728WAT      O23425   6.205   1.536   8.207
 7728WAT     H123426   6.201   1.623   8.158
 7728WAT     H223427   6.117   1.518   8.250
 7729WAT      O23428   3.337   7.860   6.184
 7729WAT     H123429   3.311   7.939   6.128
 7729WAT     H223430   3.433   7.868   6.211
 7730WAT      O23431   3.820   7.055   4.143
 7730WAT     H123432   3.877   7.106   4.207
 7730WAT     H223433   3.837   6.957   4.153
 7731WAT      O23434   8.569   6.533   2.133
 7731WAT     H123435   8.625   6.453   2.110
 7731WAT     H223436   8.546   6.583   2.049
 7732WAT      O23437   6.542   1.337   8.947
 7732WAT     H123438   6.463   1.387   8.911
 7732WAT     H223439   6.616   1.401   8.969
 7733WAT      O23440   5.067   8.984   2.425
 7733WAT     H123441   5.056   8.886   2.411
 7733WAT     H223442   5.165   9.006   2.425
 7734WAT      O23443   7.871   5.485   9.630
 7734WAT     H123444   7.873   5.579   9.594
 7734WAT     H223445   7.780   5.447   9.617
 7735WAT      O23446   6.819   5.029   7.668
 7735WAT     H123447   6.754   4.958   7.639
 7735WAT     H223448   6.769   5.103   7.713
 7736WAT      O23449   9.607   3.263   1.732
 7736WAT     H123450   9.703   3.246   1.710
 7736WAT     H223451   9.565   3.315   1.657
 7737WAT      O23452   4.095   9.657   5.786
 7737WAT     H123453   4.020   9.611   5.739
 7737WAT     H223454   4.069   9.676   5.881
 7738WAT      O23455   2.545   7.230   4.203
 7738WAT     H123456   2.571   7.183   4.119
 7738WAT     H223457   2.627   7.248   4.258
 7739WAT      O23458   2.217   4.501   7.865
 7739WAT     H123459   2.176   4.416   7.898
 7739WAT     H223460   2.286   4.480   7.795
 7740WAT      O23461   5.115   9.507   1.741
 7740WAT     H123462   5.116   9.422   1.794
 7740WAT     H223463   5.196   9.561   1.763
 7741WAT      O23464   7.549   1.753   9.205
 7741WAT     H123465   7.561   1.729   9.108
 7741WAT     H223466   7.626   1.807   9.236
 7742WAT      O23467   1.966   6.207   1.777
 7742WAT     H123468   2.051   6.217   1.829
 7742WAT     H223469   1.906   6.141   1.823
 7743WAT      O23470   7.293   5.509   1.027
 7743WAT     H123471   7.287   5.417   1.065
 7743WAT     H223472   7.231   5.570   1.076
 7744WAT      O23473   2.663   4.883   7.189
 7744WAT     H123474   2.703   4.879   7.280
 7744WAT     H223475   2.565   4.903   7.197
 7745WAT      O23476   8.783   0.051   8.198
 7745WAT     H123477   8.881   0.057   8.216
 7745WAT     H223478   8.740   0.139   8.219
 7746WAT      O23479   0.158   6.868   6.887
 7746WAT     H123480   0.136   6.870   6.790
 7746WAT     H223481   0.131   6.779   6.925
 7747WAT      O23482   7.610   3.386   1.456
 7747WAT     H123483   7.634   3.419   1.547
 7747WAT     H223484   7.583   3.290   1.462
 7748WAT      O23485   8.860   6.075   8.140
 7748WAT     H123486   8.889   5.980   8.155
 7748WAT     H223487   8.941   6.134   8.138
 7749WAT      O23488   3.005   3.704   4.609
 7749WAT     H123489   3.007   3.721   4.708
 7749WAT     H223490   2.911   3.707   4.576
 7750WAT      O23491   9.489   3.541   6.931
 7750WAT     H123492   9.477   3.553   6.833
 7750WAT     H223493   9.488   3.631   6.976
 7751WAT      O23494   1.346   4.141   5.944
 7751WAT     H123495   1.267   4.124   5.885
 7751WAT     H223496   1.332   4.225   5.995
 7752WAT      O23497   8.090   4.530   4.992
 7752WAT     H123498   8.132   4.612   4.953
 7752WAT     H223499   8.146   4.498   5.069
 7753WAT      O23500   8.836   8.764   8.204
 7753WAT     H123501   8.873   8.854   8.229
 7753WAT     H223502   8.889   8.728   8.127
 7754WAT      O23503   0.738   8.679   6.299
 7754WAT     H123504   0.816   8.733   6.268
 7754WAT     H223505   0.688   8.645   6.219
 7755WAT      O23506   9.310   0.786   2.359
 7755WAT     H123507   9.214   0.762   2.371
 7755WAT     H223508   9.338   0.769   2.264
 7756WAT      O23509   9.496   3.155   2.970
 7756WAT     H123510   9.404   3.131   2.938
 7756WAT     H223511   9.559   3.156   2.893
 7757WAT      O23512   6.439   6.011   1.206
 7757WAT     H123513   6.372   6.084   1.196
 7757WAT     H223514   6.524   6.048   1.241
 7758WAT      O23515   9.759   3.926   8.119
 7758WAT     H123516   9.694   3.994   8.084
 7758WAT     H223517   9.843   3.929   8.065
 7759WAT      O23518   3.190   8.155   1.260
 7759WAT     H123519   3.205   8.063   1.223
 7759WAT     H223520   3.150   8.213   1.190
 7760WAT      O23521   2.447   5.961   1.231
 7760WAT     H123522   2.360   5.975   1.277
 7760WAT     H223523   2.472   6.044   1.181
 7761WAT      O23524   3.459   3.572   5.535
 7761WAT     H123525   3.412   3.651   5.495
 7761WAT     H223526   3.469   3.501   5.465
 7762WAT      O23527   5.575   5.335   5.805
 7762WAT     H123528   5.566   5.259   5.740
 7762WAT     H223529   5.486   5.353   5.847
 7763WAT      O23530   4.270   6.945   5.523
 7763WAT     H123531   4.297   7.037   5.552
 7763WAT     H223532   4.206   6.907   5.588
 7764WAT      O23533   4.443   4.293   0.714
 7764WAT     H123534   4.516   4.298   0.783
 7764WAT     H223535   4.396   4.206   0.722
 7765WAT      O23536   7.902   3.131   4.988
 7765WAT     H123537   7.959   3.200   5.032
 7765WAT     H223538   7.914   3.044   5.035
 7766WAT      O23539   5.453   0.353   4.146
 7766WAT     H123540   5.390   0.354   4.223
 7766WAT     H223541   5.401   0.343   4.061
 7767WAT      O23542   1.532   8.470   5.477
 7767WAT     H123543   1.435   8.478   5.499
 7767WAT     H223544   1.545   8.403   5.404
 7768WAT      O23545   6.094   5.746   8.811
 7768WAT     H123546   6.085   5.688   8.729
 7768WAT     H223547   6.152   5.824   8.789
 7769WAT      O23548   6.663   4.591   3.915
 7769WAT     H123549   6.718   4.656   3.862
 7769WAT     H223550   6.620   4.639   3.991
 7770WAT      O23551   3.899   0.695   9.206
 7770WAT     H123552   3.870   0.771   9.264
 7770WAT     H223553   3.907   0.612   9.260
 7771WAT      O23554   6.448   0.685   5.213
 7771WAT     H123555   6.538   0.667   5.254
 7771WAT     H223556   6.389   0.607   5.229
 7772WAT      O23557   1.989   8.421   1.813
 7772WAT     H123558   2.014   8.324   1.810
 7772WAT     H223559   1.990   8.453   1.908
 7773WAT      O23560   3.918   3.412   3.313
 7773WAT     H123561   3.960   3.395   3.224
 7773WAT     H223562   3.936   3.334   3.373
 7774WAT      O23563   1.472   9.498   9.125
 7774WAT     H123564   1.429   9.541   9.204
 7774WAT     H223565   1.442   9.403   9.118
 7775WAT      O23566   8.004   2.689   4.076
 7775WAT     H123567   7.930   2.667   4.012
 7775WAT     H223568   7.965   2.707   4.166
 7776WAT      O23569   8.008   4.276   6.831
 7776WAT     H123570   8.063   4.272   6.914
 7776WAT     H223571   7.919   4.234   6.849
 7777WAT      O23572   2.677   6.070   8.806
 7777WAT     H123573   2.646   6.083   8.900
 7777WAT     H223574   2.776   6.058   8.804
 7778WAT      O23575   6.468   9.522   7.426
 7778WAT     H123576   6.498   9.610   7.462
 7778WAT     H223577   6.390   9.535   7.365
 7779WAT      O23578   0.009   1.122   7.132
 7779WAT     H123579   0.054   1.055   7.191
 7779WAT     H223580  -0.062   1.169   7.184
 7780WAT      O23581   2.021   1.875   5.755
 7780WAT     H123582   1.945   1.877   5.819
 7780WAT     H223583   2.107   1.883   5.806
 7781WAT      O23584   9.562   9.163   1.028
 7781WAT     H123585   9.478   9.217   1.022
 7781WAT     H223586   9.556   9.085   0.965
 7782WAT      O23587   7.378   3.148   0.539
 7782WAT     H123588   7.347   3.227   0.592
 7782WAT     H223589   7.344   3.064   0.581
 7783WAT      O23590   7.496   0.353   0.625
 7783WAT     H123591   7.476   0.418   0.551
 7783WAT     H223592   7.515   0.403   0.709
 7784WAT      O23593   0.949   9.334   0.814
 7784WAT     H123594   1.043   9.306   0.834
 7784WAT     H223595   0.938   9.431   0.837
 7785WAT      O23596   8.507   6.648   0.385
 7785WAT     H123597   8.524   6.576   0.317
 7785WAT     H223598   8.536   6.615   0.475
 7786WAT      O23599   0.911   8.757   8.037
 7786WAT     H123600   1.005   8.758   8.002
 7786WAT     H223601   0.910   8.794   8.130
 7787WAT      O23602   7.688   3.544   1.245
 7787WAT     H123603   7.669   3.482   1.322
 7787WAT     H223604   7.774   3.592   1.262
 7788WAT      O23605   6.343   9.737   8.214
 7788WAT     H123606   6.254   9.707   8.179
 7788WAT     H223607   6.415   9.684   8.170
 7789WAT      O23608   3.302   2.502   7.570
 7789WAT     H123609   3.331   2.437   7.500
 7789WAT     H223610   3.203   2.516   7.562
 7790WAT      O23611   9.803   1.130   5.799
 7790WAT     H123612   9.784   1.084   5.712
 7790WAT     H223613   9.718   1.171   5.834
 7791WAT      O23614   9.147   1.583   8.359
 7791WAT     H123615   9.062   1.576   8.308
 7791WAT     H223616   9.151   1.670   8.408
 7792WAT      O23617   1.012   4.596   2.016
 7792WAT     H123618   1.086   4.559   2.073
 7792WAT     H223619   0.953   4.654   2.073
 7793WAT      O23620   1.734   9.767   3.813
 7793WAT     H123621   1.720   9.672   3.842
 7793WAT     H223622   1.741   9.771   3.713
 7794WAT      O23623   7.148   9.676   5.677
 7794WAT     H123624   7.177   9.758   5.727
 7794WAT     H223625   7.220   9.607   5.681
 7795WAT      O23626   3.726   3.391   1.085
 7795WAT     H123627   3.800   3.387   1.152
 7795WAT     H223628   3.740   3.321   1.015
 7796WAT      O23629   4.264   6.710   0.912
 7796WAT     H123630   4.255   6.629   0.854
 7796WAT     H223631   4.279   6.790   0.855
 7797WAT      O23632   5.383   0.639   2.433
 7797WAT     H123633   5.318   0.646   2.508
 7797WAT     H223634   5.372   0.718   2.372
 7798WAT      O23635   8.704   1.280   4.330
 7798WAT     H123636   8.798   1.291   4.295
 7798WAT     H223637   8.699   1.199   4.388
 7799WAT      O23638   6.866   3.557   6.694
 7799WAT     H123639   6.814   3.537   6.777
 7799WAT     H223640   6.831   3.501   6.619
 7800WAT      O23641   1.129   4.151   0.186
 7800WAT     H123642   1.213   4.113   0.223
 7800WAT     H223643   1.149   4.232   0.131
 7801WAT      O23644   0.875   5.977   2.939
 7801WAT     H123645   0.781   5.944   2.945
 7801WAT     H223646   0.893   6.041   3.013
 7802WAT      O23647   4.439   4.271   6.892
 7802WAT     H123648   4.442   4.233   6.799
 7802WAT     H223649   4.507   4.344   6.899
 7803WAT      O23650   1.988   2.975   8.968
 7803WAT     H123651   1.979   2.975   8.868
 7803WAT     H223652   1.940   3.054   9.006
 7804WAT      O23653   7.221   0.609   8.208
 7804WAT     H123654   7.288   0.676   8.178
 7804WAT     H223655   7.220   0.604   8.308
 7805WAT      O23656   5.596   0.094   7.985
 7805WAT     H123657   5.572   0.014   8.041
 7805WAT     H223658   5.546   0.174   8.019
 7806WAT      O23659   4.036   4.874   0.029
 7806WAT     H123660   4.080   4.961   0.050
 7806WAT     H223661   4.023   4.821   0.113
 7807WAT      O23662   0.546   5.013   1.386
 7807WAT     H123663   0.477   5.041   1.453
 7807WAT     H223664   0.615   5.084   1.378
 7808WAT      O23665   3.033   2.860   6.408
 7808WAT     H123666   2.972   2.933   6.438
 7808WAT     H223667   3.110   2.852   6.471
 7809WAT      O23668   4.798   8.662   4.503
 7809WAT     H123669   4.875   8.600   4.514
 7809WAT     H223670   4.712   8.612   4.512
 7810WAT      O23671   7.202   1.278   9.340
 7810WAT     H123672   7.205   1.199   9.401
 7810WAT     H223673   7.214   1.362   9.394
 7811WAT      O23674   0.402   6.245   1.235
 7811WAT     H123675   0.435   6.271   1.326
 7811WAT     H223676   0.386   6.327   1.181
 7812WAT      O23677   4.995   7.657   8.756
 7812WAT     H123678   5.071   7.645   8.691
 7812WAT     H223679   5.029   7.644   8.849
 7813WAT      O23680   2.717   2.440   8.837
 7813WAT     H123681   2.698   2.510   8.768
 7813WAT     H223682   2.812   2.447   8.867
 7814WAT      O23683   5.759   1.105   2.376
 7814WAT     H123684   5.666   1.096   2.341
 7814WAT     H223685   5.788   1.200   2.369
 7815WAT      O23686   4.076   6.022   1.005
 7815WAT     H123687   4.016   6.069   0.941
 7815WAT     H223688   4.029   5.942   1.041
 7816WAT      O23689   2.413   1.646   8.053
 7816WAT     H123690   2.425   1.552   8.086
 7816WAT     H223691   2.502   1.685   8.031
 7817WAT      O23692   0.629   0.965   5.347
 7817WAT     H123693   0.647   0.909   5.428
 7817WAT     H223694   0.550   1.025   5.364
 7818WAT      O23695   2.336   8.532   3.653
 7818WAT     H123696   2.278   8.456   3.681
 7818WAT     H223697   2.303   8.569   3.566
 7819WAT      O23698   4.725   1.112   7.562
 7819WAT     H123699   4.762   1.192   7.515
 7819WAT     H223700   4.643   1.080   7.514
 7820WAT      O23701   0.807   7.796   5.984
 7820WAT     H123702   0.866   7.738   6.039
 7820WAT     H223703   0.788   7.881   6.032
 7821WAT      O23704   0.196   5.649   2.716
 7821WAT     H123705   0.107   5.604   2.721
 7821WAT     H223706   0.199   5.710   2.636
 7822WAT      O23707   2.002   6.467   8.088
 7822WAT     H123708   2.039   6.559   8.099
 7822WAT     H223709   1.980   6.428   8.178
 7823WAT      O23710   4.595   5.751   5.387
 7823WAT     H123711   4.657   5.829   5.381
 7823WAT     H223712   4.595   5.717   5.481
 7824WAT      O23713   8.372   6.134   4.135
 7824WAT     H123714   8.430   6.060   4.101
 7824WAT     H223715   8.359   6.201   4.062
 7825WAT      O23716   4.735   8.844   9.399
 7825WAT     H123717   4.699   8.841   9.492
 7825WAT     H223718   4.701   8.925   9.352
 7826WAT      O23719   2.936   7.976   9.353
 7826WAT     H123720   2.966   7.967   9.258
 7826WAT     H223721   2.908   8.070   9.371
 7827WAT      O23722   6.090   9.824   1.171
 7827WAT     H123723   6.009   9.773   1.144
 7827WAT     H223724   6.131   9.782   1.253
 7828WAT      O23725   7.684   9.323   6.040
 7828WAT     H123726   7.595   9.296   6.079
 7828WAT     H223727   7.689   9.423   6.036
 7829WAT      O23728   2.892   6.452   4.824
 7829WAT     H123729   2.792   6.454   4.832
 7829WAT     H223730   2.920   6.367   4.781
 7830WAT      O23731   6.706   7.203   1.192
 7830WAT     H123732   6.702   7.302   1.175
 7830WAT     H223733   6.787   7.165   1.148
 7831WAT      O23734   3.806   4.655   5.148
 7831WAT     H123735   3.813   4.748   5.183
 7831WAT     H223736   3.897   4.614   5.141
 7832WAT      O23737   1.643   6.477   9.077
 7832WAT     H123738   1.548   6.459   9.104
 7832WAT     H223739   1.657   6.449   8.982
 7833WAT      O23740   3.278   0.549   0.462
 7833WAT     H123741   3.360   0.525   0.411
 7833WAT     H223742   3.288   0.522   0.557
 7834WAT      O23743   8.700   4.169   4.481
 7834WAT     H123744   8.644   4.243   4.445
 7834WAT     H223745   8.667   4.081   4.446
 7835WAT      O23746   7.975   5.296   9.430
 7835WAT     H123747   7.948   5.391   9.412
 7835WAT     H223748   8.071   5.294   9.458
 7836WAT      O23749   1.928   1.074   0.238
 7836WAT     H123750   2.027   1.062   0.240
 7836WAT     H223751   1.893   1.074   0.332
 7837WAT      O23752   8.411   9.340   8.274
 7837WAT     H123753   8.314   9.316   8.267
 7837WAT     H223754   8.460   9.267   8.322
 7838WAT      O23755   8.040   2.893   5.745
 7838WAT     H123756   7.957   2.944   5.764
 7838WAT     H223757   8.091   2.938   5.672
 7839WAT      O23758   4.475   9.189   1.418
 7839WAT     H123759   4.419   9.122   1.370
 7839WAT     H223760   4.562   9.148   1.444
 7840WAT      O23761   7.382   7.699   6.531
 7840WAT     H123762   7.368   7.732   6.624
 7840WAT     H223763   7.448   7.759   6.484
 7841WAT      O23764   2.345   3.748   5.420
 7841WAT     H123765   2.355   3.780   5.325
 7841WAT     H223766   2.400   3.806   5.480
 7842WAT      O23767   3.352   9.207   3.570
 7842WAT     H123768   3.383   9.232   3.479
 7842WAT     H223769   3.267   9.255   3.591
 7843WAT      O23770   4.529   9.686   6.735
 7843WAT     H123771   4.543   9.588   6.744
 7843WAT     H223772   4.448   9.703   6.678
 7844WAT      O23773   8.655   3.438   5.154
 7844WAT     H123774   8.741   3.399   5.187
 7844WAT     H223775   8.580   3.404   5.209
 7845WAT      O23776   4.103   1.547   3.824
 7845WAT     H123777   4.048   1.470   3.791
 7845WAT     H223778   4.138   1.527   3.915
 7846WAT      O23779   9.872   8.182   3.679
 7846WAT     H123780   9.882   8.237   3.762
 7846WAT     H223781   9.961   8.144   3.653
 7847WAT      O23782   8.954   9.552   4.574
 7847WAT     H123783   9.014   9.599   4.638
 7847WAT     H223784   8.951   9.601   4.488
 7848WAT      O23785   5.723   7.183   6.570
 7848WAT     H123786   5.756   7.261   6.624
 7848WAT     H223787   5.625   7.172   6.583
 7849WAT      O23788   2.564   0.386   6.412
 7849WAT     H123789   2.513   0.461   6.453
 7849WAT     H223790   2.544   0.382   6.314
 7850WAT      O23791   1.113   0.802   1.467
 7850WAT     H123792   1.185   0.856   1.423
 7850WAT     H223793   1.100   0.717   1.417
 7851WAT      O23794   1.558   7.534   9.811
 7851WAT     H123795   1.623   7.465   9.841
 7851WAT     H223796   1.488   7.547   9.881
 7852WAT      O23797   5.794   3.779   5.887
 7852WAT     H123798   5.767   3.811   5.796
 7852WAT     H223799   5.746   3.831   5.957
 7853WAT      O23800   2.272   8.959   4.832
 7853WAT     H123801   2.339   8.918   4.893
 7853WAT     H223802   2.229   9.037   4.878
 7854WAT      O23803   9.535   2.188   3.626
 7854WAT     H123804   9.455   2.127   3.624
 7854WAT     H223805   9.504   2.283   3.621
 7855WAT      O23806   3.594   5.127   2.615
 7855WAT     H123807   3.672   5.166   2.664
 7855WAT     H223808   3.531   5.085   2.681
 7856WAT      O23809   4.279   7.379   0.462
 7856WAT     H123810   4.344   7.354   0.390
 7856WAT     H223811   4.292   7.319   0.541
 7857WAT      O23812   8.027   5.071   8.781
 7857WAT     H123813   7.952   5.005   8.791
 7857WAT     H223814   8.026   5.134   8.859
 7858WAT      O23815   5.775   6.370   8.100
 7858WAT     H123816   5.843   6.336   8.035
 7858WAT     H223817   5.765   6.304   8.175
 7859WAT      O23818   5.377   0.150   7.528
 7859WAT     H123819   5.280   0.151   7.552
 7859WAT     H223820   5.432   0.164   7.611
 7860WAT      O23821   6.341   6.501   0.858
 7860WAT     H123822   6.404   6.508   0.936
 7860WAT     H223823   6.390   6.523   0.774
 7861WAT      O23824   8.426   3.526   4.657
 7861WAT     H123825   8.370   3.591   4.709
 7861WAT     H223826   8.459   3.454   4.718
 7862WAT      O23827   4.082   7.787   0.204
 7862WAT     H123828   4.147   7.789   0.281
 7862WAT     H223829   4.017   7.862   0.214
 7863WAT      O23830   5.414   5.991   3.023
 7863WAT     H123831   5.352   6.058   2.983
 7863WAT     H223832   5.447   6.024   3.111
 7864WAT      O23833   1.668   4.350   1.864
 7864WAT     H123834   1.592   4.412   1.845
 7864WAT     H223835   1.671   4.278   1.795
 7865WAT      O23836   4.330   9.319   1.898
 7865WAT     H123837   4.294   9.371   1.820
 7865WAT     H223838   4.306   9.222   1.886
 7866WAT      O23839   9.784   2.175   4.191
 7866WAT     H123840   9.715   2.134   4.250
 7866WAT     H223841   9.863   2.114   4.183
 7867WAT      O23842   7.081   4.261   2.667
 7867WAT     H123843   7.155   4.213   2.714
 7867WAT     H223844   7.080   4.235   2.570
 7868WAT      O23845   5.493   7.084   4.212
 7868WAT     H123846   5.470   7.178   4.190
 7868WAT     H223847   5.480   7.069   4.310
 7869WAT      O23848   0.322   8.978   4.935
 7869WAT     H123849   0.390   8.905   4.946
 7869WAT     H223850   0.344   9.031   4.853
 7870WAT      O23851   6.002   1.795   9.527
 7870WAT     H123852   5.927   1.847   9.486
 7870WAT     H223853   6.085   1.850   9.527
 7871WAT      O23854   6.952   2.606   1.421
 7871WAT     H123855   7.037   2.563   1.389
 7871WAT     H223856   6.946   2.698   1.384
 7872WAT      O23857   2.772   1.545   4.948
 7872WAT     H123858   2.780   1.531   5.046
 7872WAT     H223859   2.758   1.643   4.929
 7873WAT      O23860   6.257   8.123   3.661
 7873WAT     H123861   6.354   8.100   3.652
 7873WAT     H223862   6.210   8.107   3.575
 7874WAT      O23863   8.414   1.797   2.889
 7874WAT     H123864   8.315   1.790   2.878
 7874WAT     H223865   8.452   1.855   2.817
 7875WAT      O23866   5.587   9.408   3.009
 7875WAT     H123867   5.639   9.484   2.970
 7875WAT     H223868   5.647   9.329   3.022
 7876WAT      O23869   6.138   4.959   0.785
 7876WAT     H123870   6.068   4.888   0.777
 7876WAT     H223871   6.119   5.031   0.719
 7877WAT      O23872   8.817   5.375   9.423
 7877WAT     H123873   8.803   5.428   9.507
 7877WAT     H223874   8.735   5.322   9.403
 7878WAT      O23875   6.706   7.520   1.805
 7878WAT     H123876   6.663   7.476   1.725
 7878WAT     H223877   6.717   7.452   1.878
 7879WAT      O23878   9.504   0.573   2.707
 7879WAT     H123879   9.439   0.625   2.762
 7879WAT     H223880   9.466   0.557   2.616
 7880WAT      O23881   9.593   5.770   8.314
 7880WAT     H123882   9.642   5.850   8.278
 7880WAT     H223883   9.636   5.739   8.398
 7881WAT      O23884   9.513   9.012   7.102
 7881WAT     H123885   9.555   9.074   7.035
 7881WAT     H223886   9.499   9.061   7.188
 7882WAT      O23887   4.291   7.296   6.036
 7882WAT     H123888   4.298   7.367   6.106
 7882WAT     H223889   4.195   7.272   6.023
 7883WAT      O23890   3.743   1.506   2.614
 7883WAT     H123891   3.757   1.574   2.686
 7883WAT     H223892   3.823   1.446   2.609
 7884WAT      O23893   8.860   6.676   5.154
 7884WAT     H123894   8.783   6.662   5.215
 7884WAT     H223895   8.945   6.657   5.203
 7885WAT      O23896   8.070   1.581   5.306
 7885WAT     H123897   8.125   1.664   5.315
 7885WAT     H223898   8.109   1.523   5.234
 7886WAT      O23899   2.501   9.079   0.488
 7886WAT     H123900   2.572   9.146   0.509
 7886WAT     H223901   2.457   9.103   0.401
 7887WAT      O23902   9.273   5.614   6.232
 7887WAT     H123903   9.339   5.589   6.161
 7887WAT     H223904   9.230   5.532   6.268
 7888WAT      O23905   2.574   9.646   7.079
 7888WAT     H123906   2.648   9.611   7.136
 7888WAT     H223907   2.555   9.741   7.103
 7889WAT      O23908   8.261   8.307   2.770
 7889WAT     H123909   8.176   8.289   2.818
 7889WAT     H223910   8.290   8.401   2.787
 7890WAT      O23911   1.740   7.379   6.466
 7890WAT     H123912   1.678   7.437   6.519
 7890WAT     H223913   1.694   7.349   6.383
 7891WAT      O23914   4.330   0.154   6.291
 7891WAT     H123915   4.259   0.154   6.362
 7891WAT     H223916   4.394   0.229   6.306
 7892WAT      O23917   5.591   4.280   6.641
 7892WAT     H123918   5.687   4.291   6.663
 7892WAT     H223919   5.571   4.183   6.627
 7893WAT      O23920   1.489   5.530   1.635
 7893WAT     H123921   1.579   5.501   1.668
 7893WAT     H223922   1.426   5.535   1.712
 7894WAT      O23923   3.534   0.191   4.745
 7894WAT     H123924   3.552   0.287   4.729
 7894WAT     H223925   3.440   0.179   4.778
 7895WAT      O23926   8.406   2.230   2.391
 7895WAT     H123927   8.322   2.246   2.338
 7895WAT     H223928   8.406   2.136   2.424
 7896WAT      O23929   5.945   5.393   7.482
 7896WAT     H123930   5.859   5.441   7.499
 7896WAT     H223931   5.928   5.295   7.471
 7897WAT      O23932   9.357   0.252   8.589
 7897WAT     H123933   9.455   0.270   8.589
 7897WAT     H223934   9.322   0.256   8.683
 7898WAT      O23935   8.986   4.205   4.451
 7898WAT     H123936   9.014   4.254   4.368
 7898WAT     H223937   8.887   4.205   4.458
 7899WAT      O23938   9.135   7.094   3.456
 7899WAT     H123939   9.189   7.020   3.417
 7899WAT     H223940   9.145   7.176   3.399
 7900WAT      O23941   8.321   5.532   4.349
 7900WAT     H123942   8.328   5.614   4.292
 7900WAT     H223943   8.362   5.550   4.439
 7901WAT      O23944   0.038   0.075   4.764
 7901WAT     H123945   0.121   0.023   4.786
 7901WAT     H223946  -0.019   0.083   4.845
 7902WAT      O23947   5.291   1.861   9.604
 7902WAT     H123948   5.348   1.939   9.628
 7902WAT     H223949   5.329   1.778   9.644
 7903WAT      O23950   9.615   3.091   2.517
 7903WAT     H123951   9.687   3.048   2.462
 7903WAT     H223952   9.645   3.096   2.612
 7904WAT      O23953   1.399   8.157   7.854
 7904WAT     H123954   1.443   8.158   7.943
 7904WAT     H223955   1.306   8.122   7.863
 7905WAT      O23956   8.299   7.756   1.587
 7905WAT     H123957   8.263   7.773   1.495
 7905WAT     H223958   8.392   7.720   1.581
 7906WAT      O23959   1.187   6.833   2.645
 7906WAT     H123960   1.226   6.764   2.583
 7906WAT     H223961   1.092   6.808   2.666
 7907WAT      O23962   7.641   7.079   2.477
 7907WAT     H123963   7.646   6.979   2.477
 7907WAT     H223964   7.601   7.111   2.563
 7908WAT      O23965   3.122   9.299   4.922
 7908WAT     H123966   3.032   9.342   4.910
 7908WAT     H223967   3.184   9.332   4.851
 7909WAT      O23968   6.943   8.830   3.666
 7909WAT     H123969   6.936   8.734   3.639
 7909WAT     H223970   7.034   8.864   3.643
 7910WAT      O23971   4.383   8.348   5.949
 7910WAT     H123972   4.377   8.447   5.962
 7910WAT     H223973   4.291   8.309   5.949
 7911WAT      O23974   8.675   8.229   0.876
 7911WAT     H123975   8.724   8.301   0.925
 7911WAT     H223976   8.682   8.245   0.777
 7912WAT      O23977   4.566   3.836   8.165
 7912WAT     H123978   4.512   3.754   8.149
 7912WAT     H223979   4.505   3.914   8.180
 7913WAT      O23980   8.247   6.558   4.353
 7913WAT     H123981   8.236   6.460   4.372
 7913WAT     H223982   8.319   6.595   4.411
 7914WAT      O23983   1.841   4.220   3.456
 7914WAT     H123984   1.781   4.267   3.392
 7914WAT     H223985   1.895   4.287   3.507
 7915WAT      O23986   9.187   6.301   1.124
 7915WAT     H123987   9.089   6.317   1.139
 7915WAT     H223988   9.238   6.381   1.154
 7916WAT      O23989   4.221   4.890   1.772
 7916WAT     H123990   4.287   4.907   1.700
 7916WAT     H223991   4.266   4.894   1.861
 7917WAT      O23992   7.841   3.931   1.126
 7917WAT     H123993   7.831   3.996   1.051
 7917WAT     H223994   7.893   3.974   1.201
 7918WAT      O23995   6.159   5.494   3.379
 7918WAT     H123996   6.165   5.586   3.340
 7918WAT     H223997   6.109   5.497   3.465
 7919WAT      O23998   3.455   0.109   8.238
 7919WAT     H123999   3.436   0.101   8.336
 7919WAT     H224000   3.474   0.205   8.216
 7920WAT      O24001   9.240   0.276   8.862
 7920WAT     H124002   9.308   0.308   8.928
 7920WAT     H224003   9.166   0.229   8.910
 7921WAT      O24004   7.899   7.425   8.950
 7921WAT     H124005   7.920   7.365   9.027
 7921WAT     H224006   7.880   7.370   8.869
 7922WAT      O24007   6.241   7.483   1.939
 7922WAT     H124008   6.224   7.472   1.841
 7922WAT     H224009   6.298   7.564   1.954
 7923WAT      O24010   1.632   4.874   6.661
 7923WAT     H124011   1.716   4.910   6.620
 7923WAT     H224012   1.577   4.950   6.697
 7924WAT      O24013   8.311   8.727   6.436
 7924WAT     H124014   8.333   8.811   6.486
 7924WAT     H224015   8.340   8.648   6.490
 7925WAT      O24016   8.027   0.025   6.204
 7925WAT     H124017   8.057  -0.070   6.210
 7925WAT     H224018   7.934   0.034   6.241
 7926WAT      O24019   6.088   9.663   4.148
 7926WAT     H124020   6.005   9.612   4.124
 7926WAT     H224021   6.160   9.599   4.173
 7927WAT      O24022   2.804   5.162   1.219
 7927WAT     H124023   2.829   5.145   1.314
 7927WAT     H224024   2.704   5.158   1.210
 7928WAT      O24025   8.297   5.315   5.290
 7928WAT     H124026   8.257   5.392   5.240
 7928WAT     H224027   8.224   5.260   5.329
 7929WAT      O24028   4.116   5.789   4.196
 7929WAT     H124029   4.126   5.870   4.255
 7929WAT     H224030   4.040   5.733   4.230
 7930WAT      O24031   6.795   1.044   3.082
 7930WAT     H124032   6.755   1.077   3.167
 7930WAT     H224033   6.756   1.094   3.005
 7931WAT      O24034   0.057   8.055   2.018
 7931WAT     H124035   0.080   7.982   1.953
 7931WAT     H224036  -0.035   8.089   1.998
 7932WAT      O24037   0.889   5.480   5.929
 7932WAT     H124038   0.891   5.554   5.862
 7932WAT     H224039   0.971   5.482   5.985
 7933WAT      O24040   9.715   8.075   0.208
 7933WAT     H124041   9.623   8.058   0.242
 7933WAT     H224042   9.777   8.003   0.242
 7934WAT      O24043   8.084   0.294   0.222
 7934WAT     H124044   8.176   0.262   0.202
 7934WAT     H224045   8.019   0.254   0.157
 7935WAT      O24046   3.572   8.583   8.263
 7935WAT     H124047   3.609   8.553   8.175
 7935WAT     H224048   3.648   8.612   8.323
 7936WAT      O24049   0.683   8.373   2.793
 7936WAT     H124050   0.708   8.277   2.782
 7936WAT     H224051   0.763   8.425   2.823
 7937WAT      O24052   2.780   4.511   2.740
 7937WAT     H124053   2.788   4.445   2.814
 7937WAT     H224054   2.866   4.563   2.733
 7938WAT      O24055   3.586   1.138   8.991
 7938WAT     H124056   3.662   1.137   8.926
 7938WAT     H224057   3.503   1.171   8.946
 7939WAT      O24058   7.846   4.002   9.457
 7939WAT     H124059   7.792   3.918   9.449
 7939WAT     H224060   7.847   4.050   9.370
 7940WAT      O24061   4.144   6.049   0.094
 7940WAT     H124062   4.065   6.013   0.142
 7940WAT     H224063   4.118   6.077   0.001
 7941WAT      O24064   9.849   1.102   7.514
 7941WAT     H124065   9.913   1.065   7.581
 7941WAT     H224066   9.852   1.202   7.517
 7942WAT      O24067   5.816   2.428   1.589
 7942WAT     H124068   5.891   2.363   1.576
 7942WAT     H224069   5.821   2.499   1.519
 7943WAT      O24070   1.144   8.829   4.592
 7943WAT     H124071   1.096   8.900   4.644
 7943WAT     H224072   1.233   8.812   4.633
 7944WAT      O24073   7.703   1.644   7.959
 7944WAT     H124074   7.640   1.697   8.016
 7944WAT     H224075   7.670   1.550   7.951
 7945WAT      O24076   5.828   4.101   6.479
 7945WAT     H124077   5.745   4.087   6.425
 7945WAT     H224078   5.889   4.023   6.467
 7946WAT      O24079   4.380   6.293   4.921
 7946WAT     H124080   4.319   6.367   4.949
 7946WAT     H224081   4.332   6.205   4.927
 7947WAT      O24082   9.193   4.160   3.765
 7947WAT     H124083   9.275   4.124   3.722
 7947WAT     H224084   9.136   4.084   3.797
 7948WAT      O24085   0.763   1.806   8.325
 7948WAT     H124086   0.829   1.732   8.315
 7948WAT     H224087   0.738   1.841   8.234
 7949WAT      O24088   0.964   3.096   0.084
 7949WAT     H124089   0.875   3.104   0.039
 7949WAT     H224090   0.958   3.133   0.177
 7950WAT      O24091   7.331   8.201   6.148
 7950WAT     H124092   7.414   8.150   6.171
 7950WAT     H224093   7.257   8.174   6.210
 7951WAT      O24094   7.748   0.339   9.141
 7951WAT     H124095   7.717   0.418   9.089
 7951WAT     H224096   7.701   0.257   9.109
 7952WAT      O24097   2.982   7.774   1.032
 7952WAT     H124098   3.032   7.728   0.959
 7952WAT     H224099   2.886   7.786   1.005
 7953WAT      O24100   8.488   7.223   2.888
 7953WAT     H124101   8.584   7.205   2.866
 7953WAT     H224102   8.429   7.161   2.837
 7954WAT      O24103   4.155   8.295   7.335
 7954WAT     H124104   4.119   8.247   7.255
 7954WAT     H224105   4.187   8.229   7.403
 7955WAT      O24106   0.035   8.294   7.584
 7955WAT     H124107   0.056   8.217   7.644
 7955WAT     H224108   0.074   8.278   7.493
 7956WAT      O24109   1.240   5.982   2.853
 7956WAT     H124110   1.285   6.072   2.856
 7956WAT     H224111   1.161   5.987   2.792
 7957WAT      O24112   4.544   1.418   3.786
 7957WAT     H124113   4.460   1.468   3.766
 7957WAT     H224114   4.544   1.330   3.738
 7958WAT      O24115   9.842   4.045   5.198
 7958WAT     H124116   9.754   4.086   5.221
 7958WAT     H224117   9.884   4.006   5.280
 7959WAT      O24118   5.166   7.831   9.815
 7959WAT     H124119   5.077   7.827   9.770
 7959WAT     H224120   5.228   7.766   9.771
 7960WAT      O24121   6.156   9.079   7.517
 7960WAT     H124122   6.173   8.981   7.512
 7960WAT     H224123   6.162   9.119   7.425
 7961WAT      O24124   6.350   3.160   5.731
 7961WAT     H124125   6.319   3.196   5.819
 7961WAT     H224126   6.289   3.193   5.659
 7962WAT      O24127   3.644   3.894   7.348
 7962WAT     H124128   3.710   3.932   7.283
 7962WAT     H224129   3.561   3.950   7.347
 7963WAT      O24130   5.268   8.265   3.224
 7963WAT     H124131   5.299   8.170   3.234
 7963WAT     H224132   5.342   8.327   3.248
 7964WAT      O24133   2.512   3.548   9.891
 7964WAT     H124134   2.468   3.528   9.804
 7964WAT     H224135   2.473   3.489   9.962
 7965WAT      O24136   3.504   6.702   2.918
 7965WAT     H124137   3.573   6.773   2.931
 7965WAT     H224138   3.441   6.702   2.996
 7966WAT      O24139   5.828   6.397   8.837
 7966WAT     H124140   5.807   6.357   8.748
 7966WAT     H224141   5.834   6.496   8.829
 7967WAT      O24142   2.149   6.219   8.817
 7967WAT     H124143   2.069   6.200   8.761
 7967WAT     H224144   2.126   6.205   8.914
 7968WAT      O24145   6.654   8.469   2.144
 7968WAT     H124146   6.745   8.439   2.118
 7968WAT     H224147   6.659   8.524   2.228
 7969WAT      O24148   2.197   4.250   3.545
 7969WAT     H124149   2.210   4.314   3.621
 7969WAT     H224150   2.191   4.157   3.581
 7970WAT      O24151   4.481   4.586   2.169
 7970WAT     H124152   4.408   4.603   2.102
 7970WAT     H224153   4.445   4.530   2.243
 7971WAT      O24154   9.771   9.102   5.221
 7971WAT     H124155   9.771   9.126   5.124
 7971WAT     H224156   9.863   9.073   5.248
 7972WAT      O24157   0.562   9.357   0.275
 7972WAT     H124158   0.539   9.260   0.268
 7972WAT     H224159   0.588   9.392   0.184
 7973WAT      O24160   4.988   7.725   6.613
 7973WAT     H124161   4.974   7.630   6.641
 7973WAT     H224162   4.901   7.774   6.618
 7974WAT      O24163   1.283   8.727   0.064
 7974WAT     H124164   1.235   8.815   0.061
 7974WAT     H224165   1.267   8.677  -0.021
 7975WAT      O24166   2.631   6.377   2.225
 7975WAT     H124167   2.607   6.281   2.211
 7975WAT     H224168   2.587   6.432   2.154
 7976WAT      O24169   8.529   6.871   6.160
 7976WAT     H124170   8.467   6.828   6.225
 7976WAT     H224171   8.535   6.815   6.078
 7977WAT      O24172   2.713   7.894   1.936
 7977WAT     H124173   2.753   7.957   2.002
 7977WAT     H224174   2.760   7.902   1.848
 7978WAT      O24175   4.772   2.624   2.118
 7978WAT     H124176   4.833   2.553   2.083
 7978WAT     H224177   4.759   2.694   2.048
 7979WAT      O24178   1.356   4.261   7.500
 7979WAT     H124179   1.335   4.261   7.597
 7979WAT     H224180   1.415   4.339   7.478
 7980WAT      O24181   1.480   2.093   0.428
 7980WAT     H124182   1.538   2.166   0.391
 7980WAT     H224183   1.452   2.032   0.354
 7981WAT      O24184   3.293   2.956   3.551
 7981WAT     H124185   3.275   3.020   3.625
 7981WAT     H224186   3.207   2.921   3.515
 7982WAT      O24187   6.400   1.650   7.475
 7982WAT     H124188   6.355   1.729   7.432
 7982WAT     H224189   6.349   1.567   7.454
 7983WAT      O24190   3.416   0.896   1.176
 7983WAT     H124191   3.396   0.942   1.089
 7983WAT     H224192   3.483   0.949   1.227
 7984WAT      O24193   7.221   7.717   9.830
 7984WAT     H124194   7.225   7.692   9.927
 7984WAT     H224195   7.166   7.800   9.820
 7985WAT      O24196   1.330   1.465   1.646
 7985WAT     H124197   1.278   1.540   1.687
 7985WAT     H224198   1.294   1.446   1.555
 7986WAT      O24199   6.743   2.711   0.241
 7986WAT     H124200   6.787   2.757   0.163
 7986WAT     H224201   6.701   2.626   0.210
 7987WAT      O24202   3.673   7.721   2.167
 7987WAT     H124203   3.698   7.814   2.139
 7987WAT     H224204   3.725   7.696   2.249
 7988WAT      O24205   2.691   6.946   2.989
 7988WAT     H124206   2.745   7.023   2.957
 7988WAT     H224207   2.611   6.935   2.930
 7989WAT      O24208   0.878   2.654   0.380
 7989WAT     H124209   0.833   2.722   0.322
 7989WAT     H224210   0.915   2.581   0.322
 7990WAT      O24211   9.575   2.689   9.356
 7990WAT     H124212   9.508   2.646   9.416
 7990WAT     H224213   9.539   2.777   9.324
 7991WAT      O24214   5.847   6.296   0.396
 7991WAT     H124215   5.787   6.217   0.388
 7991WAT     H224216   5.835   6.355   0.316
 7992WAT      O24217   9.566   8.074   4.237
 7992WAT     H124218   9.524   8.119   4.315
 7992WAT     H224219   9.616   7.993   4.267
 7993WAT      O24220   9.228   8.465   8.532
 7993WAT     H124221   9.168   8.432   8.604
 7993WAT     H224222   9.297   8.396   8.511
 7994WAT      O24223   3.799   5.259   0.127
 7994WAT     H124224   3.755   5.232   0.042
 7994WAT     H224225   3.787   5.357   0.141
 7995WAT      O24226   8.248   0.024   2.951
 7995WAT     H124227   8.174   0.081   2.916
 7995WAT     H224228   8.293  -0.024   2.876
 7996WAT      O24229   2.309   1.501   3.494
 7996WAT     H124230   2.209   1.505   3.495
 7996WAT     H224231   2.346   1.583   3.538
 7997WAT      O24232   3.294   9.635   8.423
 7997WAT     H124233   3.226   9.708   8.439
 7997WAT     H224234   3.385   9.668   8.448
 7998WAT      O24235   8.889   1.150   6.990
 7998WAT     H124236   8.927   1.191   6.907
 7998WAT     H224237   8.954   1.159   7.065
 7999WAT      O24238   0.362   2.650   8.523
 7999WAT     H124239   0.340   2.730   8.579
 7999WAT     H224240   0.292   2.638   8.452
 8000WAT      O24241   9.300   4.158   2.679
 8000WAT     H124242   9.373   4.199   2.625
 8000WAT     H224243   9.322   4.062   2.698
 8001WAT      O24244   1.675   3.524   8.282
 8001WAT     H124245   1.733   3.465   8.338
 8001WAT     H224246   1.582   3.488   8.281
 8002WAT      O24247   3.273   6.937   3.503
 8002WAT     H124248   3.310   6.980   3.420
 8002WAT     H224249   3.198   6.876   3.478
 8003WAT      O24250   7.228   6.213   0.757
 8003WAT     H124251   7.158   6.233   0.688
 8003WAT     H224252   7.202   6.254   0.844
 8004WAT      O24253   6.929   0.929   5.568
 8004WAT     H124254   6.912   0.836   5.601
 8004WAT     H224255   7.021   0.935   5.529
 8005WAT      O24256   2.541   8.142   1.277
 8005WAT     H124257   2.540   8.241   1.284
 8005WAT     H224258   2.626   8.113   1.232
 8006WAT      O24259   8.674   7.418   8.737
 8006WAT     H124260   8.624   7.339   8.702
 8006WAT     H224261   8.661   7.495   8.675
 8007WAT      O24262   5.886   8.525   9.636
 8007WAT     H124263   5.793   8.552   9.661
 8007WAT     H224264   5.936   8.495   9.717
 8008WAT      O24265   1.498   8.016   1.324
 8008WAT     H124266   1.424   8.014   1.391
 8008WAT     H224267   1.473   7.960   1.245
 8009WAT      O24268   0.434   2.637   7.748
 8009WAT     H124269   0.502   2.683   7.805
 8009WAT     H224270   0.430   2.681   7.658
 8010WAT      O24271   1.778   7.737   3.525
 8010WAT     H124272   1.716   7.766   3.452
 8010WAT     H224273   1.856   7.799   3.530
 8011WAT      O24274   5.853   7.100   2.041
 8011WAT     H124275   5.829   7.050   1.958
 8011WAT     H224276   5.796   7.181   2.049
 8012WAT      O24277   3.045   8.150   3.337
 8012WAT     H124278   3.020   8.144   3.433
 8012WAT     H224279   3.016   8.067   3.289
 8013WAT      O24280   8.071   1.053   5.464
 8013WAT     H124281   8.081   1.131   5.527
 8013WAT     H224282   8.134   0.980   5.492
 8014WAT      O24283   5.053   1.274   7.733
 8014WAT     H124284   4.968   1.274   7.680
 8014WAT     H224285   5.062   1.187   7.781
 8015WAT      O24286   0.183   3.306   2.908
 8015WAT     H124287   0.103   3.358   2.937
 8015WAT     H224288   0.159   3.248   2.830
 8016WAT      O24289   7.489   2.301   6.716
 8016WAT     H124290   7.462   2.218   6.765
 8016WAT     H224291   7.451   2.381   6.762
 8017WAT      O24292   5.719   1.371   8.446
 8017WAT     H124293   5.814   1.399   8.455
 8017WAT     H224294   5.659   1.444   8.477
 8018WAT      O24295   5.740   6.137   2.363
 8018WAT     H124296   5.702   6.051   2.395
 8018WAT     H224297   5.666   6.200   2.339
 8019WAT      O24298   0.576   9.730   3.758
 8019WAT     H124299   0.483   9.724   3.721
 8019WAT     H224300   0.635   9.775   3.691
 8020WAT      O24301   5.312   9.681   1.841
 8020WAT     H124302   5.373   9.685   1.762
 8020WAT     H224303   5.310   9.770   1.886
 8021WAT      O24304   7.339   2.644   7.902
 8021WAT     H124305   7.403   2.632   7.978
 8021WAT     H224306   7.261   2.583   7.913
 8022WAT      O24307   0.128   5.404   7.693
 8022WAT     H124308   0.061   5.380   7.764
 8022WAT     H224309   0.199   5.334   7.690
 8023WAT      O24310   8.870   2.626   6.286
 8023WAT     H124311   8.817   2.663   6.362
 8023WAT     H224312   8.809   2.592   6.215
 8024WAT      O24313   9.211   5.631   4.074
 8024WAT     H124314   9.135   5.572   4.048
 8024WAT     H224315   9.233   5.694   3.999
 8025WAT      O24316   5.613   0.798   8.740
 8025WAT     H124317   5.615   0.702   8.712
 8025WAT     H224318   5.534   0.814   8.799
 8026WAT      O24319   7.138   8.254   8.977
 8026WAT     H124320   7.187   8.337   8.951
 8026WAT     H224321   7.178   8.176   8.929
 8027WAT      O24322   3.511   3.667   7.446
 8027WAT     H124323   3.548   3.748   7.399
 8027WAT     H224324   3.584   3.620   7.495
 8028WAT      O24325   3.483   7.276   5.764
 8028WAT     H124326   3.435   7.241   5.845
 8028WAT     H224327   3.452   7.369   5.745
 8029WAT      O24328   4.196   7.339   5.758
 8029WAT     H124329   4.206   7.345   5.857
 8029WAT     H224330   4.277   7.295   5.719
 8030WAT      O24331   2.985   2.934   9.761
 8030WAT     H124332   2.913   2.956   9.827
 8030WAT     H224333   3.050   2.871   9.803
 8031WAT      O24334   6.154   2.158   6.404
 8031WAT     H124335   6.084   2.230   6.402
 8031WAT     H224336   6.201   2.154   6.316
 8032WAT      O24337   5.721   4.505   9.768
 8032WAT     H124338   5.652   4.524   9.698
 8032WAT     H224339   5.688   4.536   9.857
 8033WAT      O24340   6.051   4.012   5.583
 8033WAT     H124341   6.035   4.074   5.506
 8033WAT     H224342   5.984   4.032   5.655
 8034WAT      O24343   3.673   7.925   6.798
 8034WAT     H124344   3.730   7.915   6.879
 8034WAT     H224345   3.591   7.869   6.808
 8035WAT      O24346   1.745   4.060   4.779
 8035WAT     H124347   1.717   4.152   4.808
 8035WAT     H224348   1.773   4.062   4.683
 8036WAT      O24349   2.962   6.444   3.755
 8036WAT     H124350   2.876   6.473   3.798
 8036WAT     H224351   3.027   6.414   3.825
 8037WAT      O24352   9.571   6.445   7.541
 8037WAT     H124353   9.571   6.463   7.442
 8037WAT     H224354   9.481   6.470   7.579
 8038WAT      O24355   5.218   1.208   9.802
 8038WAT     H124356   5.178   1.279   9.744
 8038WAT     H224357   5.317   1.218   9.803
 8039WAT      O24358   6.838   8.603   0.969
 8039WAT     H124359   6.879   8.574   1.055
 8039WAT     H224360   6.763   8.542   0.945
 8040WAT      O24361   7.616   7.141   2.085
 8040WAT     H124362   7.658   7.075   2.146
 8040WAT     H224363   7.637   7.234   2.116
 8041WAT      O24364   3.171   1.711   4.237
 8041WAT     H124365   3.240   1.649   4.275
 8041WAT     H224366   3.207   1.756   4.156
 8042WAT      O24367   0.257   8.617   8.803
 8042WAT     H124368   0.268   8.519   8.820
 8042WAT     H224369   0.190   8.654   8.867
 8043WAT      O24370   8.275   6.292   3.201
 8043WAT     H124371   8.329   6.315   3.120
 8043WAT     H224372   8.336   6.279   3.279
 8044WAT      O24373   6.891   0.552   7.211
 8044WAT     H124374   6.954   0.612   7.162
 8044WAT     H224375   6.899   0.568   7.309
 8045WAT      O24376   4.310   7.359   8.824
 8045WAT     H124377   4.353   7.278   8.783
 8045WAT     H224378   4.236   7.330   8.885
 8046WAT      O24379   2.170   0.237   9.848
 8046WAT     H124380   2.080   0.257   9.887
 8046WAT     H224381   2.229   0.198   9.918
 8047WAT      O24382   7.314   9.742   6.325
 8047WAT     H124383   7.238   9.782   6.274
 8047WAT     H224384   7.345   9.659   6.279
 8048WAT      O24385   7.136   9.701   2.302
 8048WAT     H124386   7.227   9.662   2.313
 8048WAT     H224387   7.128   9.784   2.357
 8049WAT      O24388   7.729   3.743   2.932
 8049WAT     H124389   7.765   3.728   2.840
 8049WAT     H224390   7.672   3.825   2.933
 8050WAT      O24391   5.281   7.917   0.598
 8050WAT     H124392   5.337   7.847   0.642
 8050WAT     H224393   5.281   7.903   0.499
 8051WAT      O24394   8.123   6.374   7.820
 8051WAT     H124395   8.108   6.304   7.890
 8051WAT     H224396   8.217   6.368   7.786
 8052WAT      O24397   9.552   1.529   3.284
 8052WAT     H124398   9.518   1.445   3.242
 8052WAT     H224399   9.516   1.608   3.233
 8053WAT      O24400   4.158   1.309   1.563
 8053WAT     H124401   4.191   1.270   1.477
 8053WAT     H224402   4.152   1.408   1.554
 8054WAT      O24403   9.385   0.199   3.710
 8054WAT     H124404   9.370   0.267   3.782
 8054WAT     H224405   9.384   0.107   3.749
 8055WAT      O24406   0.245   9.206   0.257
 8055WAT     H124407   0.214   9.290   0.213
 8055WAT     H224408   0.209   9.127   0.207
 8056WAT      O24409   1.307   6.375   4.721
 8056WAT     H124410   1.397   6.330   4.715
 8056WAT     H224411   1.317   6.472   4.698
 8057WAT      O24412   8.273   3.898   6.656
 8057WAT     H124413   8.356   3.942   6.692
 8057WAT     H224414   8.299   3.826   6.592
 8058WAT      O24415   4.361   5.044   3.161
 8058WAT     H124416   4.319   5.084   3.243
 8058WAT     H224417   4.347   5.106   3.083
 8059WAT      O24418   3.572   7.306   2.532
 8059WAT     H124419   3.585   7.358   2.448
 8059WAT     H224420   3.597   7.210   2.515
 8060WAT      O24421   3.452   9.116   8.640
 8060WAT     H124422   3.524   9.067   8.591
 8060WAT     H224423   3.420   9.061   8.717
 8061WAT      O24424   4.851   8.592   2.748
 8061WAT     H124425   4.844   8.593   2.648
 8061WAT     H224426   4.874   8.500   2.779
 8062WAT      O24427   3.073   6.551   7.056
 8062WAT     H124428   3.064   6.455   7.029
 8062WAT     H224429   3.128   6.556   7.139
 8063WAT      O24430   5.279   2.823   3.879
 8063WAT     H124431   5.351   2.789   3.820
 8063WAT     H224432   5.309   2.908   3.923
 8064WAT      O24433   9.770   2.391   1.625
 8064WAT     H124434   9.671   2.379   1.633
 8064WAT     H224435   9.803   2.446   1.701
 8065WAT      O24436   4.075   0.772   9.690
 8065WAT     H124437   3.979   0.793   9.710
 8065WAT     H224438   4.128   0.857   9.685
 8066WAT      O24439   5.213   5.605   5.482
 8066WAT     H124440   5.142   5.637   5.420
 8066WAT     H224441   5.280   5.550   5.431
 8067WAT      O24442   6.648   9.109   5.755
 8067WAT     H124443   6.731   9.144   5.712
 8067WAT     H224444   6.656   9.116   5.855
 8068WAT      O24445   8.843   9.112   4.110
 8068WAT     H124446   8.931   9.069   4.127
 8068WAT     H224447   8.806   9.080   4.023
 8069WAT      O24448   8.926   8.504   1.881
 8069WAT     H124449   8.966   8.531   1.969
 8069WAT     H224450   8.850   8.565   1.859
 8070WAT      O24451   6.561   0.652   9.181
 8070WAT     H124452   6.619   0.616   9.108
 8070WAT     H224453   6.594   0.620   9.269
 8071WAT      O24454   2.304   5.417   8.334
 8071WAT     H124455   2.305   5.344   8.266
 8071WAT     H224456   2.211   5.428   8.369
 8072WAT      O24457   0.018   3.291   0.403
 8072WAT     H124458  -0.027   3.330   0.322
 8072WAT     H224459  -0.051   3.249   0.462
 8073WAT      O24460   6.276   4.122   8.073
 8073WAT     H124461   6.245   4.168   8.157
 8073WAT     H224462   6.298   4.027   8.094
 8074WAT      O24463   0.817   7.512   4.567
 8074WAT     H124464   0.826   7.418   4.599
 8074WAT     H224465   0.844   7.518   4.471
 8075WAT      O24466   2.562   2.985   7.583
 8075WAT     H124467   2.642   3.023   7.630
 8075WAT     H224468   2.591   2.944   7.497
 8076WAT      O24469   8.115   3.918   3.722
 8076WAT     H124470   8.029   3.892   3.678
 8076WAT     H224471   8.124   3.869   3.809
 8077WAT      O24472   1.123   5.649   9.066
 8077WAT     H124473   1.093   5.573   9.009
 8077WAT     H224474   1.197   5.698   9.020
 8078WAT      O24475   5.835   1.089   1.837
 8078WAT     H124476   5.736   1.076   1.832
 8078WAT     H224477   5.857   1.159   1.905
 8079WAT      O24478   5.723   2.945   9.050
 8079WAT     H124479   5.739   3.027   8.996
 8079WAT     H224480   5.758   2.865   9.000
 8080WAT      O24481   5.490   9.550   8.063
 8080WAT     H124482   5.433   9.627   8.036
 8080WAT     H224483   5.447   9.465   8.033
 8081WAT      O24484   6.894   7.944   3.389
 8081WAT     H124485   6.895   7.885   3.309
 8081WAT     H224486   6.987   7.979   3.406
 8082WAT      O24487   8.156   8.562   4.355
 8082WAT     H124488   8.101   8.506   4.417
 8082WAT     H224489   8.106   8.647   4.334
 8083WAT      O24490   4.193   7.205   9.394
 8083WAT     H124491   4.211   7.184   9.490
 8083WAT     H224492   4.154   7.125   9.348
 8084WAT      O24493   0.463   0.363   4.799
 8084WAT     H124494   0.514   0.440   4.838
 8084WAT     H224495   0.366   0.371   4.822
 8085WAT      O24496   6.641   2.883   4.747
 8085WAT     H124497   6.625   2.786   4.765
 8085WAT     H224498   6.612   2.936   4.826
 8086WAT      O24499   1.930   9.629   1.380
 8086WAT     H124500   1.857   9.664   1.320
 8086WAT     H224501   1.914   9.532   1.398
 8087WAT      O24502   2.119   1.538   5.728
 8087WAT     H124503   2.155   1.474   5.796
 8087WAT     H224504   2.156   1.515   5.637
 8088WAT      O24505   0.778   3.601   9.437
 8088WAT     H124506   0.709   3.659   9.393
 8088WAT     H224507   0.747   3.506   9.438
 8089WAT      O24508   5.388   1.579   4.072
 8089WAT     H124509   5.300   1.550   4.034
 8089WAT     H224510   5.415   1.517   4.146
 8090WAT      O24511   1.367   6.729   0.628
 8090WAT     H124512   1.412   6.644   0.600
 8090WAT     H224513   1.364   6.734   0.728
 8091WAT      O24514   8.512   7.230   8.593
 8091WAT     H124515   8.481   7.204   8.685
 8091WAT     H224516   8.575   7.161   8.558
 8092WAT      O24517   3.645   1.535   3.225
 8092WAT     H124518   3.608   1.622   3.194
 8092WAT     H224519   3.680   1.483   3.146
 8093WAT      O24520   1.302   6.797   4.814
 8093WAT     H124521   1.348   6.725   4.865
 8093WAT     H224522   1.254   6.858   4.878
 8094WAT      O24523   8.985   5.699   3.436
 8094WAT     H124524   8.960   5.602   3.435
 8094WAT     H224525   9.081   5.709   3.459
 8095WAT      O24526   0.307   1.188   7.429
 8095WAT     H124527   0.389   1.193   7.373
 8095WAT     H224528   0.330   1.211   7.524
 8096WAT      O24529   8.535   9.654   2.883
 8096WAT     H124530   8.435   9.656   2.876
 8096WAT     H224531   8.569   9.748   2.890
 8097WAT      O24532   8.205   1.596   0.801
 8097WAT     H124533   8.192   1.514   0.745
 8097WAT     H224534   8.116   1.628   0.835
 8098WAT      O24535   3.414   5.751   1.407
 8098WAT     H124536   3.395   5.806   1.488
 8098WAT     H224537   3.408   5.654   1.431
 8099WAT      O24538   5.792   3.289   9.261
 8099WAT     H124539   5.841   3.372   9.286
 8099WAT     H224540   5.749   3.301   9.172
 8100WAT      O24541   5.738   5.452   9.686
 8100WAT     H124542   5.686   5.393   9.624
 8100WAT     H224543   5.810   5.398   9.730
 8101WAT      O24544   3.134   2.619   3.812
 8101WAT     H124545   3.176   2.530   3.793
 8101WAT     H224546   3.184   2.664   3.886
 8102WAT      O24547   9.824   5.231   1.544
 8102WAT     H124548   9.859   5.207   1.454
 8102WAT     H224549   9.773   5.154   1.581
 8103WAT      O24550   5.572   9.040   7.712
 8103WAT     H124551   5.624   9.077   7.635
 8103WAT     H224552   5.624   9.052   7.796
 8104WAT      O24553   8.646   2.650   9.140
 8104WAT     H124554   8.572   2.706   9.175
 8104WAT     H224555   8.671   2.581   9.209
 8105WAT      O24556   6.123   7.109   8.432
 8105WAT     H124557   6.209   7.058   8.431
 8105WAT     H224558   6.047   7.046   8.449
 8106WAT      O24559   2.612   7.176   4.815
 8106WAT     H124560   2.632   7.230   4.734
 8106WAT     H224561   2.675   7.099   4.821
 8107WAT      O24562   6.170   6.684   0.210
 8107WAT     H124563   6.144   6.647   0.299
 8107WAT     H224564   6.114   6.765   0.190
 8108WAT      O24565   9.890   6.137   6.190
 8108WAT     H124566   9.901   6.225   6.236
 8108WAT     H224567   9.796   6.128   6.157
 8109WAT      O24568   7.381   3.146   4.926
 8109WAT     H124569   7.481   3.139   4.932
 8109WAT     H224570   7.354   3.242   4.932
 8110WAT      O24571   2.997   6.916   0.362
 8110WAT     H124572   2.952   6.831   0.390
 8110WAT     H224573   2.965   6.991   0.419
 8111WAT      O24574   5.445   6.861   0.590
 8111WAT     H124575   5.414   6.808   0.669
 8111WAT     H224576   5.534   6.826   0.560
 8112WAT      O24577   3.990   8.133   4.728
 8112WAT     H124578   4.043   8.049   4.710
 8112WAT     H224579   4.041   8.192   4.790
 8113WAT      O24580   7.655   5.092   5.164
 8113WAT     H124581   7.656   5.190   5.145
 8113WAT     H224582   7.655   5.041   5.078
 8114WAT      O24583   8.877   4.517   7.366
 8114WAT     H124584   8.942   4.582   7.406
 8114WAT     H224585   8.840   4.459   7.439
 8115WAT      O24586   2.418   6.368   2.872
 8115WAT     H124587   2.392   6.379   2.968
 8115WAT     H224588   2.370   6.436   2.816
 8116WAT      O24589   7.988   5.676   6.267
 8116WAT     H124590   8.034   5.632   6.191
 8116WAT     H224591   8.022   5.770   6.277
 8117WAT      O24592   7.012   8.438   0.095
 8117WAT     H124593   6.958   8.429   0.012
 8117WAT     H224594   6.951   8.446   0.174
 8118WAT      O24595   6.727   3.817   8.009
 8118WAT     H124596   6.757   3.807   7.914
 8118WAT     H224597   6.806   3.844   8.065
 8119WAT      O24598   3.013   3.440   4.834
 8119WAT     H124599   2.998   3.534   4.804
 8119WAT     H224600   3.088   3.400   4.782
 8120WAT      O24601   8.545   2.901   7.132
 8120WAT     H124602   8.474   2.848   7.180
 8120WAT     H224603   8.589   2.843   7.063
 8121WAT      O24604   0.301   1.838   3.057
 8121WAT     H124605   0.350   1.782   3.124
 8121WAT     H224606   0.316   1.935   3.078
 8122WAT      O24607   8.489   6.930   0.423
 8122WAT     H124608   8.522   6.837   0.405
 8122WAT     H224609   8.567   6.990   0.442
 8123WAT      O24610   8.211   2.537   6.754
 8123WAT     H124611   8.207   2.450   6.704
 8123WAT     H224612   8.125   2.552   6.802
 8124WAT      O24613   2.329   9.332   8.224
 8124WAT     H124614   2.405   9.341   8.287
 8124WAT     H224615   2.346   9.256   8.161
 8125WAT      O24616   6.817   2.598   8.468
 8125WAT     H124617   6.744   2.657   8.503
 8125WAT     H224618   6.835   2.620   8.372
 8126WAT      O24619   5.992   7.355   6.922
 8126WAT     H124620   5.906   7.342   6.971
 8126WAT     H224621   6.037   7.438   6.956
 8127WAT      O24622   3.043   9.436   0.701
 8127WAT     H124623   3.005   9.525   0.677
 8127WAT     H224624   3.142   9.437   0.689
 8128WAT      O24625   4.613   0.165   2.073
 8128WAT     H124626   4.599   0.131   1.980
 8128WAT     H224627   4.683   0.110   2.118
 8129WAT      O24628   8.086   3.566   3.255
 8129WAT     H124629   8.060   3.634   3.186
 8129WAT     H224630   8.142   3.495   3.212
 8130WAT      O24631   7.559   7.128   8.929
 8130WAT     H124632   7.647   7.091   8.958
 8130WAT     H224633   7.520   7.185   9.001
 8131WAT      O24634   4.580   3.447   9.335
 8131WAT     H124635   4.629   3.528   9.302
 8131WAT     H224636   4.520   3.473   9.411
 8132WAT      O24637   1.106   6.939   1.021
 8132WAT     H124638   1.182   7.004   1.029
 8132WAT     H224639   1.052   6.941   1.105
 8133WAT      O24640   4.178   4.915   2.188
 8133WAT     H124641   4.106   4.940   2.123
 8133WAT     H224642   4.168   4.819   2.213
 8134WAT      O24643   0.188   2.685   9.393
 8134WAT     H124644   0.148   2.680   9.485
 8134WAT     H224645   0.181   2.596   9.348
 8135WAT      O24646   7.214   6.923   5.640
 8135WAT     H124647   7.227   7.000   5.703
 8135WAT     H224648   7.233   6.952   5.546
 8136WAT      O24649   8.203   4.045   5.277
 8136WAT     H124650   8.123   4.024   5.334
 8136WAT     H224651   8.175   4.051   5.182
 8137WAT      O24652   6.417   0.474   2.899
 8137WAT     H124653   6.376   0.400   2.953
 8137WAT     H224654   6.355   0.500   2.825
 8138WAT      O24655   8.035   7.679   9.613
 8138WAT     H124656   8.009   7.603   9.673
 8138WAT     H224657   7.962   7.748   9.613
 8139WAT      O24658   8.941   1.433   5.826
 8139WAT     H124659   8.990   1.348   5.809
 8139WAT     H224660   8.878   1.450   5.750
 8140WAT      O24661   5.240   0.773   0.007
 8140WAT     H124662   5.255   0.741  -0.087
 8140WAT     H224663   5.177   0.710   0.053
 8141WAT      O24664   1.692   8.322   0.125
 8141WAT     H124665   1.790   8.331   0.144
 8141WAT     H224666   1.668   8.380   0.046
 8142WAT      O24667   3.504   2.927   6.494
 8142WAT     H124668   3.583   2.986   6.483
 8142WAT     H224669   3.524   2.836   6.457
 8143WAT      O24670   2.408   3.047   4.299
 8143WAT     H124671   2.432   3.093   4.384
 8143WAT     H224672   2.355   3.109   4.241
 8144WAT      O24673   0.588   9.051   6.636
 8144WAT     H124674   0.675   9.086   6.670
 8144WAT     H224675   0.600   8.956   6.605
 8145WAT      O24676   3.450   9.608   6.683
 8145WAT     H124677   3.384   9.631   6.754
 8145WAT     H224678   3.507   9.531   6.714
 8146WAT      O24679   6.972   3.634   8.822
 8146WAT     H124680   7.069   3.642   8.797
 8146WAT     H224681   6.956   3.681   8.909
 8147WAT      O24682   2.773   7.818   3.715
 8147WAT     H124683   2.702   7.750   3.697
 8147WAT     H224684   2.731   7.906   3.733
 8148WAT      O24685   0.770   8.738   2.125
 8148WAT     H124686   0.734   8.683   2.199
 8148WAT     H224687   0.704   8.811   2.102
 8149WAT      O24688   4.687   0.265   9.897
 8149WAT     H124689   4.620   0.272   9.823
 8149WAT     H224690   4.779   0.271   9.858
 8150WAT      O24691   8.140   3.105   4.563
 8150WAT     H124692   8.118   3.177   4.496
 8150WAT     H224693   8.058   3.079   4.613
 8151WAT      O24694   1.990   8.491   4.652
 8151WAT     H124695   1.959   8.440   4.732
 8151WAT     H224696   2.086   8.516   4.664
 8152WAT      O24697   8.672   6.011   9.400
 8152WAT     H124698   8.652   6.027   9.304
 8152WAT     H224699   8.702   5.916   9.413
 8153WAT      O24700   7.540   7.218   4.304
 8153WAT     H124701   7.600   7.297   4.318
 8153WAT     H224702   7.449   7.239   4.340
 8154WAT      O24703   7.994   2.038   5.457
 8154WAT     H124704   8.063   2.049   5.385
 8154WAT     H224705   7.940   1.956   5.438
 8155WAT      O24706   1.141   6.125   7.458
 8155WAT     H124707   1.217   6.183   7.488
 8155WAT     H224708   1.168   6.071   7.379
 8156WAT      O24709   3.448   1.110   0.273
 8156WAT     H124710   3.503   1.193   0.260
 8156WAT     H224711   3.493   1.033   0.227
 8157WAT      O24712   2.964   5.029   7.157
 8157WAT     H124713   3.020   4.985   7.228
 8157WAT     H224714   2.924   5.112   7.195
 8158WAT      O24715   6.860   9.745   2.635
 8158WAT     H124716   6.827   9.803   2.710
 8158WAT     H224717   6.867   9.800   2.551
 8159WAT      O24718   8.160   5.990   9.660
 8159WAT     H124719   8.092   6.023   9.594
 8159WAT     H224720   8.238   5.952   9.611
 8160WAT      O24721   0.122   6.735   4.451
 8160WAT     H124722   0.039   6.785   4.476
 8160WAT     H224723   0.097   6.652   4.400
 8161WAT      O24724   5.687   1.699   8.190
 8161WAT     H124725   5.702   1.717   8.287
 8161WAT     H224726   5.775   1.680   8.146
 8162WAT      O24727   4.770   2.658   8.469
 8162WAT     H124728   4.818   2.589   8.416
 8162WAT     H224729   4.716   2.613   8.541
 8163WAT      O24730   3.181   3.480   2.435
 8163WAT     H124731   3.196   3.388   2.398
 8163WAT     H224732   3.221   3.548   2.374
 8164WAT      O24733   4.722   5.853   6.381
 8164WAT     H124734   4.805   5.799   6.376
 8164WAT     H224735   4.730   5.933   6.321
 8165WAT      O24736   9.209   0.587   5.685
 8165WAT     H124737   9.200   0.500   5.636
 8165WAT     H224738   9.291   0.635   5.653
 8166WAT      O24739   6.199   2.206   2.600
 8166WAT     H124740   6.255   2.132   2.639
 8166WAT     H224741   6.155   2.174   2.516
 8167WAT      O24742   9.684   9.821   6.022
 8167WAT     H124743   9.765   9.825   5.964
 8167WAT     H224744   9.602   9.823   5.965
 8168WAT      O24745   8.024   1.343   7.929
 8168WAT     H124746   8.035   1.322   8.026
 8168WAT     H224747   8.037   1.440   7.914
 8169WAT      O24748   6.701   9.535   8.350
 8169WAT     H124749   6.693   9.499   8.257
 8169WAT     H224750   6.797   9.538   8.377
 8170WAT      O24751   3.358   7.507   5.679
 8170WAT     H124752   3.297   7.499   5.757
 8170WAT     H224753   3.332   7.440   5.609
 8171WAT      O24754   4.379   0.754   8.942
 8171WAT     H124755   4.418   0.663   8.923
 8171WAT     H224756   4.454   0.820   8.954
 8172WAT      O24757   8.420   4.681   1.162
 8172WAT     H124758   8.422   4.768   1.112
 8172WAT     H224759   8.503   4.673   1.217
 8173WAT      O24760   5.612   3.395   6.937
 8173WAT     H124761   5.680   3.425   6.869
 8173WAT     H224762   5.542   3.465   6.948
 8174WAT      O24763   6.506   1.908   3.239
 8174WAT     H124764   6.579   1.944   3.297
 8174WAT     H224765   6.426   1.887   3.296
 8175WAT      O24766   1.289   6.168   3.635
 8175WAT     H124767   1.384   6.138   3.644
 8175WAT     H224768   1.229   6.088   3.633
 8176WAT      O24769   4.875   6.180   6.705
 8176WAT     H124770   4.794   6.197   6.649
 8176WAT     H224771   4.941   6.126   6.653
 8177WAT      O24772   7.809   7.259   0.610
 8177WAT     H124773   7.886   7.322   0.621
 8177WAT     H224774   7.801   7.232   0.514
 8178WAT      O24775   5.689   8.001   3.274
 8178WAT     H124776   5.668   7.985   3.371
 8178WAT     H224777   5.695   8.099   3.257
 8179WAT      O24778   9.336   1.304   6.523
 8179WAT     H124779   9.339   1.307   6.623
 8179WAT     H224780   9.243   1.326   6.492
 8180WAT      O24781   6.180   3.351   2.297
 8180WAT     H124782   6.090   3.394   2.308
 8180WAT     H224783   6.199   3.337   2.200
 8181WAT      O24784   6.738   4.057   0.958
 8181WAT     H124785   6.781   4.087   1.043
 8181WAT     H224786   6.777   4.109   0.881
 8182WAT      O24787   2.409   1.961   7.175
 8182WAT     H124788   2.347   1.904   7.121
 8182WAT     H224789   2.376   2.055   7.175
 8183WAT      O24790   9.668   4.782   1.261
 8183WAT     H124791   9.688   4.813   1.354
 8183WAT     H224792   9.577   4.741   1.258
 8184WAT      O24793   0.070   0.005   6.381
 8184WAT     H124794   0.121   0.059   6.448
 8184WAT     H224795   0.032   0.067   6.312
 8185WAT      O24796   6.535   5.878   8.617
 8185WAT     H124797   6.463   5.890   8.685
 8185WAT     H224798   6.578   5.967   8.598
 8186WAT      O24799   8.291   2.609   8.608
 8186WAT     H124800   8.199   2.573   8.590
 8186WAT     H224801   8.359   2.544   8.574
 8187WAT      O24802   1.549   2.802   3.952
 8187WAT     H124803   1.508   2.874   3.894
 8187WAT     H224804   1.505   2.715   3.932
 8188WAT      O24805   2.000   5.794   6.962
 8188WAT     H124806   1.977   5.889   6.943
 8188WAT     H224807   1.942   5.759   7.035
 8189WAT      O24808   6.560   3.886   3.996
 8189WAT     H124809   6.511   3.847   4.074
 8189WAT     H224810   6.640   3.936   4.028
 8190WAT      O24811   0.347   0.018   7.608
 8190WAT     H124812   0.276   0.088   7.619
 8190WAT     H224813   0.393   0.004   7.696
 8191WAT      O24814   5.929   5.204   1.293
 8191WAT     H124815   5.860   5.242   1.356
 8191WAT     H224816   5.915   5.243   1.202
 8192WAT      O24817   9.775   3.423   4.334
 8192WAT     H124818   9.804   3.511   4.371
 8192WAT     H224819   9.793   3.351   4.401
 8193WAT      O24820   7.165   0.421   1.618
 8193WAT     H124821   7.232   0.469   1.560
 8193WAT     H224822   7.076   0.467   1.609
 8194WAT      O24823   9.603   8.703   5.013
 8194WAT     H124824   9.653   8.630   4.966
 8194WAT     H224825   9.568   8.768   4.946
 8195WAT      O24826   1.508   8.476   5.065
 8195WAT     H124827   1.559   8.400   5.106
 8195WAT     H224828   1.444   8.513   5.132
 8196WAT      O24829   0.248   4.577   4.185
 8196WAT     H124830   0.243   4.676   4.175
 8196WAT     H224831   0.159   4.536   4.165
 8197WAT      O24832   8.087   4.499   7.515
 8197WAT     H124833   8.165   4.509   7.577
 8197WAT     H224834   8.087   4.406   7.477
 8198WAT      O24835   3.128   8.664   2.722
 8198WAT     H124836   3.130   8.571   2.685
 8198WAT     H224837   3.175   8.666   2.810
 8199WAT      O24838   1.983   8.778   2.571
 8199WAT     H124839   1.990   8.761   2.473
 8199WAT     H224840   1.925   8.858   2.587
 8200WAT      O24841   6.430   3.784   4.983
 8200WAT     H124842   6.456   3.705   4.927
 8200WAT     H224843   6.469   3.867   4.943
 8201WAT      O24844   1.645   5.629   1.042
 8201WAT     H124845   1.575   5.664   1.104
 8201WAT     H224846   1.735   5.635   1.087
 8202WAT      O24847   7.085   8.595   5.147
 8202WAT     H124848   7.025   8.668   5.115
 8202WAT     H224849   7.036   8.536   5.212
 8203WAT      O24850   1.321   3.128   8.380
 8203WAT     H124851   1.278   3.081   8.457
 8203WAT     H224852   1.292   3.084   8.295
 8204WAT      O24853   6.958   3.803   6.730
 8204WAT     H124854   7.004   3.817   6.818
 8204WAT     H224855   6.917   3.711   6.729
 8205WAT      O24856   1.609   3.084   2.830
 8205WAT     H124857   1.557   2.999   2.825
 8205WAT     H224858   1.603   3.122   2.922
 8206WAT      O24859   5.636   1.954   7.299
 8206WAT     H124860   5.705   1.953   7.227
 8206WAT     H224861   5.588   1.866   7.301
 8207WAT      O24862   0.536   3.988   7.150
 8207WAT     H124863   0.508   3.993   7.054
 8207WAT     H224864   0.467   4.030   7.207
 8208WAT      O24865   8.445   7.703   6.563
 8208WAT     H124866   8.452   7.802   6.551
 8208WAT     H224867   8.356   7.672   6.530
 8209WAT      O24868   7.306   5.200   7.373
 8209WAT     H124869   7.380   5.144   7.334
 8209WAT     H224870   7.228   5.142   7.393
 8210WAT      O24871   3.050   9.337   4.016
 8210WAT     H124872   3.055   9.238   4.033
 8210WAT     H224873   3.048   9.353   3.917
 8211WAT      O24874   8.944   2.284   4.102
 8211WAT     H124875   9.026   2.278   4.160
 8211WAT     H224876   8.911   2.192   4.081
 8212WAT      O24877   4.468   2.987   2.318
 8212WAT     H124878   4.472   3.039   2.403
 8212WAT     H224879   4.559   2.981   2.278
 8213WAT      O24880   3.011   3.458   3.943
 8213WAT     H124881   3.006   3.536   4.005
 8213WAT     H224882   2.919   3.435   3.911
 8214WAT      O24883   8.207   1.580   2.122
 8214WAT     H124884   8.242   1.496   2.081
 8214WAT     H224885   8.123   1.608   2.075
 8215WAT      O24886   5.454   0.494   2.983
 8215WAT     H124887   5.390   0.515   3.056
 8215WAT     H224888   5.519   0.425   3.014
 8216WAT      O24889   5.595   0.941   3.289
 8216WAT     H124890   5.564   0.879   3.217
 8216WAT     H224891   5.552   0.916   3.375
 8217WAT      O24892   4.426   4.318   7.775
 8217WAT     H124893   4.367   4.373   7.835
 8217WAT     H224894   4.372   4.245   7.734
 8218WAT      O24895   2.766   8.944   5.036
 8218WAT     H124896   2.778   9.034   4.995
 8218WAT     H224897   2.829   8.879   4.993
 8219WAT      O24898   9.176   0.560   3.380
 8219WAT     H124899   9.215   0.481   3.428
 8219WAT     H224900   9.221   0.572   3.292
 8220WAT      O24901   3.930   1.807   3.431
 8220WAT     H124902   3.965   1.900   3.443
 8220WAT     H224903   3.977   1.763   3.354
 8221WAT      O24904   3.979   5.294   1.133
 8221WAT     H124905   3.900   5.353   1.115
 8221WAT     H224906   4.047   5.305   1.061
 8222WAT      O24907   9.735   4.249   0.611
 8222WAT     H124908   9.749   4.153   0.585
 8222WAT     H224909   9.706   4.254   0.706
 8223WAT      O24910   8.874   6.736   6.378
 8223WAT     H124911   8.945   6.750   6.310
 8223WAT     H224912   8.833   6.823   6.403
 8224WAT      O24913   7.923   1.899   6.269
 8224WAT     H124914   8.003   1.843   6.291
 8224WAT     H224915   7.898   1.954   6.349
 8225WAT      O24916   9.584   8.163   7.630
 8225WAT     H124917   9.610   8.260   7.626
 8225WAT     H224918   9.654   8.113   7.681
 8226WAT      O24919   1.481   5.108   4.151
 8226WAT     H124920   1.543   5.148   4.219
 8226WAT     H224921   1.455   5.179   4.085
 8227WAT      O24922   5.598   1.268   2.664
 8227WAT     H124923   5.588   1.347   2.604
 8227WAT     H224924   5.694   1.240   2.667
 8228WAT      O24925   3.113   0.392   5.056
 8228WAT     H124926   3.119   0.457   4.981
 8228WAT     H224927   3.197   0.394   5.110
 8229WAT      O24928   2.779   0.762   3.074
 8229WAT     H124929   2.722   0.699   3.127
 8229WAT     H224930   2.729   0.789   2.991
 8230WAT      O24931   1.145   7.964   7.291
 8230WAT     H124932   1.159   7.916   7.377
 8230WAT     H224933   1.055   8.008   7.291
 8231WAT      O24934   3.962   0.138   0.884
 8231WAT     H124935   4.038   0.132   0.948
 8231WAT     H224936   3.961   0.058   0.824
 8232WAT      O24937   0.381   1.648   9.336
 8232WAT     H124938   0.410   1.681   9.246
 8232WAT     H224939   0.456   1.660   9.401
 8233WAT      O24940   4.960   5.721   7.172
 8233WAT     H124941   4.912   5.784   7.233
 8233WAT     H224942   4.893   5.670   7.117
 8234WAT      O24943   7.708   5.248   4.065
 8234WAT     H124944   7.677   5.298   4.146
 8234WAT     H224945   7.731   5.313   3.993
 8235WAT      O24946   3.309   0.940   3.402
 8235WAT     H124947   3.364   0.933   3.485
 8235WAT     H224948   3.218   0.973   3.426
 8236WAT      O24949   7.102   2.866   8.922
 8236WAT     H124950   7.003   2.882   8.917
 8236WAT     H224951   7.138   2.908   9.005
 8237WAT      O24952   0.556   3.106   3.214
 8237WAT     H124953   0.506   3.051   3.148
 8237WAT     H224954   0.499   3.182   3.245
 8238WAT      O24955   6.494   4.833   4.987
 8238WAT     H124956   6.444   4.797   5.066
 8238WAT     H224957   6.587   4.858   5.015
 8239WAT      O24958   4.612   5.328   8.445
 8239WAT     H124959   4.697   5.291   8.480
 8239WAT     H224960   4.630   5.414   8.396
 8240WAT      O24961   9.119   7.014   6.780
 8240WAT     H124962   9.056   7.084   6.814
 8240WAT     H224963   9.079   6.924   6.794
 8241WAT      O24964   8.226   9.522   1.747
 8241WAT     H124965   8.288   9.597   1.724
 8241WAT     H224966   8.242   9.493   1.841
 8242WAT      O24967   2.945   8.422   5.588
 8242WAT     H124968   2.876   8.352   5.569
 8242WAT     H224969   2.980   8.458   5.501
 8243WAT      O24970   8.309   6.761   9.028
 8243WAT     H124971   8.365   6.683   9.054
 8243WAT     H224972   8.214   6.732   9.016
 8244WAT      O24973   7.869   6.490   4.427
 8244WAT     H124974   7.798   6.560   4.437
 8244WAT     H224975   7.944   6.509   4.489
 8245WAT      O24976   2.877   8.937   3.311
 8245WAT     H124977   2.894   8.955   3.214
 8245WAT     H224978   2.869   8.839   3.325
 8246WAT      O24979   9.750   8.528   7.052
 8246WAT     H124980   9.666   8.525   7.106
 8246WAT     H224981   9.782   8.435   7.034
 8247WAT      O24982   1.061   5.101   4.011
 8247WAT     H124983   1.093   5.014   4.047
 8247WAT     H224984   1.045   5.093   3.912
 8248WAT      O24985   8.908   4.489   9.194
 8248WAT     H124986   8.881   4.582   9.217
 8248WAT     H224987   9.002   4.489   9.159
 8249WAT      O24988   1.435   4.421   1.310
 8249WAT     H124989   1.476   4.355   1.247
 8249WAT     H224990   1.348   4.386   1.343
 8250WAT      O24991   2.175   0.878   0.446
 8250WAT     H124992   2.097   0.820   0.425
 8250WAT     H224993   2.143   0.969   0.473
 8251WAT      O24994   7.821   3.567   6.112
 8251WAT     H124995   7.881   3.640   6.145
 8251WAT     H224996   7.726   3.590   6.132
 8252WAT      O24997   5.018   6.608   9.657
 8252WAT     H124998   5.062   6.606   9.747
 8252WAT     H224999   5.018   6.516   9.618
 8253WAT      O25000   4.706   3.622   7.737
 8253WAT     H125001   4.640   3.614   7.811
 8253WAT     H225002   4.712   3.717   7.706
 8254WAT      O25003   7.129   3.101   2.389
 8254WAT     H125004   7.089   3.146   2.469
 8254WAT     H225005   7.056   3.069   2.328
 8255WAT      O25006   9.294   0.977   0.945
 8255WAT     H125007   9.317   0.945   0.853
 8255WAT     H225008   9.357   0.936   1.011
 8256WAT      O25009   3.879   4.515   1.513
 8256WAT     H125010   3.923   4.426   1.523
 8256WAT     H225011   3.798   4.519   1.570
 8257WAT      O25012   2.439   4.176   3.437
 8257WAT     H125013   2.500   4.253   3.456
 8257WAT     H225014   2.355   4.186   3.490
 8258WAT      O25015   3.158   4.557   2.539
 8258WAT     H125016   3.124   4.566   2.445
 8258WAT     H225017   3.216   4.636   2.561
 8259WAT      O25018   1.454   6.738   6.467
 8259WAT     H125019   1.397   6.725   6.386
 8259WAT     H225020   1.496   6.651   6.492
 8260WAT      O25021   5.861   3.162   3.531
 8260WAT     H125022   5.778   3.218   3.535
 8260WAT     H225023   5.836   3.069   3.504
 8261WAT      O25024   4.020   6.845   7.748
 8261WAT     H125025   4.005   6.746   7.745
 8261WAT     H225026   3.973   6.884   7.828
 8262WAT      O25027   5.585   1.356   2.077
 8262WAT     H125028   5.502   1.408   2.093
 8262WAT     H225029   5.594   1.285   2.147
 8263WAT      O25030   4.074   9.376   1.234
 8263WAT     H125031   4.028   9.333   1.312
 8263WAT     H225032   4.087   9.309   1.161
 8264WAT      O25033   1.568   5.901   2.884
 8264WAT     H125034   1.498   5.966   2.914
 8264WAT     H225035   1.525   5.828   2.831
 8265WAT      O25036   5.817   4.819   6.064
 8265WAT     H125037   5.755   4.741   6.056
 8265WAT     H225038   5.840   4.833   6.161
 8266WAT      O25039   8.704   2.758   3.028
 8266WAT     H125040   8.802   2.780   3.022
 8266WAT     H225041   8.689   2.698   3.106
 8267WAT      O25042   4.138   8.375   2.400
 8267WAT     H125043   4.105   8.468   2.384
 8267WAT     H225044   4.092   8.336   2.479
 8268WAT      O25045   9.040   0.467   6.878
 8268WAT     H125046   9.010   0.451   6.972
 8268WAT     H225047   9.137   0.492   6.878
 8269WAT      O25048   1.332   8.959   4.254
 8269WAT     H125049   1.372   8.911   4.176
 8269WAT     H225050   1.356   8.911   4.338
 8270WAT      O25051   0.185   3.192   8.349
 8270WAT     H125052   0.209   3.255   8.275
 8270WAT     H225053   0.190   3.098   8.314
 8271WAT      O25054   9.132   5.442   4.312
 8271WAT     H125055   9.104   5.538   4.312
 8271WAT     H225056   9.185   5.422   4.394
 8272WAT      O25057   9.147   8.373   2.210
 8272WAT     H125058   9.142   8.324   2.123
 8272WAT     H225059   9.166   8.470   2.193
 8273WAT      O25060   3.070   7.844   8.444
 8273WAT     H125061   3.013   7.833   8.363
 8273WAT     H225062   3.031   7.793   8.520
 8274WAT      O25063   1.299   3.640   0.580
 8274WAT     H125064   1.330   3.735   0.576
 8274WAT     H225065   1.286   3.613   0.676
 8275WAT      O25066   6.694   3.473   0.767
 8275WAT     H125067   6.624   3.407   0.738
 8275WAT     H225068   6.651   3.561   0.786
 8276WAT      O25069   4.242   1.130   3.213
 8276WAT     H125070   4.307   1.097   3.144
 8276WAT     H225071   4.240   1.230   3.212
 8277WAT      O25072   9.335   0.835   0.722
 8277WAT     H125073   9.425   0.796   0.700
 8277WAT     H225074   9.297   0.877   0.640
 8278WAT      O25075   3.069   3.355   2.914
 8278WAT     H125076   3.020   3.313   2.990
 8278WAT     H225077   3.164   3.374   2.941
 8279WAT      O25078   0.969   1.458   4.635
 8279WAT     H125079   0.978   1.369   4.589
 8279WAT     H225080   0.951   1.529   4.566
 8280WAT      O25081   7.569   5.841   4.786
 8280WAT     H125082   7.568   5.776   4.861
 8280WAT     H225083   7.663   5.867   4.765
 8281WAT      O25084   1.031   1.500   8.884
 8281WAT     H125085   1.094   1.540   8.817
 8281WAT     H225086   0.949   1.467   8.836
 8282WAT      O25087   0.289   7.033   8.493
 8282WAT     H125088   0.282   7.069   8.400
 8282WAT     H225089   0.361   7.080   8.542
 8283WAT      O25090   1.240   7.674   8.924
 8283WAT     H125091   1.340   7.674   8.925
 8283WAT     H225092   1.208   7.662   8.830
 8284WAT      O25093   7.358   7.893   4.200
 8284WAT     H125094   7.287   7.832   4.235
 8284WAT     H225095   7.399   7.853   4.118
 8285WAT      O25096   9.078   8.575   1.602
 8285WAT     H125097   9.016   8.582   1.679
 8285WAT     H225098   9.028   8.540   1.522
 8286WAT      O25099   8.318   7.335   0.885
 8286WAT     H125100   8.233   7.292   0.853
 8286WAT     H225101   8.321   7.331   0.985
 8287WAT      O25102   7.585   4.751   7.145
 8287WAT     H125103   7.572   4.776   7.049
 8287WAT     H225104   7.499   4.720   7.184
 8288WAT      O25105   5.502   0.183   5.214
 8288WAT     H125106   5.413   0.190   5.259
 8288WAT     H225107   5.520   0.266   5.161
 8289WAT      O25108   9.526   2.325   1.721
 8289WAT     H125109   9.480   2.375   1.794
 8289WAT     H225110   9.545   2.232   1.753
 8290WAT      O25111   3.186   0.368   8.552
 8290WAT     H125112   3.112   0.333   8.495
 8290WAT     H225113   3.155   0.372   8.647
 8291WAT      O25114   1.763   8.974   5.164
 8291WAT     H125115   1.798   8.880   5.170
 8291WAT     H225116   1.717   8.998   5.249
 8292WAT      O25117   9.134   6.975   4.567
 8292WAT     H125118   9.166   6.904   4.504
 8292WAT     H225119   9.058   6.939   4.621
 8293WAT      O25120   3.957   2.970   9.107
 8293WAT     H125121   3.909   3.004   9.188
 8293WAT     H225122   4.030   2.909   9.136
 8294WAT      O25123   0.079   6.586   7.036
 8294WAT     H125124   0.078   6.526   6.956
 8294WAT     H225125   0.011   6.555   7.102
 8295WAT      O25126   7.677   4.827   5.039
 8295WAT     H125127   7.757   4.830   5.099
 8295WAT     H225128   7.629   4.740   5.052
 8296WAT      O25129   0.668   8.612   0.260
 8296WAT     H125130   0.738   8.583   0.194
 8296WAT     H225131   0.592   8.655   0.211
 8297WAT      O25132   9.484   0.279   3.243
 8297WAT     H125133   9.411   0.278   3.176
 8297WAT     H225134   9.551   0.350   3.219
 8298WAT      O25135   3.964   5.686   2.493
 8298WAT     H125136   3.930   5.764   2.546
 8298WAT     H225137   4.053   5.659   2.528
 8299WAT      O25138   2.371   5.593   4.833
 8299WAT     H125139   2.322   5.675   4.862
 8299WAT     H225140   2.306   5.517   4.824
 8300WAT      O25141   4.426   2.090   7.348
 8300WAT     H125142   4.409   2.186   7.373
 8300WAT     H225143   4.431   2.035   7.431
 8301WAT      O25144   2.600   5.811   1.049
 8301WAT     H125145   2.698   5.820   1.064
 8301WAT     H225146   2.552   5.836   1.133
 8302WAT      O25147   9.077   6.328   1.726
 8302WAT     H125148   9.098   6.425   1.719
 8302WAT     H225149   9.030   6.298   1.643
 8303WAT      O25150   4.570   0.329   6.522
 8303WAT     H125151   4.566   0.331   6.422
 8303WAT     H225152   4.488   0.283   6.558
 8304WAT      O25153   4.383   7.194   0.653
 8304WAT     H125154   4.470   7.151   0.628
 8304WAT     H225155   4.396   7.251   0.734
 8305WAT      O25156   0.774   2.862   0.226
 8305WAT     H125157   0.813   2.901   0.143
 8305WAT     H225158   0.675   2.856   0.217
 8306WAT      O25159   2.825   2.932   3.373
 8306WAT     H125160   2.768   2.976   3.304
 8306WAT     H225161   2.803   2.969   3.463
 8307WAT      O25162   4.723   4.657   2.109
 8307WAT     H125163   4.788   4.640   2.183
 8307WAT     H225164   4.630   4.652   2.146
 8308WAT      O25165   1.257   2.518   3.502
 8308WAT     H125166   1.185   2.568   3.550
 8308WAT     H225167   1.290   2.573   3.426
 8309WAT      O25168   7.943   2.570   4.488
 8309WAT     H125169   7.946   2.670   4.494
 8309WAT     H225170   8.035   2.533   4.497
 8310WAT      O25171   5.717   8.558   3.539
 8310WAT     H125172   5.676   8.623   3.603
 8310WAT     H225173   5.652   8.485   3.519
 8311WAT      O25174   2.050   2.739   8.610
 8311WAT     H125175   2.032   2.666   8.677
 8311WAT     H225176   2.087   2.698   8.527
 8312WAT      O25177   1.885   6.027   0.536
 8312WAT     H125178   1.954   6.009   0.606
 8312WAT     H225179   1.931   6.054   0.450
 8313WAT      O25180   8.161   3.852   7.043
 8313WAT     H125181   8.097   3.876   7.116
 8313WAT     H225182   8.220   3.777   7.073
 8314WAT      O25183   7.431   2.307   9.353
 8314WAT     H125184   7.342   2.348   9.374
 8314WAT     H225185   7.424   2.256   9.267
 8315WAT      O25186   9.208   3.395   3.576
 8315WAT     H125187   9.114   3.379   3.544
 8315WAT     H225188   9.270   3.399   3.497
 8316WAT      O25189   7.093   7.707   5.067
 8316WAT     H125190   7.138   7.633   5.117
 8316WAT     H225191   7.116   7.699   4.970
 8317WAT      O25192   4.576   6.492   4.651
 8317WAT     H125193   4.546   6.550   4.575
 8317WAT     H225194   4.539   6.527   4.736
 8318WAT      O25195   5.621   5.145   5.582
 8318WAT     H125196   5.682   5.164   5.505
 8318WAT     H225197   5.550   5.081   5.553
 8319WAT      O25198   4.973   4.416   3.839
 8319WAT     H125199   4.914   4.451   3.911
 8319WAT     H225200   4.992   4.319   3.856
 8320WAT      O25201   6.148   2.242   5.836
 8320WAT     H125202   6.148   2.192   5.749
 8320WAT     H225203   6.153   2.177   5.912
 8321WAT      O25204   7.550   6.249   2.532
 8321WAT     H125205   7.477   6.187   2.561
 8321WAT     H225206   7.626   6.245   2.598
 8322WAT      O25207   1.975   8.468   8.598
 8322WAT     H125208   2.033   8.395   8.563
 8322WAT     H225209   1.932   8.439   8.684
 8323WAT      O25210   7.451   4.016   4.176
 8323WAT     H125211   7.518   4.078   4.134
 8323WAT     H225212   7.364   4.065   4.189
 8324WAT      O25213   8.673   1.635   3.241
 8324WAT     H125214   8.615   1.579   3.182
 8324WAT     H225215   8.680   1.728   3.203
 8325WAT      O25216   4.770   7.303   5.950
 8325WAT     H125217   4.680   7.345   5.941
 8325WAT     H225218   4.799   7.306   6.046
 8326WAT      O25219   0.471   7.838   7.740
 8326WAT     H125220   0.456   7.745   7.708
 8326WAT     H225221   0.545   7.839   7.807
 8327WAT      O25222   4.578   2.103   8.592
 8327WAT     H125223   4.617   2.048   8.666
 8327WAT     H225224   4.479   2.109   8.603
 8328WAT      O25225   1.968   9.500   8.027
 8328WAT     H125226   2.048   9.531   8.080
 8328WAT     H225227   1.888   9.499   8.087
 8329WAT      O25228   5.983   4.108   0.297
 8329WAT     H125229   6.029   4.085   0.212
 8329WAT     H225230   5.908   4.172   0.279
 8330WAT      O25231   8.639   1.352   8.718
 8330WAT     H125232   8.692   1.411   8.780
 8330WAT     H225233   8.616   1.267   8.765
 8331WAT      O25234   7.587   6.532   8.039
 8331WAT     H125235   7.609   6.624   8.072
 8331WAT     H225236   7.672   6.481   8.024
 8332WAT      O25237   1.605   6.221   4.174
 8332WAT     H125238   1.516   6.180   4.196
 8332WAT     H225239   1.678   6.161   4.207
 8333WAT      O25240   9.359   7.491   7.318
 8333WAT     H125241   9.363   7.536   7.228
 8333WAT     H225242   9.309   7.405   7.310
 8334WAT      O25243   0.466   3.944   6.860
 8334WAT     H125244   0.403   4.000   6.807
 8334WAT     H225245   0.543   3.916   6.803
 8335WAT      O25246   7.185   1.658   1.297
 8335WAT     H125247   7.216   1.593   1.366
 8335WAT     H225248   7.151   1.609   1.217
 8336WAT      O25249   1.454   3.422   1.623
 8336WAT     H125250   1.370   3.420   1.678
 8336WAT     H225251   1.526   3.372   1.670
 8337WAT      O25252   9.407   3.825   2.416
 8337WAT     H125253   9.478   3.886   2.380
 8337WAT     H225254   9.318   3.869   2.408
 8338WAT      O25255   2.364   5.726   3.469
 8338WAT     H125256   2.307   5.668   3.528
 8338WAT     H225257   2.454   5.736   3.511
 8339WAT      O25258   5.148   2.366   2.320
 8339WAT     H125259   5.103   2.281   2.348
 8339WAT     H225260   5.125   2.438   2.385
 8340WAT      O25261   0.735   2.420   7.986
 8340WAT     H125262   0.751   2.467   8.073
 8340WAT     H225263   0.672   2.343   8.002
 8341WAT      O25264   4.490   0.739   2.809
 8341WAT     H125265   4.565   0.701   2.755
 8341WAT     H225266   4.435   0.665   2.847
 8342WAT      O25267   3.627   7.966   6.270
 8342WAT     H125268   3.711   7.917   6.245
 8342WAT     H225269   3.605   7.948   6.366
 8343WAT      O25270   3.640   7.952   3.121
 8343WAT     H125271   3.584   8.033   3.105
 8343WAT     H225272   3.707   7.971   3.192
 8344WAT      O25273   8.950   7.216   4.722
 8344WAT     H125274   8.973   7.292   4.661
 8344WAT     H225275   9.028   7.154   4.730
 8345WAT      O25276   0.722   1.674   2.840
 8345WAT     H125277   0.628   1.651   2.814
 8345WAT     H225278   0.780   1.676   2.759
 8346WAT      O25279   4.565   2.857   5.446
 8346WAT     H125280   4.572   2.956   5.431
 8346WAT     H225281   4.547   2.812   5.358
 8347WAT      O25282   6.524   3.653   5.745
 8347WAT     H125283   6.518   3.616   5.837
 8347WAT     H225284   6.523   3.753   5.749
 8348WAT      O25285   4.116   0.970   1.258
 8348WAT     H125286   4.038   0.918   1.293
 8348WAT     H225287   4.091   1.066   1.248
 8349WAT      O25288   0.739   1.941   6.365
 8349WAT     H125289   0.672   1.944   6.290
 8349WAT     H225290   0.760   2.034   6.395
 8350WAT      O25291   3.699   3.165   0.011
 8350WAT     H125292   3.687   3.066   0.019
 8350WAT     H225293   3.655   3.211   0.088
 8351WAT      O25294   5.330   2.753   0.245
 8351WAT     H125295   5.380   2.772   0.329
 8351WAT     H225296   5.285   2.664   0.253
 8352WAT      O25297   3.371   6.060   5.555
 8352WAT     H125298   3.281   6.023   5.574
 8352WAT     H225299   3.438   6.019   5.616
 8353WAT      O25300   7.237   2.373   5.535
 8353WAT     H125301   7.140   2.387   5.515
 8353WAT     H225302   7.291   2.405   5.457
 8354WAT      O25303   9.549   5.713   4.282
 8354WAT     H125304   9.472   5.729   4.344
 8354WAT     H225305   9.532   5.629   4.229
 8355WAT      O25306   3.996   5.057   1.668
 8355WAT     H125307   4.078   5.017   1.709
 8355WAT     H225308   3.915   5.029   1.720
 8356WAT      O25309   0.679   5.342   1.932
 8356WAT     H125310   0.649   5.383   1.845
 8356WAT     H225311   0.734   5.409   1.983
 8357WAT      O25312   7.534   2.830   4.425
 8357WAT     H125313   7.568   2.831   4.519
 8357WAT     H225314   7.482   2.746   4.409
 8358WAT      O25315   0.827   5.002   5.757
 8358WAT     H125316   0.845   5.024   5.661
 8358WAT     H225317   0.757   5.064   5.793
 8359WAT      O25318   0.265   2.887   3.467
 8359WAT     H125319   0.220   2.800   3.444
 8359WAT     H225320   0.222   2.925   3.549
 8360WAT      O25321   9.221   1.392   6.821
 8360WAT     H125322   9.223   1.490   6.843
 8360WAT     H225323   9.127   1.359   6.827
 8361WAT      O25324   1.562   5.216   1.287
 8361WAT     H125325   1.658   5.204   1.263
 8361WAT     H225326   1.519   5.127   1.298
 8362WAT      O25327   1.630   8.128   6.235
 8362WAT     H125328   1.532   8.133   6.253
 8362WAT     H225329   1.680   8.118   6.321
 8363WAT      O25330   4.291   0.345   0.814
 8363WAT     H125331   4.316   0.426   0.866
 8363WAT     H225332   4.267   0.271   0.876
 8364WAT      O25333   3.490   1.476   4.756
 8364WAT     H125334   3.431   1.425   4.818
 8364WAT     H225335   3.445   1.562   4.731
 8365WAT      O25336   3.618   9.200   5.023
 8365WAT     H125337   3.567   9.263   5.082
 8365WAT     H225338   3.616   9.108   5.063
 8366WAT      O25339   1.560   5.714   6.798
 8366WAT     H125340   1.544   5.724   6.896
 8366WAT     H225341   1.640   5.768   6.771
 8367WAT      O25342   5.493   9.829   8.241
 8367WAT     H125343   5.494   9.926   8.267
 8367WAT     H225344   5.469   9.773   8.320
 8368WAT      O25345   5.761   1.929   5.151
 8368WAT     H125346   5.839   1.923   5.214
 8368WAT     H225347   5.762   1.850   5.089
 8369WAT      O25348   1.452   7.071   7.953
 8369WAT     H125349   1.548   7.080   7.925
 8369WAT     H225350   1.438   6.981   7.995
 8370WAT      O25351   2.782   8.264   2.663
 8370WAT     H125352   2.766   8.336   2.595
 8370WAT     H225353   2.720   8.188   2.646
 8371WAT      O25354   1.775   2.156   2.790
 8371WAT     H125355   1.826   2.234   2.755
 8371WAT     H225356   1.768   2.086   2.719
 8372WAT      O25357   8.810   3.450   1.128
 8372WAT     H125358   8.897   3.493   1.103
 8372WAT     H225359   8.747   3.454   1.051
 8373WAT      O25360   1.129   2.681   5.679
 8373WAT     H125361   1.210   2.689   5.737
 8373WAT     H225362   1.155   2.694   5.584
 8374WAT      O25363   4.531   9.410   6.775
 8374WAT     H125364   4.441   9.401   6.819
 8374WAT     H225365   4.594   9.344   6.814
 8375WAT      O25366   3.468   4.274   0.480
 8375WAT     H125367   3.436   4.179   0.476
 8375WAT     H225368   3.533   4.284   0.556
 8376WAT      O25369   4.954   6.765   7.875
 8376WAT     H125370   4.995   6.770   7.784
 8376WAT     H225371   4.922   6.672   7.892
 8377WAT      O25372   1.143   4.664   7.222
 8377WAT     H125373   1.127   4.565   7.219
 8377WAT     H225374   1.213   4.685   7.290
 8378WAT      O25375   7.651   7.598   7.181
 8378WAT     H125376   7.620   7.623   7.273
 8378WAT     H225377   7.657   7.499   7.173
 8379WAT      O25378   1.618   0.654   1.965
 8379WAT     H125379   1.641   0.589   2.037
 8379WAT     H225380   1.702   0.683   1.919
 8380WAT      O25381   6.438   3.802   1.229
 8380WAT     H125382   6.470   3.860   1.154
 8380WAT     H225383   6.342   3.823   1.249
 8381WAT      O25384   2.016   4.935   2.475
 8381WAT     H125385   2.062   5.011   2.429
 8381WAT     H225386   2.083   4.865   2.499
 8382WAT      O25387   8.536   4.993   1.419
 8382WAT     H125388   8.543   4.955   1.327
 8382WAT     H225389   8.441   4.994   1.448
 8383WAT      O25390   0.294   1.154   5.206
 8383WAT     H125391   0.325   1.241   5.167
 8383WAT     H225392   0.328   1.145   5.300
 8384WAT      O25393   3.248   6.666   1.452
 8384WAT     H125394   3.206   6.701   1.535
 8384WAT     H225395   3.222   6.570   1.440
 8385WAT      O25396   7.338   0.738   0.832
 8385WAT     H125397   7.316   0.765   0.738
 8385WAT     H225398   7.410   0.669   0.831
 8386WAT      O25399   7.374   1.591   9.887
 8386WAT     H125400   7.386   1.501   9.930
 8386WAT     H225401   7.277   1.604   9.865
 8387WAT      O25402   4.225   8.802   0.823
 8387WAT     H125403   4.293   8.833   0.757
 8387WAT     H225404   4.220   8.702   0.823
 8388WAT      O25405   2.983   3.980   1.895
 8388WAT     H125406   3.040   4.002   1.815
 8388WAT     H225407   2.903   4.040   1.895
 8389WAT      O25408   8.311   6.053   6.424
 8389WAT     H125409   8.376   5.986   6.389
 8389WAT     H225410   8.351   6.100   6.503
 8390WAT      O25411   1.522   7.747   1.582
 8390WAT     H125412   1.559   7.706   1.499
 8390WAT     H225413   1.568   7.834   1.600
 8391WAT      O25414   9.415   9.364   9.660
 8391WAT     H125415   9.503   9.410   9.668
 8391WAT     H225416   9.341   9.431   9.656
 8392WAT      O25417   8.787   6.324   0.160
 8392WAT     H125418   8.840   6.340   0.077
 8392WAT     H225419   8.764   6.227   0.167
 8393WAT      O25420   9.537   5.390   6.477
 8393WAT     H125421   9.477   5.314   6.451
 8393WAT     H225422   9.592   5.363   6.557
 8394WAT      O25423   8.036   0.041   9.110
 8394WAT     H125424   8.127   0.072   9.136
 8394WAT     H225425   7.972   0.056   9.186
 8395WAT      O25426   3.975   7.388   2.380
 8395WAT     H125427   4.013   7.297   2.397
 8395WAT     H225428   3.986   7.445   2.461
 8396WAT      O25429   7.014   1.740   0.581
 8396WAT     H125430   6.992   1.745   0.678
 8396WAT     H225431   7.009   1.832   0.541
 8397WAT      O25432   2.422   1.708   3.664
 8397WAT     H125433   2.368   1.746   3.739
 8397WAT     H225434   2.509   1.674   3.700
 8398WAT      O25435   0.497   0.360   6.164
 8398WAT     H125436   0.427   0.431   6.170
 8398WAT     H225437   0.501   0.324   6.071
 8399WAT      O25438   5.907   2.407   8.346
 8399WAT     H125439   5.842   2.424   8.420
 8399WAT     H225440   5.954   2.320   8.362
 8400WAT      O25441   2.297   6.215   8.071
 8400WAT     H125442   2.267   6.130   8.028
 8400WAT     H225443   2.225   6.284   8.061
 8401WAT      O25444   2.881   2.314   3.922
 8401WAT     H125445   2.964   2.369   3.910
 8401WAT     H225446   2.804   2.360   3.877
 8402WAT      O25447   8.279   0.722   3.802
 8402WAT     H125448   8.367   0.707   3.758
 8402WAT     H225449   8.279   0.678   3.892
 8403WAT      O25450   9.121   5.281   4.589
 8403WAT     H125451   9.106   5.369   4.635
 8403WAT     H225452   9.179   5.223   4.646
 8404WAT      O25453   5.705   8.354   8.133
 8404WAT     H125454   5.771   8.358   8.058
 8404WAT     H225455   5.664   8.444   8.147
 8405WAT      O25456   8.471   8.754   0.459
 8405WAT     H125457   8.504   8.695   0.532
 8405WAT     H225458   8.547   8.775   0.396
 8406WAT      O25459   4.659   6.454   1.927
 8406WAT     H125460   4.563   6.430   1.935
 8406WAT     H225461   4.711   6.410   2.001
 8407WAT      O25462   5.376   3.039   4.918
 8407WAT     H125463   5.453   3.023   4.856
 8407WAT     H225464   5.382   2.977   4.996
 8408WAT      O25465   2.279   1.029   4.151
 8408WAT     H125466   2.231   0.942   4.165
 8408WAT     H225467   2.242   1.074   4.069
 8409WAT      O25468   4.181   0.506   6.315
 8409WAT     H125469   4.220   0.498   6.223
 8409WAT     H225470   4.085   0.479   6.313
 8410WAT      O25471   6.833   4.033   1.246
 8410WAT     H125472   6.779   4.052   1.328
 8410WAT     H225473   6.820   3.938   1.220
 8411WAT      O25474   4.879   6.720   8.195
 8411WAT     H125475   4.785   6.730   8.163
 8411WAT     H225476   4.936   6.682   8.122
 8412WAT      O25477   6.932   6.794   0.237
 8412WAT     H125478   6.903   6.721   0.299
 8412WAT     H225479   6.866   6.868   0.239
 8413WAT      O25480   7.160   4.588   8.250
 8413WAT     H125481   7.102   4.617   8.326
 8413WAT     H225482   7.238   4.650   8.241
 8414WAT      O25483   9.195   9.726   8.073
 8414WAT     H125484   9.203   9.826   8.081
 8414WAT     H225485   9.210   9.684   8.162
 8415WAT      O25486   3.078   5.798   6.919
 8415WAT     H125487   3.048   5.806   6.824
 8415WAT     H225488   3.111   5.706   6.936
 8416WAT      O25489   7.524   3.478   3.306
 8416WAT     H125490   7.528   3.447   3.401
 8416WAT     H225491   7.512   3.399   3.246
 8417WAT      O25492   0.233   0.818   9.208
 8417WAT     H125493   0.234   0.895   9.144
 8417WAT     H225494   0.162   0.834   9.278
 8418WAT      O25495   5.608   9.559   6.563
 8418WAT     H125496   5.663   9.500   6.504
 8418WAT     H225497   5.585   9.643   6.514
 8419WAT      O25498   0.382   8.902   6.337
 8419WAT     H125499   0.406   8.805   6.335
 8419WAT     H225500   0.303   8.915   6.397
 8420WAT      O25501   0.997   7.812   6.485
 8420WAT     H125502   0.997   7.860   6.572
 8420WAT     H225503   0.911   7.829   6.437
 8421WAT      O25504   6.622   1.510   6.657
 8421WAT     H125505   6.692   1.580   6.674
 8421WAT     H225506   6.666   1.427   6.624
 8422WAT      O25507   3.661   8.689   1.711
 8422WAT     H125508   3.728   8.741   1.762
 8422WAT     H225509   3.611   8.628   1.772
 8423WAT      O25510   3.066   8.213   9.649
 8423WAT     H125511   3.000   8.161   9.595
 8423WAT     H225512   3.095   8.294   9.597
 8424WAT      O25513   9.573   9.043   1.954
 8424WAT     H125514   9.596   9.037   1.857
 8424WAT     H225515   9.576   9.139   1.982
 8425WAT      O25516   7.589   3.762   8.748
 8425WAT     H125517   7.623   3.689   8.690
 8425WAT     H225518   7.498   3.790   8.716
 8426WAT      O25519   3.322   9.671   7.305
 8426WAT     H125520   3.413   9.672   7.263
 8426WAT     H225521   3.282   9.580   7.294
 8427WAT      O25522   3.191   9.185   5.676
 8427WAT     H125523   3.208   9.111   5.612
 8427WAT     H225524   3.112   9.162   5.733
 8428WAT      O25525   7.835   9.084   9.724
 8428WAT     H125526   7.872   9.005   9.774
 8428WAT     H225527   7.745   9.061   9.688
 8429WAT      O25528   8.179   8.559   5.347
 8429WAT     H125529   8.205   8.620   5.421
 8429WAT     H225530   8.136   8.477   5.385
 8430WAT      O25531   5.941   8.345   1.001
 8430WAT     H125532   5.993   8.335   0.917
 8430WAT     H225533   5.952   8.437   1.037
 8431WAT      O25534   2.841   5.130   6.005
 8431WAT     H125535   2.853   5.186   5.924
 8431WAT     H225536   2.803   5.185   6.079
 8432WAT      O25537   7.857   6.750   9.762
 8432WAT     H125538   7.933   6.709   9.813
 8432WAT     H225539   7.876   6.847   9.748
 8433WAT      O25540   6.758   4.905   5.089
 8433WAT     H125541   6.800   4.986   5.047
 8433WAT     H225542   6.820   4.827   5.081
 8434WAT      O25543   2.406   4.187   6.923
 8434WAT     H125544   2.447   4.274   6.897
 8434WAT     H225545   2.383   4.134   6.841
 8435WAT      O25546   6.579   5.404   8.501
 8435WAT     H125547   6.525   5.431   8.421
 8435WAT     H225548   6.637   5.326   8.476
 8436WAT      O25549   4.774   7.921   5.456
 8436WAT     H125550   4.850   7.971   5.414
 8436WAT     H225551   4.795   7.902   5.552
 8437WAT      O25552   0.515   5.192   3.384
 8437WAT     H125553   0.425   5.219   3.416
 8437WAT     H225554   0.583   5.206   3.456
 8438WAT      O25555   5.193   7.332   7.992
 8438WAT     H125556   5.271   7.394   7.990
 8438WAT     H225557   5.137   7.352   8.073
 8439WAT      O25558   1.134   7.084   4.734
 8439WAT     H125559   1.164   7.073   4.829
 8439WAT     H225560   1.187   7.022   4.676
 8440WAT      O25561   2.296   6.423   6.688
 8440WAT     H125562   2.219   6.452   6.633
 8440WAT     H225563   2.328   6.500   6.744
 8441WAT      O25564   2.606   2.193   9.545
 8441WAT     H125565   2.695   2.207   9.501
 8441WAT     H225566   2.554   2.124   9.494
 8442WAT      O25567   9.253   0.054   1.508
 8442WAT     H125568   9.295  -0.035   1.524
 8442WAT     H225569   9.313   0.110   1.451
 8443WAT      O25570   8.435   6.487   3.530
 8443WAT     H125571   8.517   6.446   3.569
 8443WAT     H225572   8.406   6.563   3.587
 8444WAT      O25573   2.708   8.462   6.625
 8444WAT     H125574   2.671   8.555   6.617
 8444WAT     H225575   2.637   8.396   6.599
 8445WAT      O25576   0.450   8.588   0.546
 8445WAT     H125577   0.403   8.499   0.549
 8445WAT     H225578   0.432   8.631   0.457
 8446WAT      O25579   9.589   9.411   8.598
 8446WAT     H125580   9.685   9.440   8.587
 8446WAT     H225581   9.585   9.311   8.598
 8447WAT      O25582   3.405   1.330   4.070
 8447WAT     H125583   3.363   1.408   4.024
 8447WAT     H225584   3.467   1.283   4.007
 8448WAT      O25585   6.467   9.535   8.079
 8448WAT     H125586   6.566   9.528   8.083
 8448WAT     H225587   6.425   9.446   8.100
 8449WAT      O25588   7.951   3.539   4.533
 8449WAT     H125589   8.004   3.624   4.531
 8449WAT     H225590   7.873   3.550   4.595
 8450WAT      O25591   7.265   3.311   6.726
 8450WAT     H125592   7.192   3.358   6.776
 8450WAT     H225593   7.224   3.250   6.658
 8451WAT      O25594   5.459   1.613   9.066
 8451WAT     H125595   5.503   1.540   9.014
 8451WAT     H225596   5.364   1.623   9.036
 8452WAT      O25597   4.982   3.533   3.982
 8452WAT     H125598   5.069   3.507   4.024
 8452WAT     H225599   4.991   3.623   3.939
 8453WAT      O25600   3.748   0.686   1.470
 8453WAT     H125601   3.695   0.746   1.530
 8453WAT     H225602   3.790   0.614   1.525
 8454WAT      O25603   1.205   5.889   6.163
 8454WAT     H125604   1.109   5.861   6.158
 8454WAT     H225605   1.259   5.830   6.103
 8455WAT      O25606   1.586   7.311   9.459
 8455WAT     H125607   1.543   7.314   9.369
 8455WAT     H225608   1.525   7.266   9.524
 8456WAT      O25609   4.193   6.772   4.137
 8456WAT     H125610   4.284   6.811   4.121
 8456WAT     H225611   4.178   6.761   4.235
 8457WAT      O25612   2.331   9.073   4.592
 8457WAT     H125613   2.360   9.166   4.618
 8457WAT     H225614   2.305   9.022   4.674
 8458WAT      O25615   3.295   8.583   5.440
 8458WAT     H125616   3.214   8.604   5.494
 8458WAT     H225617   3.283   8.618   5.347
 8459WAT      O25618   4.723   8.519   5.271
 8459WAT     H125619   4.801   8.580   5.260
 8459WAT     H225620   4.706   8.502   5.368
 8460WAT      O25621   5.199   4.014   1.537
 8460WAT     H125622   5.241   4.002   1.627
 8460WAT     H225623   5.107   3.975   1.538
 8461WAT      O25624   7.122   6.201   3.631
 8461WAT     H125625   7.099   6.151   3.715
 8461WAT     H225626   7.046   6.196   3.567
 8462WAT      O25627   4.809   0.927   1.404
 8462WAT     H125628   4.859   1.008   1.432
 8462WAT     H225629   4.834   0.850   1.463
 8463WAT      O25630   1.284   9.429   9.561
 8463WAT     H125631   1.253   9.348   9.612
 8463WAT     H225632   1.220   9.504   9.576
 8464WAT      O25633   9.038   7.952   7.723
 8464WAT     H125634   8.953   7.914   7.686
 8464WAT     H225635   9.032   7.959   7.822
 8465WAT      O25636   8.105   5.402   4.480
 8465WAT     H125637   8.152   5.465   4.419
 8465WAT     H225638   8.133   5.308   4.459
 8466WAT      O25639   4.343   2.867   6.505
 8466WAT     H125640   4.430   2.900   6.468
 8466WAT     H225641   4.270   2.883   6.438
 8467WAT      O25642   5.886   5.566   6.928
 8467WAT     H125643   5.813   5.622   6.966
 8467WAT     H225644   5.886   5.476   6.972
 8468WAT      O25645   0.812   9.132   0.945
 8468WAT     H125646   0.837   9.061   0.879
 8468WAT     H225647   0.853   9.219   0.917
 8469WAT      O25648   6.412   7.715   7.263
 8469WAT     H125649   6.414   7.631   7.210
 8469WAT     H225650   6.319   7.752   7.264
 8470WAT      O25651   6.741   0.661   1.719
 8470WAT     H125652   6.720   0.698   1.809
 8470WAT     H225653   6.656   0.647   1.668
 8471WAT      O25654   6.900   6.972   6.437
 8471WAT     H125655   6.910   6.873   6.431
 8471WAT     H225656   6.853   6.996   6.522
 8472WAT      O25657   1.900   5.533   0.327
 8472WAT     H125658   1.894   5.535   0.426
 8472WAT     H225659   1.851   5.453   0.292
 8473WAT      O25660   1.296   6.338   7.520
 8473WAT     H125661   1.395   6.351   7.529
 8473WAT     H225662   1.251   6.372   7.602
 8474WAT      O25663   4.288   4.129   7.625
 8474WAT     H125664   4.196   4.089   7.634
 8474WAT     H225665   4.307   4.147   7.529
 8475WAT      O25666   8.566   5.093   3.172
 8475WAT     H125667   8.605   5.125   3.085
 8475WAT     H225668   8.472   5.125   3.179
 8476WAT      O25669   2.095   5.753   5.227
 8476WAT     H125670   2.119   5.810   5.306
 8476WAT     H225671   2.038   5.806   5.165
 8477WAT      O25672   6.071   5.442   5.327
 8477WAT     H125673   6.165   5.428   5.296
 8477WAT     H225674   6.066   5.526   5.381
 8478WAT      O25675   8.477   3.671   2.350
 8478WAT     H125676   8.544   3.737   2.383
 8478WAT     H225677   8.429   3.630   2.427
 8479WAT      O25678   3.038   3.860   2.454
 8479WAT     H125679   3.043   3.769   2.413
 8479WAT     H225680   3.031   3.851   2.554
 8480WAT      O25681   9.168   0.737   6.732
 8480WAT     H125682   9.245   0.731   6.797
 8480WAT     H225683   9.158   0.650   6.684
 8481WAT      O25684   2.337   1.446   0.020
 8481WAT     H125685   2.264   1.390   0.058
 8481WAT     H225686   2.299   1.528  -0.022
 8482WAT      O25687   2.753   6.448   6.843
 8482WAT     H125688   2.722   6.531   6.796
 8482WAT     H225689   2.759   6.373   6.778
 8483WAT      O25690   5.346   8.447   2.599
 8483WAT     H125691   5.428   8.473   2.548
 8483WAT     H225692   5.274   8.421   2.534
 8484WAT      O25693   4.164   3.176   4.406
 8484WAT     H125694   4.244   3.198   4.350
 8484WAT     H225695   4.173   3.220   4.495
 8485WAT      O25696   3.646   2.562   1.344
 8485WAT     H125697   3.664   2.649   1.299
 8485WAT     H225698   3.566   2.570   1.403
 8486WAT      O25699   1.821   7.610   4.121
 8486WAT     H125700   1.868   7.588   4.206
 8486WAT     H225701   1.722   7.603   4.135
 8487WAT      O25702   2.527   5.304   5.700
 8487WAT     H125703   2.477   5.218   5.704
 8487WAT     H225704   2.569   5.322   5.789
 8488WAT      O25705   7.548   1.442   1.562
 8488WAT     H125706   7.453   1.470   1.576
 8488WAT     H225707   7.590   1.503   1.495
 8489WAT      O25708   9.087   2.770   9.030
 8489WAT     H125709   9.160   2.702   9.021
 8489WAT     H225710   9.057   2.774   9.125
 8490WAT      O25711   9.549   5.920   6.865
 8490WAT     H125712   9.629   5.980   6.873
 8490WAT     H225713   9.466   5.973   6.882
 8491WAT      O25714   8.118   8.760   1.857
 8491WAT     H125715   8.131   8.667   1.824
 8491WAT     H225716   8.031   8.767   1.906
 8492WAT      O25717   3.991   1.877   0.486
 8492WAT     H125718   4.034   1.843   0.402
 8492WAT     H225719   3.899   1.912   0.464
 8493WAT      O25720   7.983   0.183   1.554
 8493WAT     H125721   8.030   0.170   1.642
 8493WAT     H225722   7.948   0.095   1.522
 8494WAT      O25723   9.685   0.907   9.664
 8494WAT     H125724   9.674   0.809   9.649
 8494WAT     H225725   9.616   0.957   9.611
 8495WAT      O25726   9.751   2.829   0.898
 8495WAT     H125727   9.695   2.758   0.939
 8495WAT     H225728   9.834   2.842   0.952
 8496WAT      O25729   3.329   8.321   6.256
 8496WAT     H125730   3.357   8.291   6.347
 8496WAT     H225731   3.362   8.257   6.188
 8497WAT      O25732   7.600   8.923   0.501
 8497WAT     H125733   7.587   9.019   0.474
 8497WAT     H225734   7.544   8.864   0.442
 8498WAT      O25735   7.137   8.783   8.034
 8498WAT     H125736   7.091   8.701   8.070
 8498WAT     H225737   7.130   8.857   8.101
 8499WAT      O25738   7.746   1.828   9.743
 8499WAT     H125739   7.823   1.840   9.680
 8499WAT     H225740   7.779   1.786   9.827
 8500WAT      O25741   0.099   8.559   3.540
 8500WAT     H125742   0.179   8.527   3.591
 8500WAT     H225743   0.019   8.506   3.566
 8501WAT      O25744   8.999   2.369   8.876
 8501WAT     H125745   9.076   2.332   8.929
 8501WAT     H225746   8.913   2.350   8.924
 8502WAT      O25747   6.092   1.621   4.495
 8502WAT     H125748   5.995   1.619   4.520
 8502WAT     H225749   6.140   1.690   4.549
 8503WAT      O25750   3.855   2.152   0.736
 8503WAT     H125751   3.818   2.086   0.670
 8503WAT     H225752   3.812   2.137   0.825
 8504WAT      O25753   2.543   8.735   7.433
 8504WAT     H125754   2.514   8.640   7.444
 8504WAT     H225755   2.555   8.754   7.336
 8505WAT      O25756   5.680   7.414   3.852
 8505WAT     H125757   5.727   7.474   3.788
 8505WAT     H225758   5.596   7.379   3.810
 8506WAT      O25759   1.372   9.684   7.164
 8506WAT     H125760   1.367   9.597   7.213
 8506WAT     H225761   1.299   9.745   7.196
 8507WAT      O25762   2.113   7.535   0.387
 8507WAT     H125763   2.084   7.445   0.420
 8507WAT     H225764   2.173   7.523   0.308
 8508WAT      O25765   7.238   5.756   8.619
 8508WAT     H125766   7.192   5.782   8.534
 8508WAT     H225767   7.233   5.657   8.631
 8509WAT      O25768   7.306   4.154   1.169
 8509WAT     H125769   7.371   4.078   1.165
 8509WAT     H225770   7.223   4.126   1.217
 8510WAT      O25771   1.621   8.750   5.938
 8510WAT     H125772   1.584   8.657   5.949
 8510WAT     H225773   1.680   8.752   5.857
 8511WAT      O25774   1.799   4.287   7.784
 8511WAT     H125775   1.726   4.245   7.837
 8511WAT     H225776   1.811   4.237   7.698
 8512WAT      O25777   9.178   6.215   2.970
 8512WAT     H125778   9.095   6.166   2.999
 8512WAT     H225779   9.220   6.258   3.049
 8513WAT      O25780   7.405   7.220   1.558
 8513WAT     H125781   7.330   7.260   1.504
 8513WAT     H225782   7.384   7.124   1.577
 8514WAT      O25783   4.528   3.460   2.076
 8514WAT     H125784   4.588   3.384   2.049
 8514WAT     H225785   4.433   3.428   2.079
 8515WAT      O25786   1.500   2.993   1.654
 8515WAT     H125787   1.418   2.989   1.597
 8515WAT     H225788   1.575   3.034   1.602
 8516WAT      O25789   7.222   3.333   3.038
 8516WAT     H125790   7.309   3.293   3.007
 8516WAT     H225791   7.236   3.379   3.126
 8517WAT      O25792   8.020   8.471   5.759
 8517WAT     H125793   7.992   8.376   5.773
 8517WAT     H225794   8.119   8.478   5.763
 8518WAT      O25795   6.590   1.964   7.721
 8518WAT     H125796   6.498   2.002   7.712
 8518WAT     H225797   6.610   1.905   7.643
 8519WAT      O25798   5.308   7.634   4.849
 8519WAT     H125799   5.305   7.592   4.939
 8519WAT     H225800   5.217   7.669   4.825
 8520WAT      O25801   1.349   0.091   1.820
 8520WAT     H125802   1.375   0.147   1.741
 8520WAT     H225803   1.424   0.088   1.886
 8521WAT      O25804   9.559   7.997   1.797
 8521WAT     H125805   9.614   8.080   1.786
 8521WAT     H225806   9.522   7.970   1.708
 8522WAT      O25807   7.335   2.556   7.584
 8522WAT     H125808   7.420   2.528   7.540
 8522WAT     H225809   7.261   2.494   7.558
 8523WAT      O25810   6.320   2.280   3.416
 8523WAT     H125811   6.397   2.287   3.353
 8523WAT     H225812   6.235   2.306   3.369
 8524WAT      O25813   4.428   1.738   2.848
 8524WAT     H125814   4.454   1.711   2.941
 8524WAT     H225815   4.462   1.830   2.829
 8525WAT      O25816   1.111   2.283   5.694
 8525WAT     H125817   1.117   2.343   5.774
 8525WAT     H225818   1.054   2.326   5.624
 8526WAT      O25819   4.163   2.904   9.618
 8526WAT     H125820   4.218   2.911   9.701
 8526WAT     H225821   4.178   2.814   9.576
 8527WAT      O25822   3.349   8.467   3.402
 8527WAT     H125823   3.285   8.522   3.349
 8527WAT     H225824   3.304   8.430   3.483
 8528WAT      O25825   2.648   0.356   0.271
 8528WAT     H125826   2.726   0.387   0.325
 8528WAT     H225827   2.567   0.410   0.294
 8529WAT      O25828   5.780   9.611   8.049
 8529WAT     H125829   5.828   9.619   7.962
 8529WAT     H225830   5.683   9.592   8.033
 8530WAT      O25831   5.299   5.243   9.351
 8530WAT     H125832   5.393   5.243   9.316
 8530WAT     H225833   5.278   5.334   9.389
 8531WAT      O25834   9.386   0.089   2.210
 8531WAT     H125835   9.474   0.136   2.213
 8531WAT     H225836   9.351   0.091   2.116
 8532WAT      O25837   4.262   4.533   1.214
 8532WAT     H125838   4.320   4.575   1.145
 8532WAT     H225839   4.297   4.442   1.236
 8533WAT      O25840   7.634   3.930   5.466
 8533WAT     H125841   7.535   3.916   5.454
 8533WAT     H225842   7.668   3.865   5.534
 8534WAT      O25843   0.294   0.608   3.324
 8534WAT     H125844   0.356   0.581   3.250
 8534WAT     H225845   0.234   0.532   3.346
 8535WAT      O25846   8.522   0.093   9.176
 8535WAT     H125847   8.562   0.167   9.230
 8535WAT     H225848   8.586   0.064   9.105
 8536WAT      O25849   0.365   7.556   6.232
 8536WAT     H125850   0.274   7.572   6.194
 8536WAT     H225851   0.391   7.460   6.220
 8537WAT      O25852   8.133   9.736   4.348
 8537WAT     H125853   8.167   9.693   4.264
 8537WAT     H225854   8.209   9.751   4.411
 8538WAT      O25855   4.812   1.824   7.005
 8538WAT     H125856   4.737   1.758   7.003
 8538WAT     H225857   4.798   1.893   6.934
 8539WAT      O25858   7.069   5.078   3.767
 8539WAT     H125859   7.115   5.130   3.839
 8539WAT     H225860   6.990   5.031   3.807
 8540WAT      O25861   9.590   9.382   5.517
 8540WAT     H125862   9.604   9.298   5.569
 8540WAT     H225863   9.603   9.461   5.577
 8541WAT      O25864   1.961   9.604   9.088
 8541WAT     H125865   1.947   9.505   9.093
 8541WAT     H225866   1.880   9.651   9.122
 8542WAT      O25867   2.588   8.986   0.100
 8542WAT     H125868   2.640   8.995   0.016
 8542WAT     H225869   2.560   9.076   0.132
 8543WAT      O25870   4.581   2.526   4.796
 8543WAT     H125871   4.515   2.601   4.806
 8543WAT     H225872   4.579   2.469   4.878
 8544WAT      O25873   1.579   3.779   4.818
 8544WAT     H125874   1.503   3.836   4.849
 8544WAT     H225875   1.664   3.832   4.820
 8545WAT      O25876   1.823   8.544   5.511
 8545WAT     H125877   1.824   8.448   5.539
 8545WAT     H225878   1.730   8.571   5.486
 8546WAT      O25879   0.047   5.845   1.610
 8546WAT     H125880   0.022   5.942   1.615
 8546WAT     H225881   0.069   5.812   1.702
 8547WAT      O25882   0.394   7.626   7.600
 8547WAT     H125883   0.414   7.560   7.528
 8547WAT     H225884   0.295   7.639   7.607
 8548WAT      O25885   4.823   4.608   3.708
 8548WAT     H125886   4.750   4.648   3.763
 8548WAT     H225887   4.886   4.558   3.767
 8549WAT      O25888   9.128   6.072   2.522
 8549WAT     H125889   9.028   6.083   2.522
 8549WAT     H225890   9.169   6.137   2.586
 8550WAT      O25891   5.955   4.434   0.853
 8550WAT     H125892   5.973   4.369   0.926
 8550WAT     H225893   5.929   4.522   0.893
 8551WAT      O25894   0.099   6.112   7.421
 8551WAT     H125895   0.139   6.204   7.422
 8551WAT     H225896   0.172   6.044   7.418
 8552WAT      O25897   3.373   7.386   7.412
 8552WAT     H125898   3.374   7.414   7.316
 8552WAT     H225899   3.438   7.311   7.426
 8553WAT      O25900   2.193   1.635   0.576
 8553WAT     H125901   2.141   1.718   0.557
 8553WAT     H225902   2.210   1.586   0.490
 8554WAT      O25903   0.609   8.323   5.405
 8554WAT     H125904   0.564   8.304   5.492
 8554WAT     H225905   0.551   8.383   5.350
 8555WAT      O25906   1.831   6.158   1.390
 8555WAT     H125907   1.784   6.217   1.324
 8555WAT     H225908   1.906   6.208   1.433
 8556WAT      O25909   1.733   7.548   9.411
 8556WAT     H125910   1.661   7.488   9.448
 8556WAT     H225911   1.786   7.587   9.486
 8557WAT      O25912   5.903   3.233   2.824
 8557WAT     H125913   5.857   3.254   2.911
 8557WAT     H225914   5.936   3.139   2.826
 8558WAT      O25915   7.268   9.833   9.881
 8558WAT     H125916   7.249   9.738   9.903
 8558WAT     H225917   7.183   9.885   9.885
 8559WAT      O25918   5.349   7.152   8.193
 8559WAT     H125919   5.407   7.107   8.125
 8559WAT     H225920   5.279   7.206   8.147
 8560WAT      O25921   9.701   8.950   6.793
 8560WAT     H125922   9.634   9.015   6.829
 8560WAT     H225923   9.667   8.857   6.805
 8561WAT      O25924   4.797   4.828   0.411
 8561WAT     H125925   4.705   4.799   0.441
 8561WAT     H225926   4.843   4.751   0.366
 8562WAT      O25927   8.126   1.135   0.820
 8562WAT     H125928   8.050   1.163   0.877
 8562WAT     H225929   8.208   1.123   0.876
 8563WAT      O25930   7.351   5.628   3.981
 8563WAT     H125931   7.380   5.574   3.902
 8563WAT     H225932   7.426   5.633   4.047
 8564WAT      O25933   5.340   2.100   5.449
 8564WAT     H125934   5.422   2.091   5.393
 8564WAT     H225935   5.366   2.132   5.540
 8565WAT      O25936   9.631   2.598   2.222
 8565WAT     H125937   9.619   2.596   2.321
 8565WAT     H225938   9.689   2.676   2.197
 8566WAT      O25939   2.284   8.992   1.001
 8566WAT     H125940   2.321   8.946   1.082
 8566WAT     H225941   2.226   8.928   0.950
 8567WAT      O25942   0.850   0.366   0.759
 8567WAT     H125943   0.937   0.410   0.736
 8567WAT     H225944   0.815   0.405   0.844
 8568WAT      O25945   3.828   5.170   4.164
 8568WAT     H125946   3.925   5.160   4.143
 8568WAT     H225947   3.809   5.137   4.256
 8569WAT      O25948   1.931   0.534   3.681
 8569WAT     H125949   1.889   0.583   3.605
 8569WAT     H225950   1.860   0.483   3.731
 8570WAT      O25951   8.695   9.105   0.016
 8570WAT     H125952   8.746   9.045   0.078
 8570WAT     H225953   8.614   9.058  -0.017
 8571WAT      O25954   9.820   4.713   6.736
 8571WAT     H125955   9.749   4.725   6.665
 8571WAT     H225956   9.908   4.698   6.692
 8572WAT      O25957   4.743   2.720   6.900
 8572WAT     H125958   4.717   2.628   6.929
 8572WAT     H225959   4.687   2.787   6.948
 8573WAT      O25960   7.908   9.290   6.817
 8573WAT     H125961   7.874   9.353   6.887
 8573WAT     H225962   7.941   9.342   6.738
 8574WAT      O25963   4.004   2.702   0.597
 8574WAT     H125964   4.066   2.677   0.523
 8574WAT     H225965   3.922   2.645   0.593
 8575WAT      O25966   1.104   3.782   0.418
 8575WAT     H125967   1.123   3.876   0.447
 8575WAT     H225968   1.160   3.719   0.471
 8576WAT      O25969   6.060   5.648   5.516
 8576WAT     H125970   6.003   5.672   5.595
 8576WAT     H225971   6.068   5.728   5.456
 8577WAT      O25972   0.730   6.483   0.854
 8577WAT     H125973   0.770   6.535   0.929
 8577WAT     H225974   0.769   6.391   0.851
 8578WAT      O25975   9.451   5.696   8.015
 8578WAT     H125976   9.387   5.625   8.045
 8578WAT     H225977   9.482   5.748   8.094
 8579WAT      O25978   5.387   7.397   3.130
 8579WAT     H125979   5.334   7.319   3.163
 8579WAT     H225980   5.404   7.460   3.206
 8580WAT      O25981   6.274   7.857   5.100
 8580WAT     H125982   6.341   7.803   5.151
 8580WAT     H225983   6.309   7.880   5.010
 8581WAT      O25984   2.518   8.118   0.691
 8581WAT     H125985   2.538   8.058   0.614
 8581WAT     H225986   2.421   8.110   0.715
 8582WAT      O25987   3.103   4.290   5.105
 8582WAT     H125988   3.071   4.246   5.189
 8582WAT     H225989   3.134   4.382   5.126
 8583WAT      O25990   3.426   1.898   0.566
 8583WAT     H125991   3.393   1.970   0.505
 8583WAT     H225992   3.518   1.920   0.598
 8584WAT      O25993   8.621   5.631   6.597
 8584WAT     H125994   8.685   5.704   6.574
 8584WAT     H225995   8.620   5.563   6.524
 8585WAT      O25996   1.887   6.912   5.042
 8585WAT     H125997   1.896   6.866   5.130
 8585WAT     H225998   1.940   6.863   4.973
 8586WAT      O25999   8.938   2.260   1.819
 8586WAT     H126000   8.949   2.342   1.764
 8586WAT     H226001   9.016   2.199   1.806
 8587WAT      O26002   5.935   2.959   1.898
 8587WAT     H126003   5.853   3.016   1.891
 8587WAT     H226004   5.935   2.893   1.823
 8588WAT      O26005   3.525   0.860   2.897
 8588WAT     H126006   3.529   0.761   2.883
 8588WAT     H226007   3.475   0.903   2.822
 8589WAT      O26008   1.487   5.850   7.827
 8589WAT     H126009   1.541   5.860   7.911
 8589WAT     H226010   1.463   5.941   7.792
 8590WAT      O26011   1.411   8.895   8.298
 8590WAT     H126012   1.311   8.892   8.295
 8590WAT     H226013   1.442   8.884   8.392
 8591WAT      O26014   3.104   4.424   8.370
 8591WAT     H126015   3.199   4.397   8.359
 8591WAT     H226016   3.086   4.507   8.317
 8592WAT      O26017   9.278   2.493   7.484
 8592WAT     H126018   9.243   2.442   7.406
 8592WAT     H226019   9.329   2.432   7.544
 8593WAT      O26020   9.542   9.082   6.474
 8593WAT     H126021   9.621   9.034   6.513
 8593WAT     H226022   9.458   9.049   6.518
 8594WAT      O26023   8.342   0.254   9.513
 8594WAT     H126024   8.327   0.350   9.490
 8594WAT     H226025   8.422   0.246   9.573
 8595WAT      O26026   8.386   0.553   0.565
 8595WAT     H126027   8.364   0.504   0.480
 8595WAT     H226028   8.459   0.619   0.547
 8596WAT      O26029   9.166   8.041   5.643
 8596WAT     H126030   9.132   8.049   5.549
 8596WAT     H226031   9.103   7.985   5.697
 8597WAT      O26032   0.396   0.052   2.157
 8597WAT     H126033   0.376   0.129   2.096
 8597WAT     H226034   0.441  -0.020   2.105
 8598WAT      O26035   3.256   3.640   6.665
 8598WAT     H126036   3.183   3.701   6.696
 8598WAT     H226037   3.287   3.668   6.574
 8599WAT      O26038   9.687   3.182   6.799
 8599WAT     H126039   9.623   3.145   6.730
 8599WAT     H226040   9.776   3.138   6.787
 8600WAT      O26041   4.486   9.691   4.998
 8600WAT     H126042   4.493   9.598   4.962
 8600WAT     H226043   4.409   9.697   5.062
 8601WAT      O26044   3.477   6.419   3.088
 8601WAT     H126045   3.387   6.443   3.052
 8601WAT     H226046   3.539   6.397   3.013
 8602WAT      O26047   1.631   3.007   7.022
 8602WAT     H126048   1.709   2.971   6.971
 8602WAT     H226049   1.553   2.946   7.011
 8603WAT      O26050   4.817   7.492   8.893
 8603WAT     H126051   4.722   7.511   8.868
 8603WAT     H226052   4.877   7.558   8.849
 8604WAT      O26053   5.857   5.440   6.669
 8604WAT     H126054   5.840   5.492   6.586
 8604WAT     H226055   5.847   5.501   6.749
 8605WAT      O26056   0.290   5.982   0.245
 8605WAT     H126057   0.225   6.058   0.248
 8605WAT     H226058   0.375   6.009   0.289
 8606WAT      O26059   1.573   6.933   6.219
 8606WAT     H126060   1.653   6.881   6.248
 8606WAT     H226061   1.490   6.883   6.243
 8607WAT      O26062   7.814   2.781   2.242
 8607WAT     H126063   7.857   2.722   2.309
 8607WAT     H226064   7.734   2.735   2.203
 8608WAT      O26065   7.208   1.291   1.193
 8608WAT     H126066   7.260   1.265   1.275
 8608WAT     H226067   7.271   1.305   1.117
 8609WAT      O26068   6.075   0.535   3.433
 8609WAT     H126069   6.147   0.601   3.451
 8609WAT     H226070   6.060   0.527   3.334
 8610WAT      O26071   6.606   6.304   9.001
 8610WAT     H126072   6.632   6.211   8.978
 8610WAT     H226073   6.541   6.303   9.078
 8611WAT      O26074   2.851   5.289   5.236
 8611WAT     H126075   2.869   5.199   5.197
 8611WAT     H226076   2.799   5.279   5.321
 8612WAT      O26077   9.732   3.792   4.088
 8612WAT     H126078   9.753   3.869   4.028
 8612WAT     H226079   9.689   3.719   4.034
 8613WAT      O26080   8.618   3.493   5.744
 8613WAT     H126081   8.610   3.530   5.837
 8613WAT     H226082   8.530   3.454   5.717
 8614WAT      O26083   3.421   4.865   0.390
 8614WAT     H126084   3.373   4.949   0.363
 8614WAT     H226085   3.401   4.846   0.486
 8615WAT      O26086   6.739   1.286   6.571
 8615WAT     H126087   6.718   1.281   6.474
 8615WAT     H226088   6.708   1.203   6.616
 8616WAT      O26089   4.279   0.614   5.514
 8616WAT     H126090   4.327   0.600   5.427
 8616WAT     H226091   4.334   0.576   5.589
 8617WAT      O26092   6.066   4.032   2.158
 8617WAT     H126093   6.015   4.034   2.072
 8617WAT     H226094   6.161   4.008   2.140
 8618WAT      O26095   6.346   8.038   5.903
 8618WAT     H126096   6.311   7.961   5.850
 8618WAT     H226097   6.345   8.121   5.847
 8619WAT      O26098   8.549   7.953   6.758
 8619WAT     H126099   8.485   7.980   6.686
 8619WAT     H226100   8.504   7.890   6.821
 8620WAT      O26101   0.335   8.190   2.431
 8620WAT     H126102   0.405   8.158   2.369
 8620WAT     H226103   0.319   8.121   2.503
 8621WAT      O26104   6.879   5.906   3.540
 8621WAT     H126105   6.881   6.005   3.523
 8621WAT     H226106   6.897   5.858   3.455
 8622WAT      O26107   6.286   8.604   9.539
 8622WAT     H126108   6.329   8.520   9.504
 8622WAT     H226109   6.200   8.620   9.491
 8623WAT      O26110   4.096   2.605   5.458
 8623WAT     H126111   4.146   2.593   5.543
 8623WAT     H226112   3.998   2.613   5.477
 8624WAT      O26113   9.102   2.585   0.375
 8624WAT     H126114   9.093   2.519   0.301
 8624WAT     H226115   9.037   2.660   0.362
 8625WAT      O26116   8.914   6.679   1.756
 8625WAT     H126117   8.895   6.727   1.842
 8625WAT     H226118   8.888   6.736   1.679
 8626WAT      O26119   6.734   0.738   0.781
 8626WAT     H126120   6.671   0.813   0.761
 8626WAT     H226121   6.690   0.650   0.760
 8627WAT      O26122   0.303   3.790   9.135
 8627WAT     H126123   0.363   3.734   9.079
 8627WAT     H226124   0.315   3.886   9.110
 8628WAT      O26125   6.686   4.766   9.471
 8628WAT     H126126   6.611   4.779   9.535
 8628WAT     H226127   6.732   4.679   9.490
 8629WAT      O26128   3.293   2.193   9.760
 8629WAT     H126129   3.304   2.184   9.859
 8629WAT     H226130   3.287   2.290   9.736
 8630WAT      O26131   6.559   1.714   4.126
 8630WAT     H126132   6.535   1.806   4.160
 8630WAT     H226133   6.624   1.722   4.051
 8631WAT      O26134   9.089   7.345   1.375
 8631WAT     H126135   9.022   7.413   1.345
 8631WAT     H226136   9.066   7.315   1.468
 8632WAT      O26137   9.140   7.291   8.464
 8632WAT     H126138   9.137   7.261   8.368
 8632WAT     H226139   9.231   7.275   8.501
 8633WAT      O26140   3.489   7.332   9.237
 8633WAT     H126141   3.536   7.350   9.151
 8633WAT     H226142   3.412   7.271   9.220
 8634WAT      O26143   0.981   2.250   6.546
 8634WAT     H126144   0.940   2.302   6.471
 8634WAT     H226145   0.987   2.153   6.520
 8635WAT      O26146   3.159   7.592   1.280
 8635WAT     H126147   3.107   7.511   1.252
 8635WAT     H226148   3.108   7.674   1.258
 8636WAT      O26149   7.309   5.092   9.725
 8636WAT     H126150   7.305   5.068   9.822
 8636WAT     H226151   7.400   5.070   9.689
 8637WAT      O26152   2.904   2.833   6.037
 8637WAT     H126153   2.865   2.897   6.103
 8637WAT     H226154   2.886   2.866   5.944
 8638WAT      O26155   3.221   6.962   6.631
 8638WAT     H126156   3.314   6.937   6.605
 8638WAT     H226157   3.158   6.891   6.602
 8639WAT      O26158   2.075   2.602   8.869
 8639WAT     H126159   2.006   2.610   8.941
 8639WAT     H226160   2.142   2.676   8.879
 8640WAT      O26161   2.383   0.447   9.251
 8640WAT     H126162   2.438   0.375   9.210
 8640WAT     H226163   2.287   0.433   9.229
 8641WAT      O26164   7.009   9.191   3.549
 8641WAT     H126165   6.928   9.145   3.584
 8641WAT     H226166   7.007   9.189   3.449
 8642WAT      O26167   4.495   4.590   4.976
 8642WAT     H126168   4.495   4.683   4.938
 8642WAT     H226169   4.427   4.534   4.929
 8643WAT      O26170   4.974   8.026   3.378
 8643WAT     H126171   4.984   8.103   3.442
 8643WAT     H226172   4.881   7.990   3.382
 8644WAT      O26173   5.812   2.597   2.396
 8644WAT     H126174   5.755   2.516   2.382
 8644WAT     H226175   5.798   2.661   2.321
 8645WAT      O26176   7.662   1.783   6.386
 8645WAT     H126177   7.735   1.756   6.449
 8645WAT     H226178   7.688   1.868   6.339
 8646WAT      O26179   0.845   2.043   7.066
 8646WAT     H126180   0.790   2.122   7.040
 8646WAT     H226181   0.928   2.075   7.113
 8647WAT      O26182   7.179   2.617   4.630
 8647WAT     H126183   7.117   2.559   4.577
 8647WAT     H226184   7.125   2.680   4.686
 8648WAT      O26185   9.480   1.457   3.897
 8648WAT     H126186   9.425   1.423   3.973
 8648WAT     H226187   9.426   1.456   3.813
 8649WAT      O26188   7.706   6.529   3.076
 8649WAT     H126189   7.774   6.569   3.138
 8649WAT     H226190   7.652   6.462   3.126
 8650WAT      O26191   0.824   2.783   3.517
 8650WAT     H126192   0.787   2.788   3.424
 8650WAT     H226193   0.861   2.692   3.534
 8651WAT      O26194   9.221   1.181   3.478
 8651WAT     H126195   9.287   1.256   3.470
 8651WAT     H226196   9.267   1.094   3.461
 8652WAT      O26197   4.256   6.648   6.134
 8652WAT     H126198   4.233   6.712   6.208
 8652WAT     H226199   4.285   6.698   6.053
 8653WAT      O26200   3.363   1.851   8.262
 8653WAT     H126201   3.329   1.918   8.196
 8653WAT     H226202   3.413   1.779   8.213
 8654WAT      O26203   4.490   1.294   1.906
 8654WAT     H126204   4.530   1.224   1.848
 8654WAT     H226205   4.394   1.307   1.881
 8655WAT      O26206   5.374   3.402   7.835
 8655WAT     H126207   5.371   3.472   7.763
 8655WAT     H226208   5.414   3.441   7.918
 8656WAT      O26209   5.817   3.619   8.917
 8656WAT     H126210   5.856   3.701   8.876
 8656WAT     H226211   5.847   3.538   8.868
 8657WAT      O26212   2.770   3.574   9.399
 8657WAT     H126213   2.843   3.638   9.420
 8657WAT     H226214   2.727   3.542   9.483
 8658WAT      O26215   5.586   0.819   7.057
 8658WAT     H126216   5.647   0.830   7.136
 8658WAT     H226217   5.495   0.794   7.089
 8659WAT      O26218   2.979   4.707   6.604
 8659WAT     H126219   3.057   4.645   6.598
 8659WAT     H226220   2.991   4.782   6.540
 8660WAT      O26221   3.698   6.506   4.445
 8660WAT     H126222   3.728   6.511   4.349
 8660WAT     H226223   3.766   6.550   4.504
 8661WAT      O26224   4.372   0.547   0.981
 8661WAT     H126225   4.447   0.611   0.995
 8661WAT     H226226   4.332   0.524   1.069
 8662WAT      O26227   3.960   1.513   5.272
 8662WAT     H126228   4.013   1.455   5.211
 8662WAT     H226229   3.864   1.515   5.242
 8663WAT      O26230   6.899   7.215   2.112
 8663WAT     H126231   6.997   7.203   2.129
 8663WAT     H226232   6.851   7.223   2.199
 8664WAT      O26233   4.923   4.130   8.148
 8664WAT     H126234   4.845   4.180   8.185
 8664WAT     H226235   4.969   4.080   8.222
 8665WAT      O26236   5.693   6.273   9.045
 8665WAT     H126237   5.742   6.318   8.971
 8665WAT     H226238   5.599   6.305   9.048
 8666WAT      O26239   3.657   6.798   4.332
 8666WAT     H126240   3.582   6.818   4.269
 8666WAT     H226241   3.744   6.823   4.289
 8667WAT      O26242   0.560   6.163   0.980
 8667WAT     H126243   0.519   6.153   1.071
 8667WAT     H226244   0.511   6.233   0.929
 8668WAT      O26245   8.921   8.463   3.872
 8668WAT     H126246   8.944   8.490   3.778
 8668WAT     H226247   8.984   8.392   3.903
 8669WAT      O26248   9.413   8.743   9.230
 8669WAT     H126249   9.386   8.657   9.273
 8669WAT     H226250   9.407   8.735   9.131
 8670WAT      O26251   6.514   0.121   5.637
 8670WAT     H126252   6.488   0.206   5.683
 8670WAT     H226253   6.601   0.089   5.674
 8671WAT      O26254   6.502   1.035   9.634
 8671WAT     H126255   6.452   1.119   9.657
 8671WAT     H226256   6.599   1.048   9.655
 8672WAT      O26257   1.649   7.720   6.434
 8672WAT     H126258   1.656   7.664   6.517
 8672WAT     H226259   1.646   7.817   6.460
 8673WAT      O26260   7.901   0.843   0.379
 8673WAT     H126261   7.835   0.772   0.405
 8673WAT     H226262   7.981   0.838   0.438
 8674WAT      O26263   5.950   1.692   6.781
 8674WAT     H126264   5.931   1.788   6.763
 8674WAT     H226265   5.988   1.683   6.873
 8675WAT      O26266   9.344   2.338   1.021
 8675WAT     H126267   9.303   2.427   1.002
 8675WAT     H226268   9.421   2.323   0.959
 8676WAT      O26269   0.836   1.671   6.530
 8676WAT     H126270   0.747   1.644   6.493
 8676WAT     H226271   0.907   1.658   6.460
 8677WAT      O26272   9.329   5.298   2.915
 8677WAT     H126273   9.369   5.255   2.834
 8677WAT     H226274   9.344   5.397   2.911
 8678WAT      O26275   8.975   6.135   3.128
 8678WAT     H126276   8.903   6.097   3.070
 8678WAT     H226277   8.977   6.086   3.215
 8679WAT      O26278   3.203   6.174   4.741
 8679WAT     H126279   3.299   6.147   4.752
 8679WAT     H226280   3.160   6.179   4.831
 8680WAT      O26281   5.923   4.446   5.598
 8680WAT     H126282   5.926   4.423   5.501
 8680WAT     H226283   5.844   4.505   5.616
 8681WAT      O26284   8.900   0.742   0.446
 8681WAT     H126285   8.935   0.789   0.365
 8681WAT     H226286   8.907   0.802   0.525
 8682WAT      O26287   2.546   8.399   2.155
 8682WAT     H126288   2.590   8.357   2.234
 8682WAT     H226289   2.615   8.424   2.087
 8683WAT      O26290   9.405   2.691   0.672
 8683WAT     H126291   9.342   2.753   0.627
 8683WAT     H226292   9.428   2.616   0.610
 8684WAT      O26293   2.195   4.731   9.572
 8684WAT     H126294   2.106   4.738   9.616
 8684WAT     H226295   2.266   4.759   9.637
 8685WAT      O26296   3.596   9.707   0.566
 8685WAT     H126297   3.534   9.759   0.623
 8685WAT     H226298   3.681   9.758   0.552
 8686WAT      O26299   7.044   7.974   8.183
 8686WAT     H126300   7.098   8.047   8.143
 8686WAT     H226301   7.050   7.978   8.283
 8687WAT      O26302   6.450   1.355   6.832
 8687WAT     H126303   6.498   1.292   6.892
 8687WAT     H226304   6.512   1.428   6.804
 8688WAT      O26305   0.678   2.700   5.405
 8688WAT     H126306   0.632   2.786   5.384
 8688WAT     H226307   0.734   2.710   5.487
 8689WAT      O26308   3.190   3.378   6.610
 8689WAT     H126309   3.249   3.306   6.647
 8689WAT     H226310   3.233   3.467   6.624
 8690WAT      O26311   2.418   2.739   2.030
 8690WAT     H126312   2.497   2.706   1.977
 8690WAT     H226313   2.346   2.670   2.028
 8691WAT      O26314   2.236   5.275   0.259
 8691WAT     H126315   2.280   5.198   0.304
 8691WAT     H226316   2.263   5.360   0.303
 8692WAT      O26317   0.858   4.035   3.788
 8692WAT     H126318   0.762   4.024   3.814
 8692WAT     H226319   0.913   4.047   3.870
 8693WAT      O26320   8.723   5.450   4.295
 8693WAT     H126321   8.815   5.417   4.316
 8693WAT     H226322   8.655   5.387   4.333
 8694WAT      O26323   8.685   9.609   6.612
 8694WAT     H126324   8.775   9.566   6.622
 8694WAT     H226325   8.647   9.627   6.703
 8695WAT      O26326   1.724   5.797   5.202
 8695WAT     H126327   1.693   5.704   5.221
 8695WAT     H226328   1.784   5.828   5.276
 8696WAT      O26329   2.505   5.669   7.500
 8696WAT     H126330   2.486   5.646   7.595
 8696WAT     H226331   2.503   5.585   7.445
 8697WAT      O26332   1.517   6.386   2.093
 8697WAT     H126333   1.420   6.408   2.086
 8697WAT     H226334   1.569   6.469   2.111
 8698WAT      O26335   4.405   1.391   8.060
 8698WAT     H126336   4.442   1.305   8.096
 8698WAT     H226337   4.309   1.378   8.036
 8699WAT      O26338   0.061   3.809   1.957
 8699WAT     H126339   0.048   3.891   2.013
 8699WAT     H226340   0.148   3.766   1.980
 8700WAT      O26341   6.195   2.661   2.220
 8700WAT     H126342   6.178   2.690   2.314
 8700WAT     H226343   6.230   2.739   2.167
 8701WAT      O26344   9.211   8.236   7.587
 8701WAT     H126345   9.298   8.207   7.548
 8701WAT     H226346   9.135   8.196   7.536
 8702WAT      O26347   7.835   8.544   5.416
 8702WAT     H126348   7.797   8.572   5.505
 8702WAT     H226349   7.878   8.454   5.425
 8703WAT      O26350   7.425   1.772   8.822
 8703WAT     H126351   7.437   1.863   8.782
 8703WAT     H226352   7.513   1.736   8.851
 8704WAT      O26353   0.476   7.444   3.507
 8704WAT     H126354   0.403   7.377   3.514
 8704WAT     H226355   0.471   7.489   3.418
 8705WAT      O26356   7.249   5.841   9.303
 8705WAT     H126357   7.205   5.761   9.343
 8705WAT     H226358   7.273   5.906   9.376
 8706WAT      O26359   2.025   1.524   7.103
 8706WAT     H126360   2.023   1.624   7.100
 8706WAT     H226361   1.934   1.489   7.121
 8707WAT      O26362   0.584   8.378   4.159
 8707WAT     H126363   0.540   8.458   4.117
 8707WAT     H226364   0.681   8.398   4.173
 8708WAT      O26365   0.623   4.760   0.498
 8708WAT     H126366   0.587   4.713   0.417
 8708WAT     H226367   0.613   4.858   0.487
 8709WAT      O26368   6.313   1.662   1.273
 8709WAT     H126369   6.290   1.590   1.338
 8709WAT     H226370   6.247   1.737   1.282
 8710WAT      O26371   4.881   0.882   3.976
 8710WAT     H126372   4.797   0.844   3.937
 8710WAT     H226373   4.935   0.924   3.904
 8711WAT      O26374   9.228   1.566   4.199
 8711WAT     H126375   9.276   1.625   4.134
 8711WAT     H226376   9.156   1.618   4.245
 8712WAT      O26377   5.950   0.605   5.627
 8712WAT     H126378   5.952   0.547   5.708
 8712WAT     H226379   5.855   0.628   5.605
 8713WAT      O26380   6.463   6.936   0.462
 8713WAT     H126381   6.502   6.949   0.553
 8713WAT     H226382   6.509   6.996   0.396
 8714WAT      O26383   0.201   5.220   1.612
 8714WAT     H126384   0.240   5.262   1.530
 8714WAT     H226385   0.101   5.219   1.605
 8715WAT      O26386   7.780   4.963   7.187
 8715WAT     H126387   7.838   4.938   7.264
 8715WAT     H226388   7.717   4.887   7.167
 8716WAT      O26389   6.810   2.068   1.622
 8716WAT     H126390   6.856   2.146   1.579
 8716WAT     H226391   6.857   1.983   1.597
 8717WAT      O26392   7.529   5.566   0.912
 8717WAT     H126393   7.441   5.536   0.948
 8717WAT     H226394   7.602   5.509   0.950
 8718WAT      O26395   3.721   8.572   4.311
 8718WAT     H126396   3.778   8.640   4.357
 8718WAT     H226397   3.667   8.522   4.379
 8719WAT      O26398   4.696   2.378   3.005
 8719WAT     H126399   4.790   2.350   3.026
 8719WAT     H226400   4.658   2.428   3.083
 8720WAT      O26401   2.636   9.821   7.328
 8720WAT     H126402   2.724   9.789   7.296
 8720WAT     H226403   2.588   9.869   7.255
 8721WAT      O26404   3.982   1.204   1.280
 8721WAT     H126405   3.932   1.287   1.254
 8721WAT     H226406   3.923   1.145   1.335
 8722WAT      O26407   9.103   7.069   1.799
 8722WAT     H126408   9.071   7.085   1.705
 8722WAT     H226409   9.195   7.107   1.809
 8723WAT      O26410   9.361   5.129   0.490
 8723WAT     H126411   9.265   5.151   0.507
 8723WAT     H226412   9.411   5.127   0.576
 8724WAT      O26413   4.035   7.947   3.204
 8724WAT     H126414   4.055   7.873   3.140
 8724WAT     H226415   4.109   8.014   3.201
 8725WAT      O26416   4.911   7.777   9.313
 8725WAT     H126417   4.879   7.684   9.295
 8725WAT     H226418   4.958   7.812   9.231
 8726WAT      O26419   3.142   8.256   7.947
 8726WAT     H126420   3.092   8.174   7.920
 8726WAT     H226421   3.096   8.337   7.910
 8727WAT      O26422   6.795   5.133   8.213
 8727WAT     H126423   6.872   5.071   8.195
 8727WAT     H226424   6.709   5.081   8.210
 8728WAT      O26425   1.230   5.755   7.022
 8728WAT     H126426   1.243   5.658   7.003
 8728WAT     H226427   1.319   5.800   7.029
 8729WAT      O26428   3.859   4.440   2.811
 8729WAT     H126429   3.806   4.509   2.761
 8729WAT     H226430   3.852   4.457   2.909
 8730WAT      O26431   6.229   1.808   4.620
 8730WAT     H126432   6.313   1.848   4.583
 8730WAT     H226433   6.153   1.871   4.606
 8731WAT      O26434   3.037   4.035   4.512
 8731WAT     H126435   3.018   4.003   4.605
 8731WAT     H226436   2.965   4.099   4.484
 8732WAT      O26437   1.354   4.928   1.881
 8732WAT     H126438   1.308   4.851   1.838
 8732WAT     H226439   1.424   4.964   1.820
 8733WAT      O26440   0.214   4.932   3.374
 8733WAT     H126441   0.292   4.924   3.436
 8733WAT     H226442   0.241   4.901   3.283
 8734WAT      O26443   0.803   5.240   2.498
 8734WAT     H126444   0.860   5.322   2.489
 8734WAT     H226445   0.858   5.158   2.480
 8735WAT      O26446   3.107   5.513   2.414
 8735WAT     H126447   3.130   5.535   2.319
 8735WAT     H226448   3.008   5.517   2.427
 8736WAT      O26449   0.020   7.995   3.962
 8736WAT     H126450  -0.028   8.083   3.960
 8736WAT     H226451   0.055   7.974   3.871
 8737WAT      O26452   3.794   8.564   2.956
 8737WAT     H126453   3.803   8.543   2.858
 8737WAT     H226454   3.874   8.528   3.005
 8738WAT      O26455   3.956   6.533   2.885
 8738WAT     H126456   3.858   6.513   2.880
 8738WAT     H226457   3.998   6.511   2.797
 8739WAT      O26458   4.297   2.312   3.754
 8739WAT     H126459   4.246   2.390   3.718
 8739WAT     H226460   4.360   2.344   3.825
 8740WAT      O26461   8.510   6.224   8.824
 8740WAT     H126462   8.424   6.267   8.853
 8740WAT     H226463   8.551   6.279   8.751
 8741WAT      O26464   0.198   8.634   5.035
 8741WAT     H126465   0.225   8.539   5.024
 8741WAT     H226466   0.127   8.657   4.968
 8742WAT      O26467   5.035   4.600   1.213
 8742WAT     H126468   5.097   4.639   1.145
 8742WAT     H226469   5.087   4.541   1.275
 8743WAT      O26470   9.882   1.033   6.729
 8743WAT     H126471   9.858   1.129   6.748
 8743WAT     H226472   9.871   1.015   6.631
 8744WAT      O26473   6.741   6.944   9.173
 8744WAT     H126474   6.685   7.026   9.175
 8744WAT     H226475   6.682   6.864   9.157
 8745WAT      O26476   8.205   5.047   7.441
 8745WAT     H126477   8.238   5.059   7.535
 8745WAT     H226478   8.262   4.979   7.394
 8746WAT      O26479   5.733   3.305   5.065
 8746WAT     H126480   5.766   3.211   5.056
 8746WAT     H226481   5.641   3.312   5.027
 8747WAT      O26482   9.517   1.716   8.735
 8747WAT     H126483   9.442   1.653   8.712
 8747WAT     H226484   9.482   1.790   8.793
 8748WAT      O26485   7.669   1.578   5.354
 8748WAT     H126486   7.641   1.482   5.343
 8748WAT     H226487   7.611   1.622   5.423
 8749WAT      O26488   7.486   7.862   8.097
 8749WAT     H126489   7.557   7.869   8.168
 8749WAT     H226490   7.522   7.896   8.011
 8750WAT      O26491   2.099   8.834   0.892
 8750WAT     H126492   2.138   8.746   0.866
 8750WAT     H226493   2.021   8.820   0.952
 8751WAT      O26494   2.932   9.135   8.903
 8751WAT     H126495   3.002   9.063   8.903
 8751WAT     H226496   2.974   9.222   8.877
 8752WAT      O26497   9.170   1.670   3.383
 8752WAT     H126498   9.233   1.745   3.402
 8752WAT     H226499   9.213   1.606   3.319
 8753WAT      O26500   5.742   9.620   2.968
 8753WAT     H126501   5.834   9.581   2.965
 8753WAT     H226502   5.734   9.692   2.900
 8754WAT      O26503   8.378   8.013   9.412
 8754WAT     H126504   8.460   8.024   9.468
 8754WAT     H226505   8.317   7.945   9.454
 8755WAT      O26506   3.777   1.609   6.940
 8755WAT     H126507   3.727   1.666   7.005
 8755WAT     H226508   3.776   1.653   6.850
 8756WAT      O26509   2.393   0.048   3.364
 8756WAT     H126510   2.420  -0.014   3.438
 8756WAT     H226511   2.475   0.093   3.327
 8757WAT      O26512   4.403   5.179   0.858
 8757WAT     H126513   4.465   5.180   0.936
 8757WAT     H226514   4.333   5.249   0.870
 8758WAT      O26515   5.523   5.394   3.425
 8758WAT     H126516   5.574   5.420   3.343
 8758WAT     H226517   5.451   5.329   3.400
 8759WAT      O26518   5.510   4.647   3.162
 8759WAT     H126519   5.546   4.597   3.240
 8759WAT     H226520   5.414   4.670   3.178
 8760WAT      O26521   8.496   2.439   8.458
 8760WAT     H126522   8.544   2.425   8.372
 8760WAT     H226523   8.483   2.351   8.504
 8761WAT      O26524   1.168   2.316   4.382
 8761WAT     H126525   1.155   2.316   4.283
 8761WAT     H226526   1.265   2.326   4.404
 8762WAT      O26527   5.881   1.627   7.283
 8762WAT     H126528   5.896   1.720   7.317
 8762WAT     H226529   5.861   1.566   7.360
 8763WAT      O26530   2.415   3.358   4.292
 8763WAT     H126531   2.354   3.403   4.227
 8763WAT     H226532   2.510   3.369   4.262
 8764WAT      O26533   8.074   2.211   4.452
 8764WAT     H126534   8.003   2.168   4.507
 8764WAT     H226535   8.108   2.292   4.498
 8765WAT      O26536   6.174   7.555   2.574
 8765WAT     H126537   6.174   7.651   2.603
 8765WAT     H226538   6.129   7.500   2.644
 8766WAT      O26539   0.976   8.246   3.451
 8766WAT     H126540   0.946   8.239   3.355
 8766WAT     H226541   0.990   8.155   3.488
 8767WAT      O26542   2.939   5.137   2.608
 8767WAT     H126543   2.940   5.195   2.690
 8767WAT     H226544   2.941   5.041   2.635
 8768WAT      O26545   0.397   1.756   2.528
 8768WAT     H126546   0.430   1.661   2.534
 8768WAT     H226547   0.375   1.777   2.433
 8769WAT      O26548   9.473   9.713   1.723
 8769WAT     H126549   9.425   9.674   1.644
 8769WAT     H226550   9.433   9.678   1.807
 8770WAT      O26551   3.157   8.534   7.616
 8770WAT     H126552   3.104   8.610   7.654
 8770WAT     H226553   3.195   8.561   7.528
 8771WAT      O26554   7.784   4.558   0.897
 8771WAT     H126555   7.775   4.649   0.857
 8771WAT     H226556   7.697   4.509   0.887
 8772WAT      O26557   7.028   1.545   4.195
 8772WAT     H126558   7.038   1.527   4.292
 8772WAT     H226559   6.986   1.635   4.182
 8773WAT      O26560   9.844   3.102   4.812
 8773WAT     H126561   9.912   3.127   4.881
 8773WAT     H226562   9.846   3.003   4.797
 8774WAT      O26563   8.373   2.013   8.092
 8774WAT     H126564   8.346   2.005   7.996
 8774WAT     H226565   8.458   1.962   8.107
 8775WAT      O26566   2.022   5.199   5.351
 8775WAT     H126567   2.015   5.298   5.364
 8775WAT     H226568   1.992   5.152   5.434
 8776WAT      O26569   1.102   8.764   3.044
 8776WAT     H126570   1.128   8.730   3.135
 8776WAT     H226571   1.025   8.711   3.009
 8777WAT      O26572   4.077   4.400   6.411
 8777WAT     H126573   4.010   4.404   6.336
 8777WAT     H226574   4.057   4.320   6.468
 8778WAT      O26575   4.394   2.074   5.050
 8778WAT     H126576   4.294   2.083   5.049
 8778WAT     H226577   4.421   2.024   5.133
 8779WAT      O26578   8.191   6.868   5.585
 8779WAT     H126579   8.284   6.892   5.556
 8779WAT     H226580   8.125   6.931   5.544
 8780WAT      O26581   6.978   6.716   0.606
 8780WAT     H126582   7.040   6.640   0.586
 8780WAT     H226583   6.905   6.720   0.537
 8781WAT      O26584   0.595   1.387   7.914
 8781WAT     H126585   0.498   1.387   7.938
 8781WAT     H226586   0.613   1.460   7.849
 8782WAT      O26587   5.576   0.022   2.051
 8782WAT     H126588   5.624   0.103   2.084
 8782WAT     H226589   5.633  -0.024   1.982
 8783WAT      O26590   1.542   6.637   1.813
 8783WAT     H126591   1.589   6.639   1.901
 8783WAT     H226592   1.599   6.588   1.747
 8784WAT      O26593   3.941   4.909   3.105
 8784WAT     H126594   3.970   4.984   3.046
 8784WAT     H226595   3.966   4.930   3.200
 8785WAT      O26596   7.503   8.350   7.738
 8785WAT     H126597   7.554   8.398   7.810
 8785WAT     H226598   7.463   8.266   7.775
 8786WAT      O26599   3.289   4.234   1.014
 8786WAT     H126600   3.240   4.287   0.945
 8786WAT     H226601   3.232   4.156   1.042
 8787WAT      O26602   4.854   8.020   4.802
 8787WAT     H126603   4.831   7.994   4.708
 8787WAT     H226604   4.948   8.055   4.804
 8788WAT      O26605   5.079   7.625   5.912
 8788WAT     H126606   5.041   7.621   6.004
 8788WAT     H226607   5.097   7.532   5.879
 8789WAT      O26608   9.550   0.601   7.223
 8789WAT     H126609   9.476   0.546   7.184
 8789WAT     H226610   9.514   0.690   7.252
 8790WAT      O26611   6.764   8.505   7.688
 8790WAT     H126612   6.740   8.422   7.638
 8790WAT     H226613   6.802   8.481   7.777
 8791WAT      O26614   5.852   3.883   8.845
 8791WAT     H126615   5.761   3.899   8.883
 8791WAT     H226616   5.858   3.925   8.754
 8792WAT      O26617   9.677   5.856   2.563
 8792WAT     H126618   9.701   5.810   2.649
 8792WAT     H226619   9.757   5.904   2.528
 8793WAT      O26620   0.234   6.041   3.891
 8793WAT     H126621   0.170   5.977   3.934
 8793WAT     H226622   0.279   5.996   3.814
 8794WAT      O26623   3.200   0.800   0.151
 8794WAT     H126624   3.294   0.798   0.184
 8794WAT     H226625   3.199   0.808   0.051
 8795WAT      O26626   0.397   4.274   5.346
 8795WAT     H126627   0.368   4.216   5.270
 8795WAT     H226628   0.491   4.251   5.371
 8796WAT      O26629   1.248   7.031   3.032
 8796WAT     H126630   1.335   7.074   3.053
 8796WAT     H226631   1.220   6.973   3.109
 8797WAT      O26632   6.824   6.232   6.566
 8797WAT     H126633   6.725   6.240   6.556
 8797WAT     H226634   6.858   6.306   6.624
 8798WAT      O26635   4.306   3.357   7.505
 8798WAT     H126636   4.239   3.353   7.579
 8798WAT     H226637   4.298   3.275   7.448
 8799WAT      O26638   7.825   6.104   6.803
 8799WAT     H126639   7.870   6.186   6.765
 8799WAT     H226640   7.796   6.045   6.728
 8800WAT      O26641   2.780   4.358   4.735
 8800WAT     H126642   2.758   4.263   4.758
 8800WAT     H226643   2.879   4.370   4.736
 8801WAT      O26644   1.723   1.808   6.756
 8801WAT     H126645   1.635   1.855   6.764
 8801WAT     H226646   1.723   1.749   6.676
 8802WAT      O26647   9.025   9.106   3.636
 8802WAT     H126648   9.034   9.021   3.688
 8802WAT     H226649   9.000   9.180   3.699
 8803WAT      O26650   2.446   6.195   5.451
 8803WAT     H126651   2.498   6.126   5.399
 8803WAT     H226652   2.506   6.271   5.475
 8804WAT      O26653   2.644   2.431   3.818
 8804WAT     H126654   2.660   2.526   3.791
 8804WAT     H226655   2.618   2.377   3.738
 8805WAT      O26656   6.890   3.571   1.107
 8805WAT     H126657   6.849   3.492   1.062
 8805WAT     H226658   6.903   3.645   1.040
 8806WAT      O26659   5.767   1.704   4.993
 8806WAT     H126660   5.720   1.707   4.904
 8806WAT     H226661   5.853   1.654   4.984
 8807WAT      O26662   5.207   5.704   9.791
 8807WAT     H126663   5.246   5.796   9.795
 8807WAT     H226664   5.218   5.658   9.879
 8808WAT      O26665   8.024   3.603   6.494
 8808WAT     H126666   8.077   3.589   6.410
 8808WAT     H226667   7.931   3.568   6.479
 8809WAT      O26668   8.897   5.586   7.168
 8809WAT     H126669   8.856   5.591   7.259
 8809WAT     H226670   8.841   5.636   7.103
 8810WAT      O26671   3.857   1.394   8.989
 8810WAT     H126672   3.808   1.352   9.066
 8810WAT     H226673   3.843   1.338   8.907
 8811WAT      O26674   8.780   7.565   1.987
 8811WAT     H126675   8.726   7.494   2.031
 8811WAT     H226676   8.720   7.629   1.939
 8812WAT      O26677   7.792   6.221   8.747
 8812WAT     H126678   7.888   6.212   8.771
 8812WAT     H226679   7.759   6.312   8.775
 8813WAT      O26680   9.577   4.969   4.554
 8813WAT     H126681   9.482   4.952   4.527
 8813WAT     H226682   9.634   4.892   4.527
 8814WAT      O26683   7.833   5.349   9.014
 8814WAT     H126684   7.834   5.408   9.095
 8814WAT     H226685   7.758   5.283   9.022
 8815WAT      O26686   5.829   7.910   3.987
 8815WAT     H126687   5.890   7.847   3.940
 8815WAT     H226688   5.774   7.861   4.055
 8816WAT      O26689   4.837   8.065   4.477
 8816WAT     H126690   4.820   8.161   4.501
 8816WAT     H226691   4.771   8.035   4.408
 8817WAT      O26692   0.232   4.091   6.758
 8817WAT     H126693   0.280   4.165   6.805
 8817WAT     H226694   0.264   4.085   6.664
 8818WAT      O26695   9.325   8.831   9.490
 8818WAT     H126696   9.341   8.917   9.537
 8818WAT     H226697   9.370   8.832   9.401
 8819WAT      O26698   3.776   3.175   7.129
 8819WAT     H126699   3.855   3.124   7.094
 8819WAT     H226700   3.806   3.266   7.159
 8820WAT      O26701   4.274   1.091   6.113
 8820WAT     H126702   4.189   1.077   6.165
 8820WAT     H226703   4.256   1.082   6.015
 8821WAT      O26704   8.960   4.006   2.253
 8821WAT     H126705   8.871   4.031   2.290
 8821WAT     H226706   8.948   3.956   2.167
 8822WAT      O26707   6.038   3.485   1.394
 8822WAT     H126708   5.995   3.474   1.483
 8822WAT     H226709   6.000   3.566   1.349
 8823WAT      O26710   2.662   7.143   1.901
 8823WAT     H126711   2.739   7.195   1.864
 8823WAT     H226712   2.675   7.046   1.880
 8824WAT      O26713   2.422   6.020   4.898
 8824WAT     H126714   2.481   6.066   4.832
 8824WAT     H226715   2.451   6.043   4.991
 8825WAT      O26716   6.269   0.816   1.500
 8825WAT     H126717   6.170   0.809   1.507
 8825WAT     H226718   6.309   0.817   1.592
 8826WAT      O26719   0.579   2.856   2.673
 8826WAT     H126720   0.601   2.924   2.603
 8826WAT     H226721   0.596   2.894   2.763
 8827WAT      O26722   6.577   0.585   2.566
 8827WAT     H126723   6.654   0.524   2.584
 8827WAT     H226724   6.501   0.562   2.627
 8828WAT      O26725   5.295   2.045   3.060
 8828WAT     H126726   5.333   2.055   2.968
 8828WAT     H226727   5.365   2.006   3.120
 8829WAT      O26728   7.980   5.528   1.831
 8829WAT     H126729   7.905   5.495   1.774
 8829WAT     H226730   8.061   5.544   1.774
 8830WAT      O26731   3.302   0.528   3.102
 8830WAT     H126732   3.296   0.552   3.005
 8830WAT     H226733   3.358   0.446   3.113
 8831WAT      O26734   2.989   8.277   7.540
 8831WAT     H126735   3.022   8.311   7.452
 8831WAT     H226736   3.068   8.251   7.597
 8832WAT      O26737   3.958   3.424   6.593
 8832WAT     H126738   4.048   3.380   6.589
 8832WAT     H226739   3.889   3.357   6.618
 8833WAT      O26740   2.453   3.579   6.083
 8833WAT     H126741   2.543   3.612   6.055
 8833WAT     H226742   2.461   3.487   6.121
 8834WAT      O26743   1.083   3.529   7.658
 8834WAT     H126744   1.031   3.577   7.588
 8834WAT     H226745   1.028   3.454   7.696
 8835WAT      O26746   9.448   2.883   0.021
 8835WAT     H126747   9.533   2.930  -0.003
 8835WAT     H226748   9.422   2.821  -0.053
 8836WAT      O26749   4.289   9.738   0.669
 8836WAT     H126750   4.322   9.810   0.608
 8836WAT     H226751   4.356   9.724   0.743
 8837WAT      O26752   7.048   8.531   7.634
 8837WAT     H126753   6.959   8.576   7.621
 8837WAT     H226754   7.071   8.479   7.552
 8838WAT      O26755   7.056   3.512   9.179
 8838WAT     H126756   7.119   3.575   9.135
 8838WAT     H226757   7.051   3.533   9.277
 8839WAT      O26758   1.174   4.584   3.365
 8839WAT     H126759   1.217   4.664   3.322
 8839WAT     H226760   1.075   4.598   3.368
 8840WAT      O26761   6.466   9.387   6.353
 8840WAT     H126762   6.406   9.338   6.290
 8840WAT     H226763   6.456   9.485   6.339
 8841WAT      O26764   0.951   2.839   0.581
 8841WAT     H126765   0.930   2.761   0.523
 8841WAT     H226766   0.888   2.914   0.561
 8842WAT      O26767   5.006   7.082   6.126
 8842WAT     H126768   4.933   7.015   6.141
 8842WAT     H226769   5.020   7.094   6.027
 8843WAT      O26770   0.219   3.843   6.435
 8843WAT     H126771   0.314   3.872   6.425
 8843WAT     H226772   0.201   3.766   6.375
 8844WAT      O26773   3.453   4.680   6.220
 8844WAT     H126774   3.374   4.631   6.183
 8844WAT     H226775   3.457   4.771   6.181
 8845WAT      O26776   3.780   4.763   1.169
 8845WAT     H126777   3.841   4.684   1.172
 8845WAT     H226778   3.833   4.847   1.171
 8846WAT      O26779   8.513   1.772   1.194
 8846WAT     H126780   8.435   1.746   1.138
 8846WAT     H226781   8.487   1.770   1.291
 8847WAT      O26782   0.530   2.154   7.262
 8847WAT     H126783   0.504   2.209   7.183
 8847WAT     H226784   0.602   2.090   7.235
 8848WAT      O26785   3.202   6.062   0.724
 8848WAT     H126786   3.211   6.144   0.781
 8848WAT     H226787   3.163   6.087   0.636
 8849WAT      O26788   2.056   1.422   9.608
 8849WAT     H126789   2.072   1.327   9.634
 8849WAT     H226790   2.116   1.445   9.531
 8850WAT      O26791   9.446   3.210   7.385
 8850WAT     H126792   9.356   3.171   7.403
 8850WAT     H226793   9.457   3.294   7.438
 8851WAT      O26794   4.165   3.257   6.727
 8851WAT     H126795   4.181   3.159   6.714
 8851WAT     H226796   4.083   3.270   6.784
 8852WAT      O26797   0.145   6.212   5.344
 8852WAT     H126798   0.097   6.132   5.306
 8852WAT     H226799   0.082   6.264   5.402
 8853WAT      O26800   3.510   2.574   0.473
 8853WAT     H126801   3.526   2.624   0.388
 8853WAT     H226802   3.448   2.498   0.455
 8854WAT      O26803   1.638   3.949   7.168
 8854WAT     H126804   1.706   4.022   7.165
 8854WAT     H226805   1.624   3.912   7.076
 8855WAT      O26806   1.548   2.140   2.068
 8855WAT     H126807   1.545   2.040   2.058
 8855WAT     H226808   1.455   2.175   2.074
 8856WAT      O26809   9.106   4.248   2.265
 8856WAT     H126810   9.085   4.152   2.244
 8856WAT     H226811   9.121   4.258   2.363
 8857WAT      O26812   8.319   2.265   9.091
 8857WAT     H126813   8.333   2.260   8.992
 8857WAT     H226814   8.327   2.360   9.121
 8858WAT      O26815   6.026   5.797   6.469
 8858WAT     H126816   6.089   5.872   6.450
 8858WAT     H226817   5.973   5.817   6.551
 8859WAT      O26818   6.779   2.269   8.786
 8859WAT     H126819   6.709   2.214   8.741
 8859WAT     H226820   6.754   2.284   8.882
 8860WAT      O26821   7.419   6.421   1.470
 8860WAT     H126822   7.367   6.383   1.547
 8860WAT     H226823   7.383   6.511   1.447
 8861WAT      O26824   8.400   7.104   7.618
 8861WAT     H126825   8.331   7.132   7.685
 8861WAT     H226826   8.451   7.025   7.653
 8862WAT      O26827   3.966   3.751   0.983
 8862WAT     H126828   4.012   3.721   1.067
 8862WAT     H226829   3.874   3.711   0.981
 8863WAT      O26830   8.102   5.565   9.373
 8863WAT     H126831   8.188   5.544   9.325
 8863WAT     H226832   8.123   5.599   9.465
 8864WAT      O26833   4.787   3.866   1.949
 8864WAT     H126834   4.813   3.855   2.045
 8864WAT     H226835   4.705   3.923   1.943
 8865WAT      O26836   6.529   3.295   0.677
 8865WAT     H126837   6.479   3.224   0.727
 8865WAT     H226838   6.474   3.328   0.601
 8866WAT      O26839   4.885   0.120   8.110
 8866WAT     H126840   4.885   0.220   8.106
 8866WAT     H226841   4.918   0.091   8.200
 8867WAT      O26842   2.656   8.882   6.587
 8867WAT     H126843   2.624   8.804   6.533
 8867WAT     H226844   2.625   8.967   6.544
 8868WAT      O26845   5.986   3.814   7.600
 8868WAT     H126846   6.059   3.881   7.616
 8868WAT     H226847   5.921   3.851   7.534
 8869WAT      O26848   7.586   1.911   0.642
 8869WAT     H126849   7.542   1.826   0.615
 8869WAT     H226850   7.580   1.978   0.568
 8870WAT      O26851   1.292   7.906   1.979
 8870WAT     H126852   1.249   7.996   1.981
 8870WAT     H226853   1.231   7.839   2.020
 8871WAT      O26854   0.716   0.962   8.120
 8871WAT     H126855   0.666   0.890   8.073
 8871WAT     H226856   0.689   0.964   8.216
 8872WAT      O26857   3.751   4.386   2.103
 8872WAT     H126858   3.754   4.301   2.156
 8872WAT     H226859   3.658   4.421   2.102
 8873WAT      O26860   1.231   4.664   0.216
 8873WAT     H126861   1.321   4.704   0.203
 8873WAT     H226862   1.190   4.645   0.126
 8874WAT      O26863   6.692   9.498   0.377
 8874WAT     H126864   6.779   9.450   0.364
 8874WAT     H226865   6.674   9.508   0.475
 8875WAT      O26866   9.842   6.472   8.763
 8875WAT     H126867   9.802   6.390   8.804
 8875WAT     H226868   9.930   6.449   8.723
 8876WAT      O26869   9.547   7.149   4.059
 8876WAT     H126870   9.611   7.104   3.996
 8876WAT     H226871   9.582   7.143   4.152
 8877WAT      O26872   4.763   7.454   0.919
 8877WAT     H126873   4.795   7.371   0.874
 8877WAT     H226874   4.694   7.499   0.863
 8878WAT      O26875   8.897   2.443   7.253
 8878WAT     H126876   8.848   2.383   7.189
 8878WAT     H226877   8.887   2.538   7.223
 8879WAT      O26878   6.051   8.626   4.518
 8879WAT     H126879   6.047   8.658   4.613
 8879WAT     H226880   6.117   8.551   4.511
 8880WAT      O26881   1.392   3.835   6.274
 8880WAT     H126882   1.297   3.865   6.260
 8880WAT     H226883   1.450   3.874   6.203
 8881WAT      O26884   2.280   2.831   5.473
 8881WAT     H126885   2.266   2.919   5.428
 8881WAT     H226886   2.196   2.777   5.467
 8882WAT      O26887   6.292   1.310   5.467
 8882WAT     H126888   6.327   1.250   5.539
 8882WAT     H226889   6.205   1.275   5.433
 8883WAT      O26890   3.152   1.371   4.200
 8883WAT     H126891   3.099   1.419   4.130
 8883WAT     H226892   3.243   1.350   4.164
 8884WAT      O26893   7.186   9.656   4.560
 8884WAT     H126894   7.167   9.666   4.462
 8884WAT     H226895   7.152   9.737   4.608
 8885WAT      O26896   1.514   6.255   1.571
 8885WAT     H126897   1.435   6.292   1.621
 8885WAT     H226898   1.512   6.155   1.578
 8886WAT      O26899   0.438   1.690   1.034
 8886WAT     H126900   0.408   1.767   1.090
 8886WAT     H226901   0.498   1.723   0.961
 8887WAT      O26902   8.758   7.414   4.856
 8887WAT     H126903   8.809   7.378   4.777
 8887WAT     H226904   8.772   7.355   4.935
 8888WAT      O26905   9.089   6.680   3.784
 8888WAT     H126906   9.051   6.619   3.854
 8888WAT     H226907   9.016   6.711   3.724
 8889WAT      O26908   9.275   0.164   9.242
 8889WAT     H126909   9.372   0.181   9.228
 8889WAT     H226910   9.246   0.089   9.182
 8890WAT      O26911   2.056   7.865   4.948
 8890WAT     H126912   1.964   7.862   4.988
 8890WAT     H226913   2.116   7.918   5.008
 8891WAT      O26914   8.551   2.232   7.460
 8891WAT     H126915   8.623   2.180   7.413
 8891WAT     H226916   8.471   2.238   7.400
 8892WAT      O26917   8.751   8.856   0.515
 8892WAT     H126918   8.829   8.897   0.563
 8892WAT     H226919   8.684   8.928   0.493
 8893WAT      O26920   3.862   4.175   9.616
 8893WAT     H126921   3.807   4.221   9.546
 8893WAT     H226922   3.902   4.244   9.678
 8894WAT      O26923   2.243   5.162   4.880
 8894WAT     H126924   2.232   5.251   4.924
 8894WAT     H226925   2.196   5.092   4.934
 8895WAT      O26926   6.177   0.583   3.869
 8895WAT     H126927   6.232   0.561   3.788
 8895WAT     H226928   6.228   0.559   3.951
 8896WAT      O26929   1.043   1.644   2.303
 8896WAT     H126930   1.043   1.595   2.390
 8896WAT     H226931   1.086   1.733   2.314
 8897WAT      O26932   9.765   9.342   3.935
 8897WAT     H126933   9.769   9.424   3.993
 8897WAT     H226934   9.732   9.265   3.989
 8898WAT      O26935   8.988   1.832   4.955
 8898WAT     H126936   8.970   1.806   5.050
 8898WAT     H226937   8.914   1.797   4.897
 8899WAT      O26938   8.420   7.300   5.960
 8899WAT     H126939   8.412   7.205   5.928
 8899WAT     H226940   8.441   7.359   5.882
 8900WAT      O26941   2.407   0.041   0.150
 8900WAT     H126942   2.422  -0.028   0.220
 8900WAT     H226943   2.370   0.124   0.193
 8901WAT      O26944   6.415   7.914   0.345
 8901WAT     H126945   6.422   7.999   0.293
 8901WAT     H226946   6.494   7.855   0.324
 8902WAT      O26947   7.260   3.122   7.360
 8902WAT     H126948   7.303   3.061   7.294
 8902WAT     H226949   7.161   3.122   7.346
 8903WAT      O26950   9.824   7.246   2.534
 8903WAT     H126951   9.737   7.285   2.504
 8903WAT     H226952   9.840   7.159   2.486
 8904WAT      O26953   7.314   1.696   5.272
 8904WAT     H126954   7.247   1.748   5.325
 8904WAT     H226955   7.324   1.605   5.311
 8905WAT      O26956   7.586   8.041   7.589
 8905WAT     H126957   7.612   7.971   7.523
 8905WAT     H226958   7.566   8.127   7.541
 8906WAT      O26959   5.763   6.051   0.945
 8906WAT     H126960   5.747   6.023   0.851
 8906WAT     H226961   5.733   5.979   1.007
 8907WAT      O26962   7.956   6.771   6.580
 8907WAT     H126963   7.857   6.783   6.571
 8907WAT     H226964   8.000   6.859   6.596
 8908WAT      O26965   1.369   6.604   8.301
 8908WAT     H126966   1.445   6.541   8.285
 8908WAT     H226967   1.384   6.654   8.385
 8909WAT      O26968   4.606   9.393   0.203
 8909WAT     H126969   4.544   9.417   0.128
 8909WAT     H226970   4.671   9.323   0.171
 8910WAT      O26971   8.552   3.372   2.963
 8910WAT     H126972   8.552   3.334   2.871
 8910WAT     H226973   8.620   3.324   3.019
 8911WAT      O26974   2.508   7.188   6.806
 8911WAT     H126975   2.465   7.110   6.852
 8911WAT     H226976   2.469   7.273   6.842
 8912WAT      O26977   9.459   8.728   6.405
 8912WAT     H126978   9.364   8.715   6.376
 8912WAT     H226979   9.461   8.792   6.483
 8913WAT      O26980   7.797   5.647   0.425
 8913WAT     H126981   7.766   5.709   0.353
 8913WAT     H226982   7.733   5.571   0.435
 8914WAT      O26983   9.255   5.168   8.813
 8914WAT     H126984   9.291   5.077   8.835
 8914WAT     H226985   9.314   5.238   8.852
 8915WAT      O26986   7.633   2.514   6.771
 8915WAT     H126987   7.606   2.424   6.736
 8915WAT     H226988   7.728   2.532   6.747
 8916WAT      O26989   8.702   3.509   6.834
 8916WAT     H126990   8.620   3.564   6.843
 8916WAT     H226991   8.782   3.568   6.822
 8917WAT      O26992   1.730   6.203   0.273
 8917WAT     H126993   1.805   6.138   0.261
 8917WAT     H226994   1.645   6.152   0.290
 8918WAT      O26995   1.772   4.474   5.734
 8918WAT     H126996   1.864   4.445   5.708
 8918WAT     H226997   1.764   4.479   5.834
 8919WAT      O26998   9.660   9.681   8.330
 8919WAT     H126999   9.641   9.712   8.423
 8919WAT     H227000   9.609   9.737   8.265
 8920WAT      O27001   1.661   0.005   2.363
 8920WAT     H127002   1.670   0.007   2.462
 8920WAT     H227003   1.621  -0.082   2.335
 8921WAT      O27004   6.673   0.071   3.089
 8921WAT     H127005   6.689   0.139   3.160
 8921WAT     H227006   6.576   0.045   3.089
 8922WAT      O27007   9.482   8.054   2.198
 8922WAT     H127008   9.416   8.067   2.271
 8922WAT     H227009   9.438   8.009   2.120
 8923WAT      O27010   8.727   5.373   2.676
 8923WAT     H127011   8.744   5.322   2.592
 8923WAT     H227012   8.647   5.335   2.723
 8924WAT      O27013   8.472   9.550   4.738
 8924WAT     H127014   8.374   9.570   4.739
 8924WAT     H227015   8.517   9.599   4.812
 8925WAT      O27016   4.472   1.116   9.196
 8925WAT     H127017   4.542   1.079   9.257
 8925WAT     H227018   4.470   1.064   9.111
 8926WAT      O27019   0.799   6.097   5.490
 8926WAT     H127020   0.754   6.146   5.416
 8926WAT     H227021   0.804   6.155   5.571
 8927WAT      O27022   1.298   8.879   2.846
 8927WAT     H127023   1.299   8.840   2.754
 8927WAT     H227024   1.222   8.838   2.898
 8928WAT      O27025   3.307   3.180   9.058
 8928WAT     H127026   3.241   3.255   9.054
 8928WAT     H227027   3.388   3.210   9.109
 8929WAT      O27028   0.622   7.775   8.735
 8929WAT     H127029   0.631   7.683   8.698
 8929WAT     H227030   0.538   7.782   8.789
 8930WAT      O27031   4.149   0.205   9.392
 8930WAT     H127032   4.204   0.288   9.400
 8930WAT     H227033   4.075   0.220   9.326
 8931WAT      O27034   5.413   9.459   9.466
 8931WAT     H127035   5.346   9.534   9.474
 8931WAT     H227036   5.470   9.458   9.549
 8932WAT      O27037   7.813   5.348   8.202
 8932WAT     H127038   7.780   5.332   8.295
 8932WAT     H227039   7.894   5.292   8.185
 8933WAT      O27040   8.567   0.187   3.616
 8933WAT     H127041   8.617   0.272   3.635
 8933WAT     H227042   8.596   0.116   3.680
 8934WAT      O27043   5.770   2.809   8.813
 8934WAT     H127044   5.720   2.879   8.763
 8934WAT     H227045   5.803   2.739   8.750
 8935WAT      O27046   8.943   5.540   6.669
 8935WAT     H127047   9.034   5.528   6.709
 8935WAT     H227048   8.904   5.627   6.700
 8936WAT      O27049   8.320   9.477   2.003
 8936WAT     H127050   8.277   9.548   2.057
 8936WAT     H227051   8.350   9.402   2.063
 8937WAT      O27052   7.441   2.067   7.937
 8937WAT     H127053   7.506   2.140   7.914
 8937WAT     H227054   7.490   1.992   7.982
 8938WAT      O27055   9.137   3.232   5.159
 8938WAT     H127056   9.140   3.175   5.241
 8938WAT     H227057   9.159   3.176   5.079
 8939WAT      O27058   2.522   0.460   0.053
 8939WAT     H127059   2.585   0.489  -0.018
 8939WAT     H227060   2.570   0.402   0.119
 8940WAT      O27061   2.881   5.359   9.431
 8940WAT     H127062   2.782   5.347   9.429
 8940WAT     H227063   2.905   5.421   9.505
 8941WAT      O27064   3.430   2.987   6.752
 8941WAT     H127065   3.465   2.962   6.661
 8941WAT     H227066   3.474   2.930   6.822
 8942WAT      O27067   6.038   0.848   8.841
 8942WAT     H127068   5.976   0.861   8.764
 8942WAT     H227069   5.987   0.809   8.918
 8943WAT      O27070   6.234   8.536   3.522
 8943WAT     H127071   6.320   8.543   3.574
 8943WAT     H227072   6.231   8.447   3.476
 8944WAT      O27073   4.291   6.534   6.952
 8944WAT     H127074   4.360   6.511   7.021
 8944WAT     H227075   4.203   6.495   6.979
 8945WAT      O27076   4.346   6.166   8.848
 8945WAT     H127077   4.338   6.069   8.824
 8945WAT     H227078   4.362   6.219   8.765
 8946WAT      O27079   1.378   8.426   3.600
 8946WAT     H127080   1.351   8.447   3.694
 8946WAT     H227081   1.296   8.407   3.546
 8947WAT      O27082   8.816   4.084   3.373
 8947WAT     H127083   8.875   4.010   3.406
 8947WAT     H227084   8.778   4.059   3.284
 8948WAT      O27085   7.956   0.121   9.864
 8948WAT     H127086   7.867   0.161   9.883
 8948WAT     H227087   7.978   0.135   9.767
 8949WAT      O27088   5.790   8.164   9.393
 8949WAT     H127089   5.807   8.145   9.296
 8949WAT     H227090   5.716   8.106   9.427
 8950WAT      O27091   1.960   3.740   7.047
 8950WAT     H127092   1.892   3.716   7.116
 8950WAT     H227093   2.026   3.666   7.036
 8951WAT      O27094   3.144   6.582   0.304
 8951WAT     H127095   3.170   6.513   0.236
 8951WAT     H227096   3.143   6.541   0.395
 8952WAT      O27097   5.767   7.363   2.222
 8952WAT     H127098   5.749   7.278   2.271
 8952WAT     H227099   5.864   7.367   2.196
 8953WAT      O27100   4.448   4.439   7.538
 8953WAT     H127101   4.521   4.406   7.478
 8953WAT     H227102   4.440   4.379   7.617
 8954WAT      O27103   9.514   6.734   5.530
 8954WAT     H127104   9.462   6.791   5.466
 8954WAT     H227105   9.574   6.673   5.479
 8955WAT      O27106   2.679   2.895   0.532
 8955WAT     H127107   2.683   2.821   0.599
 8955WAT     H227108   2.601   2.880   0.471
 8956WAT      O27109   0.927   0.202   5.895
 8956WAT     H127110   1.018   0.214   5.857
 8956WAT     H227111   0.918   0.110   5.934
 8957WAT      O27112   8.409   5.445   0.397
 8957WAT     H127113   8.346   5.406   0.331
 8957WAT     H227114   8.389   5.542   0.410
 8958WAT      O27115   6.388   7.507   5.909
 8958WAT     H127116   6.322   7.548   5.845
 8958WAT     H227117   6.475   7.556   5.902
 8959WAT      O27118   6.161   7.338   9.275
 8959WAT     H127119   6.077   7.284   9.267
 8959WAT     H227120   6.231   7.300   9.214
 8960WAT      O27121   4.201   5.120   0.118
 8960WAT     H127122   4.174   5.211   0.150
 8960WAT     H227123   4.252   5.074   0.190
 8961WAT      O27124   5.732   5.418   7.254
 8961WAT     H127125   5.726   5.438   7.352
 8961WAT     H227126   5.643   5.386   7.221
 8962WAT      O27127   1.991   6.457   7.179
 8962WAT     H127128   2.031   6.451   7.087
 8962WAT     H227129   1.893   6.442   7.174
 8963WAT      O27130   6.298   2.427   5.750
 8963WAT     H127131   6.246   2.492   5.694
 8963WAT     H227132   6.240   2.351   5.777
 8964WAT      O27133   1.687   2.539   3.180
 8964WAT     H127134   1.739   2.567   3.260
 8964WAT     H227135   1.596   2.509   3.208
 8965WAT      O27136   0.734   2.623   2.820
 8965WAT     H127137   0.726   2.636   2.721
 8965WAT     H227138   0.642   2.615   2.860
 8966WAT      O27139   3.232   5.824   9.417
 8966WAT     H127140   3.227   5.758   9.492
 8966WAT     H227141   3.249   5.915   9.455
 8967WAT      O27142   0.909   9.305   5.193
 8967WAT     H127143   0.994   9.302   5.140
 8967WAT     H227144   0.835   9.335   5.134
 8968WAT      O27145   4.853   7.391   1.641
 8968WAT     H127146   4.870   7.442   1.556
 8968WAT     H227147   4.757   7.361   1.643
 8969WAT      O27148   5.528   0.888   4.561
 8969WAT     H127149   5.432   0.859   4.551
 8969WAT     H227150   5.566   0.911   4.472
 8970WAT      O27151   1.288   6.451   7.269
 8970WAT     H127152   1.276   6.412   7.361
 8970WAT     H227153   1.238   6.396   7.203
 8971WAT      O27154   0.912   4.667   9.475
 8971WAT     H127155   0.842   4.595   9.472
 8971WAT     H227156   0.882   4.741   9.535
 8972WAT      O27157   4.048   9.309   8.012
 8972WAT     H127158   4.000   9.350   8.090
 8972WAT     H227159   3.982   9.262   7.954
 8973WAT      O27160   0.817   4.456   2.333
 8973WAT     H127161   0.737   4.496   2.288
 8973WAT     H227162   0.835   4.506   2.418
 8974WAT      O27163   0.247   1.217   3.530
 8974WAT     H127164   0.150   1.226   3.507
 8974WAT     H227165   0.258   1.209   3.629
 8975WAT      O27166   6.095   6.263   1.913
 8975WAT     H127167   6.044   6.189   1.958
 8975WAT     H227168   6.041   6.299   1.836
 8976WAT      O27169   5.252   1.925   1.886
 8976WAT     H127170   5.177   1.980   1.923
 8976WAT     H227171   5.310   1.982   1.828
 8977WAT      O27172   7.765   9.709   9.458
 8977WAT     H127173   7.715   9.653   9.392
 8977WAT     H227174   7.730   9.691   9.550
 8978WAT      O27175   2.812   9.806   0.799
 8978WAT     H127176   2.816   9.860   0.884
 8978WAT     H227177   2.786   9.866   0.723
 8979WAT      O27178   9.773   2.646   1.256
 8979WAT     H127179   9.685   2.604   1.232
 8979WAT     H227180   9.833   2.646   1.175
 8980WAT      O27181   1.035   4.037   9.659
 8980WAT     H127182   1.025   3.957   9.600
 8980WAT     H227183   1.017   4.010   9.754
 8981WAT      O27184   5.093   0.895   0.894
 8981WAT     H127185   5.031   0.869   0.819
 8981WAT     H227186   5.187   0.895   0.860
 8982WAT      O27187   2.019   0.176   6.249
 8982WAT     H127188   1.944   0.115   6.224
 8982WAT     H227189   2.037   0.167   6.347
 8983WAT      O27190   9.788   2.801   0.583
 8983WAT     H127191   9.716   2.849   0.634
 8983WAT     H227192   9.802   2.710   0.623
 8984WAT      O27193   7.866   6.618   2.879
 8984WAT     H127194   7.803   6.574   2.944
 8984WAT     H227195   7.819   6.631   2.792
 8985WAT      O27196   9.220   0.426   5.279
 8985WAT     H127197   9.254   0.339   5.317
 8985WAT     H227198   9.268   0.446   5.193
 8986WAT      O27199   1.828   7.905   7.383
 8986WAT     H127200   1.850   7.954   7.467
 8986WAT     H227201   1.759   7.957   7.331
 8987WAT      O27202   1.210   8.625   7.928
 8987WAT     H127203   1.177   8.539   7.887
 8987WAT     H227204   1.301   8.645   7.894
 8988WAT      O27205   7.135   1.415   3.572
 8988WAT     H127206   7.205   1.470   3.528
 8988WAT     H227207   7.086   1.470   3.640
 8989WAT      O27208   9.600   1.970   3.064
 8989WAT     H127209   9.684   1.968   3.119
 8989WAT     H227210   9.545   2.049   3.092
 8990WAT      O27211   3.255   3.894   8.042
 8990WAT     H127212   3.278   3.964   8.110
 8990WAT     H227213   3.340   3.851   8.009
 8991WAT      O27214   0.748   9.031   0.066
 8991WAT     H127215   0.651   9.039   0.089
 8991WAT     H227216   0.766   8.941   0.025
 8992WAT      O27217   3.154   1.069   0.290
 8992WAT     H127218   3.253   1.084   0.300
 8992WAT     H227219   3.139   0.984   0.240
 8993WAT      O27220   8.035   9.609   2.466
 8993WAT     H127221   8.071   9.663   2.390
 8993WAT     H227222   8.022   9.668   2.546
 8994WAT      O27223   7.876   0.576   0.164
 8994WAT     H127224   7.940   0.651   0.147
 8994WAT     H227225   7.890   0.540   0.257
 8995WAT      O27226   9.383   2.787   7.079
 8995WAT     H127227   9.296   2.767   7.033
 8995WAT     H227228   9.400   2.885   7.075
 8996WAT      O27229   4.921   0.884   7.301
 8996WAT     H127230   4.911   0.982   7.287
 8996WAT     H227231   5.001   0.866   7.359
 8997WAT      O27232   1.078   9.686   3.000
 8997WAT     H127233   1.108   9.760   2.939
 8997WAT     H227234   0.978   9.680   2.998
 8998WAT      O27235   3.060   6.579   4.204
 8998WAT     H127236   2.972   6.627   4.210
 8998WAT     H227237   3.066   6.511   4.276
 8999WAT      O27238   8.211   3.201   5.734
 8999WAT     H127239   8.179   3.168   5.823
 8999WAT     H227240   8.170   3.147   5.661
 9000WAT      O27241   8.734   9.679   5.235
 9000WAT     H127242   8.806   9.616   5.263
 9000WAT     H227243   8.651   9.663   5.290
 9001WAT      O27244   9.611   1.371   0.639
 9001WAT     H127245   9.540   1.343   0.703
 9001WAT     H227246   9.686   1.415   0.689
 9002WAT      O27247   9.593   6.197   4.513
 9002WAT     H127248   9.596   6.115   4.570
 9002WAT     H227249   9.510   6.248   4.533
 9003WAT      O27250   8.292   4.956   6.299
 9003WAT     H127251   8.327   5.043   6.264
 9003WAT     H227252   8.221   4.921   6.238
 9004WAT      O27253   0.770   2.737   8.627
 9004WAT     H127254   0.770   2.821   8.571
 9004WAT     H227255   0.864   2.710   8.646
 9005WAT      O27256   0.613   2.084   8.971
 9005WAT     H127257   0.694   2.033   8.998
 9005WAT     H227258   0.611   2.172   9.019
 9006WAT      O27259   9.803   1.452   2.513
 9006WAT     H127260   9.833   1.518   2.581
 9006WAT     H227261   9.860   1.370   2.519
 9007WAT      O27262   8.063   4.760   6.578
 9007WAT     H127263   8.158   4.772   6.549
 9007WAT     H227264   8.044   4.663   6.591
 9008WAT      O27265   8.590   1.093   8.388
 9008WAT     H127266   8.528   1.155   8.436
 9008WAT     H227267   8.679   1.137   8.377
 9009WAT      O27268   8.757   0.551   3.052
 9009WAT     H127269   8.683   0.510   3.106
 9009WAT     H227270   8.844   0.508   3.077
 9010WAT      O27271   1.232   9.273   1.997
 9010WAT     H127272   1.241   9.176   1.974
 9010WAT     H227273   1.282   9.327   1.929
 9011WAT      O27274   9.653   2.572   6.226
 9011WAT     H127275   9.612   2.576   6.317
 9011WAT     H227276   9.596   2.622   6.161
 9012WAT      O27277   1.727   5.125   5.580
 9012WAT     H127278   1.724   5.214   5.534
 9012WAT     H227279   1.771   5.059   5.519
 9013WAT      O27280   9.840   6.456   0.470
 9013WAT     H127281   9.773   6.404   0.418
 9013WAT     H227282   9.795   6.502   0.546
 9014WAT      O27283   7.900   6.231   8.307
 9014WAT     H127284   7.965   6.244   8.231
 9014WAT     H227285   7.875   6.321   8.344
 9015WAT      O27286   5.455   5.535   8.572
 9015WAT     H127287   5.433   5.452   8.521
 9015WAT     H227288   5.534   5.517   8.631
 9016WAT      O27289   8.671   2.384   8.260
 9016WAT     H127290   8.629   2.350   8.175
 9016WAT     H227291   8.686   2.308   8.323
 9017WAT      O27292   2.311   8.009   5.741
 9017WAT     H127293   2.330   7.962   5.655
 9017WAT     H227294   2.213   8.001   5.762
 9018WAT      O27295   5.042   0.502   7.573
 9018WAT     H127296   4.950   0.476   7.603
 9018WAT     H227297   5.047   0.498   7.473
 9019WAT      O27298   1.485   5.750   1.440
 9019WAT     H127299   1.468   5.678   1.507
 9019WAT     H227300   1.459   5.718   1.349
 9020WAT      O27301   8.892   2.169   8.251
 9020WAT     H127302   8.941   2.101   8.195
 9020WAT     H227303   8.950   2.249   8.264
 9021WAT      O27304   4.357   2.566   6.927
 9021WAT     H127305   4.407   2.483   6.951
 9021WAT     H227306   4.314   2.554   6.838
 9022WAT      O27307   5.641   5.561   4.046
 9022WAT     H127308   5.589   5.623   3.987
 9022WAT     H227309   5.716   5.611   4.090
 9023WAT      O27310   0.135   7.661   4.444
 9023WAT     H127311   0.207   7.643   4.512
 9023WAT     H227312   0.172   7.720   4.372
 9024WAT      O27313   8.568   1.819   8.164
 9024WAT     H127314   8.564   1.862   8.255
 9024WAT     H227315   8.539   1.724   8.171
 9025WAT      O27316   7.302   0.233   0.208
 9025WAT     H127317   7.392   0.189   0.214
 9025WAT     H227318   7.291   0.273   0.117
 9026WAT      O27319   6.182   7.816   4.637
 9026WAT     H127320   6.231   7.857   4.714
 9026WAT     H227321   6.179   7.881   4.561
 9027WAT      O27322   8.956   9.026   8.220
 9027WAT     H127323   8.948   9.122   8.247
 9027WAT     H227324   9.053   9.000   8.220
 9028WAT      O27325   6.145   9.318   9.427
 9028WAT     H127326   6.109   9.408   9.402
 9028WAT     H227327   6.196   9.326   9.513
 9029WAT      O27328   6.639   8.689   3.255
 9029WAT     H127329   6.648   8.758   3.183
 9029WAT     H227330   6.549   8.696   3.296
 9030WAT      O27331   9.065   1.730   2.830
 9030WAT     H127332   8.980   1.685   2.857
 9030WAT     H227333   9.134   1.715   2.900
 9031WAT      O27334   5.595   1.107   9.017
 9031WAT     H127335   5.642   1.130   8.932
 9031WAT     H227336   5.600   1.184   9.080
 9032WAT      O27337   5.039   9.581   9.302
 9032WAT     H127338   4.943   9.609   9.311
 9032WAT     H227339   5.077   9.619   9.218
 9033WAT      O27340   9.183   9.232   2.598
 9033WAT     H127341   9.219   9.321   2.628
 9033WAT     H227342   9.083   9.235   2.600
 9034WAT      O27343   9.220   1.707   1.882
 9034WAT     H127344   9.302   1.757   1.911
 9034WAT     H227345   9.178   1.753   1.804
 9035WAT      O27346   4.121   7.455   7.586
 9035WAT     H127347   4.037   7.424   7.542
 9035WAT     H227348   4.195   7.459   7.519
 9036WAT      O27349   6.947   4.916   1.620
 9036WAT     H127350   6.944   4.818   1.639
 9036WAT     H227351   6.875   4.940   1.555
 9037WAT      O27352   0.276   2.466   3.130
 9037WAT     H127353   0.186   2.509   3.130
 9037WAT     H227354   0.317   2.476   3.221
 9038WAT      O27355   8.755   8.922   7.074
 9038WAT     H127356   8.824   8.979   7.029
 9038WAT     H227357   8.676   8.977   7.098
 9039WAT      O27358   1.832   0.719   6.551
 9039WAT     H127359   1.865   0.813   6.557
 9039WAT     H227360   1.741   0.717   6.509
 9040WAT      O27361   9.011   4.846   1.436
 9040WAT     H127362   9.044   4.937   1.412
 9040WAT     H227363   8.915   4.851   1.463
 9041WAT      O27364   8.100   2.233   2.672
 9041WAT     H127365   8.040   2.190   2.604
 9041WAT     H227366   8.098   2.332   2.661
 9042WAT      O27367   1.720   0.617   4.841
 9042WAT     H127368   1.651   0.681   4.807
 9042WAT     H227369   1.808   0.664   4.849
 9043WAT      O27370   0.367   0.590   2.381
 9043WAT     H127371   0.366   0.595   2.480
 9043WAT     H227372   0.279   0.620   2.345
 9044WAT      O27373   7.182   5.875   5.398
 9044WAT     H127374   7.275   5.841   5.382
 9044WAT     H227375   7.183   5.975   5.394
 9045WAT      O27376   4.414   5.345   4.315
 9045WAT     H127377   4.455   5.365   4.226
 9045WAT     H227378   4.444   5.414   4.381
 9046WAT      O27379   9.236   4.053   8.840
 9046WAT     H127380   9.185   3.996   8.776
 9046WAT     H227381   9.293   3.996   8.899
 9047WAT      O27382   4.641   9.631   7.840
 9047WAT     H127383   4.693   9.612   7.756
 9047WAT     H227384   4.555   9.676   7.816
 9048WAT      O27385   7.763   9.504   0.151
 9048WAT     H127386   7.827   9.568   0.108
 9048WAT     H227387   7.752   9.424   0.093
 9049WAT      O27388   7.359   8.616   6.713
 9049WAT     H127389   7.455   8.589   6.710
 9049WAT     H227390   7.320   8.593   6.802
 9050WAT      O27391   7.146   2.765   9.312
 9050WAT     H127392   7.212   2.832   9.343
 9050WAT     H227393   7.178   2.673   9.335
 9051WAT      O27394   6.178   1.119   7.854
 9051WAT     H127395   6.223   1.035   7.824
 9051WAT     H227396   6.086   1.098   7.887
 9052WAT      O27397   4.187   7.953   8.109
 9052WAT     H127398   4.102   7.986   8.067
 9052WAT     H227399   4.214   8.015   8.182
 9053WAT      O27400   8.881   1.472   6.638
 9053WAT     H127401   8.842   1.446   6.550
 9053WAT     H227402   8.865   1.569   6.656
 9054WAT      O27403   6.487   1.068   6.193
 9054WAT     H127404   6.510   0.971   6.177
 9054WAT     H227405   6.473   1.113   6.106
 9055WAT      O27406   1.741   5.978   8.683
 9055WAT     H127407   1.672   5.960   8.753
 9055WAT     H227408   1.789   5.893   8.662
 9056WAT      O27409   5.343   0.137   9.086
 9056WAT     H127410   5.392   0.067   9.033
 9056WAT     H227411   5.314   0.098   9.173
 9057WAT      O27412   4.644   0.608   3.543
 9057WAT     H127413   4.566   0.547   3.557
 9057WAT     H227414   4.614   0.703   3.550
 9058WAT      O27415   2.232   9.332   4.836
 9058WAT     H127416   2.167   9.258   4.857
 9058WAT     H227417   2.324   9.304   4.862
 9059WAT      O27418   7.532   3.326   8.908
 9059WAT     H127419   7.577   3.316   8.819
 9059WAT     H227420   7.513   3.235   8.946
 9060WAT      O27421   4.887   5.285   6.833
 9060WAT     H127422   4.843   5.350   6.770
 9060WAT     H227423   4.833   5.201   6.836
 9061WAT      O27424   0.679   3.607   7.528
 9061WAT     H127425   0.721   3.627   7.617
 9061WAT     H227426   0.673   3.692   7.475
 9062WAT      O27427   4.814   0.815   7.701
 9062WAT     H127428   4.730   0.845   7.655
 9062WAT     H227429   4.889   0.810   7.635
 9063WAT      O27430   9.501   0.962   4.473
 9063WAT     H127431   9.485   0.974   4.571
 9063WAT     H227432   9.596   0.935   4.457
 9064WAT      O27433   6.605   2.831   2.199
 9064WAT     H127434   6.594   2.832   2.299
 9064WAT     H227435   6.530   2.881   2.157
 9065WAT      O27436   1.395   8.921   0.735
 9065WAT     H127437   1.453   9.000   0.754
 9065WAT     H227438   1.304   8.952   0.706
 9066WAT      O27439   5.834   2.411   0.127
 9066WAT     H127440   5.742   2.386   0.159
 9066WAT     H227441   5.835   2.411   0.027
 9067WAT      O27442   8.125   0.324   8.278
 9067WAT     H127443   8.186   0.268   8.221
 9067WAT     H227444   8.031   0.291   8.268
 9068WAT      O27445   1.929   0.243   9.539
 9068WAT     H127446   1.928   0.201   9.449
 9068WAT     H227447   1.899   0.338   9.533
 9069WAT      O27448   2.909   8.022   7.902
 9069WAT     H127449   2.879   8.053   7.992
 9069WAT     H227450   2.905   7.922   7.898
 9070WAT      O27451   2.844   4.109   9.573
 9070WAT     H127452   2.937   4.088   9.544
 9070WAT     H227453   2.843   4.196   9.622
 9071WAT      O27454   9.771   7.695   0.003
 9071WAT     H127455   9.717   7.734   0.078
 9071WAT     H227456   9.848   7.645   0.041
 9072WAT      O27457   1.966   0.437   6.216
 9072WAT     H127458   1.973   0.468   6.121
 9072WAT     H227459   1.982   0.338   6.220
 9073WAT      O27460   2.676   0.229   9.555
 9073WAT     H127461   2.608   0.290   9.514
 9073WAT     H227462   2.633   0.177   9.629
 9074WAT      O27463   4.306   8.975   6.297
 9074WAT     H127464   4.336   9.070   6.290
 9074WAT     H227465   4.306   8.947   6.393
 9075WAT      O27466   2.485   2.988   2.112
 9075WAT     H127467   2.474   2.894   2.080
 9075WAT     H227468   2.438   3.050   2.050
 9076WAT      O27469   8.866   0.359   8.272
 9076WAT     H127470   8.941   0.354   8.338
 9076WAT     H227471   8.809   0.439   8.293
 9077WAT      O27472   6.606   6.037   0.410
 9077WAT     H127473   6.633   5.966   0.475
 9077WAT     H227474   6.575   5.994   0.325
 9078WAT      O27475   3.091   8.925   8.835
 9078WAT     H127476   3.042   8.886   8.757
 9078WAT     H227477   3.145   8.854   8.879
 9079WAT      O27478   7.484   0.538   0.384
 9079WAT     H127479   7.536   0.615   0.345
 9079WAT     H227480   7.387   0.548   0.360
 9080WAT      O27481   0.286   5.325   2.581
 9080WAT     H127482   0.247   5.338   2.490
 9080WAT     H227483   0.354   5.396   2.599
 9081WAT      O27484   5.441   5.559   6.997
 9081WAT     H127485   5.372   5.632   6.996
 9081WAT     H227486   5.436   5.507   6.912
 9082WAT      O27487   8.486   8.274   9.331
 9082WAT     H127488   8.477   8.175   9.331
 9082WAT     H227489   8.415   8.314   9.388
 9083WAT      O27490   8.746   8.087   8.916
 9083WAT     H127491   8.739   8.043   8.826
 9083WAT     H227492   8.841   8.111   8.935
 9084WAT      O27493   8.735   6.672   4.448
 9084WAT     H127494   8.764   6.624   4.365
 9084WAT     H227495   8.809   6.669   4.516
 9085WAT      O27496   5.406   2.970   1.450
 9085WAT     H127497   5.361   2.977   1.361
 9085WAT     H227498   5.336   2.969   1.522
 9086WAT      O27499   8.057   8.375   0.383
 9086WAT     H127500   8.005   8.319   0.319
 9086WAT     H227501   8.127   8.319   0.428
 9087WAT      O27502   4.758   8.034   7.803
 9087WAT     H127503   4.668   8.070   7.823
 9087WAT     H227504   4.776   8.039   7.704
 9088WAT      O27505   8.111   1.318   3.834
 9088WAT     H127506   8.085   1.366   3.918
 9088WAT     H227507   8.188   1.257   3.852
 9089WAT      O27508   5.694   1.566   1.253
 9089WAT     H127509   5.660   1.508   1.327
 9089WAT     H227510   5.628   1.639   1.234
 9090WAT      O27511   4.321   4.415   6.303
 9090WAT     H127512   4.335   4.513   6.286
 9090WAT     H227513   4.234   4.402   6.352
 9091WAT      O27514   7.205   0.283   8.161
 9091WAT     H127515   7.137   0.213   8.182
 9091WAT     H227516   7.191   0.362   8.221
 9092WAT      O27517   7.632   4.803   1.154
 9092WAT     H127518   7.700   4.801   1.081
 9092WAT     H227519   7.624   4.895   1.191
 9093WAT      O27520   4.743   2.861   4.766
 9093WAT     H127521   4.819   2.925   4.753
 9093WAT     H227522   4.774   2.768   4.745
 9094WAT      O27523   5.701   9.638   5.137
 9094WAT     H127524   5.740   9.730   5.130
 9094WAT     H227525   5.631   9.627   5.066
 9095WAT      O27526   6.710   6.573   8.925
 9095WAT     H127527   6.691   6.479   8.954
 9095WAT     H227528   6.669   6.637   8.991
 9096WAT      O27529   7.375   4.164   5.723
 9096WAT     H127530   7.462   4.202   5.755
 9096WAT     H227531   7.394   4.086   5.663
 9097WAT      O27532   1.674   9.797   2.626
 9097WAT     H127533   1.577   9.778   2.613
 9097WAT     H227534   1.688   9.846   2.712
 9098WAT      O27535   2.507   0.752   1.460
 9098WAT     H127536   2.527   0.654   1.463
 9098WAT     H227537   2.408   0.766   1.469
 9099WAT      O27538   1.385   1.918   5.824
 9099WAT     H127539   1.300   1.928   5.876
 9099WAT     H227540   1.462   1.952   5.878
 9100WAT      O27541   2.257   6.216   4.623
 9100WAT     H127542   2.280   6.214   4.526
 9100WAT     H227543   2.245   6.123   4.657
 9101WAT      O27544   9.228   3.702   1.176
 9101WAT     H127545   9.211   3.799   1.165
 9101WAT     H227546   9.237   3.680   1.273
 9102WAT      O27547   2.038   9.744   1.149
 9102WAT     H127548   2.036   9.844   1.141
 9102WAT     H227549   2.074   9.719   1.239
 9103WAT      O27550   1.188   4.421   3.732
 9103WAT     H127551   1.214   4.383   3.643
 9103WAT     H227552   1.148   4.512   3.719
 9104WAT      O27553   6.778   8.752   9.006
 9104WAT     H127554   6.840   8.737   9.083
 9104WAT     H227555   6.752   8.664   8.966
 9105WAT      O27556   3.937   5.916   0.206
 9105WAT     H127557   3.910   5.828   0.245
 9105WAT     H227558   3.880   5.936   0.126
 9106WAT      O27559   6.568   7.611   6.476
 9106WAT     H127560   6.491   7.620   6.414
 9106WAT     H227561   6.555   7.670   6.556
 9107WAT      O27562   5.846   2.036   4.053
 9107WAT     H127563   5.779   1.969   4.023
 9107WAT     H227564   5.936   2.013   4.016
 9108WAT      O27565   3.696   8.567   6.481
 9108WAT     H127566   3.656   8.540   6.393
 9108WAT     H227567   3.713   8.486   6.536
 9109WAT      O27568   3.218   1.704   5.753
 9109WAT     H127569   3.288   1.721   5.684
 9109WAT     H227570   3.135   1.753   5.730
 9110WAT      O27571   9.622   1.375   4.815
 9110WAT     H127572   9.654   1.315   4.888
 9110WAT     H227573   9.524   1.360   4.800
 9111WAT      O27574   4.258   8.166   8.254
 9111WAT     H127575   4.337   8.177   8.194
 9111WAT     H227576   4.227   8.255   8.285
 9112WAT      O27577   9.595   2.521   5.168
 9112WAT     H127578   9.610   2.579   5.248
 9112WAT     H227579   9.673   2.531   5.105
 9113WAT      O27580   2.371   8.303   2.401
 9113WAT     H127581   2.343   8.276   2.309
 9113WAT     H227582   2.362   8.224   2.463
 9114WAT      O27583   5.490   7.522   1.131
 9114WAT     H127584   5.445   7.463   1.199
 9114WAT     H227585   5.473   7.485   1.040
 9115WAT      O27586   4.257   7.668   4.688
 9115WAT     H127587   4.165   7.637   4.665
 9115WAT     H227588   4.306   7.594   4.735
 9116WAT      O27589   1.062   2.702   8.660
 9116WAT     H127590   1.049   2.749   8.572
 9116WAT     H227591   1.093   2.767   8.729
 9117WAT      O27592   8.483   1.601   4.868
 9117WAT     H127593   8.542   1.560   4.798
 9117WAT     H227594   8.480   1.542   4.948
 9118WAT      O27595   1.702   7.961   5.993
 9118WAT     H127596   1.721   8.026   5.919
 9118WAT     H227597   1.635   8.002   6.055
 9119WAT      O27598   8.159   9.816   0.773
 9119WAT     H127599   8.151   9.723   0.736
 9119WAT     H227600   8.245   9.824   0.823
 9120WAT      O27601   0.500   0.313   1.453
 9120WAT     H127602   0.454   0.282   1.369
 9120WAT     H227603   0.599   0.304   1.441
 9121WAT      O27604   6.667   9.041   4.240
 9121WAT     H127605   6.761   9.075   4.251
 9121WAT     H227606   6.642   8.988   4.321
 9122WAT      O27607   7.576   5.061   1.225
 9122WAT     H127608   7.534   5.133   1.281
 9122WAT     H227609   7.603   5.100   1.137
 9123WAT      O27610   3.209   5.006   9.653
 9123WAT     H127611   3.267   5.064   9.709
 9123WAT     H227612   3.193   5.050   9.564
 9124WAT      O27613   7.385   2.207   7.483
 9124WAT     H127614   7.356   2.139   7.552
 9124WAT     H227615   7.336   2.190   7.398
 9125WAT      O27616   0.848   0.504   2.362
 9125WAT     H127617   0.873   0.539   2.272
 9125WAT     H227618   0.828   0.580   2.423
 9126WAT      O27619   8.502   1.307   5.377
 9126WAT     H127620   8.587   1.359   5.387
 9126WAT     H227621   8.440   1.330   5.451
 9127WAT      O27622   3.590   6.876   9.722
 9127WAT     H127623   3.504   6.828   9.706
 9127WAT     H227624   3.631   6.844   9.807
 9128WAT      O27625   6.371   7.434   1.473
 9128WAT     H127626   6.317   7.427   1.389
 9128WAT     H227627   6.318   7.482   1.543
 9129WAT      O27628   0.292   9.264   4.051
 9129WAT     H127629   0.381   9.296   4.019
 9129WAT     H227630   0.268   9.313   4.135
 9130WAT      O27631   3.042   9.681   3.066
 9130WAT     H127632   3.121   9.621   3.078
 9130WAT     H227633   3.070   9.776   3.080
 9131WAT      O27634   4.642   5.126   4.551
 9131WAT     H127635   4.543   5.137   4.564
 9131WAT     H227636   4.684   5.216   4.547
 9132WAT      O27637   6.357   7.023   7.032
 9132WAT     H127638   6.445   6.984   7.006
 9132WAT     H227639   6.303   6.954   7.081
 9133WAT      O27640   7.651   6.652   4.512
 9133WAT     H127641   7.597   6.711   4.572
 9133WAT     H227642   7.593   6.620   4.436
 9134WAT      O27643   2.520   3.862   1.384
 9134WAT     H127644   2.448   3.929   1.401
 9134WAT     H227645   2.482   3.769   1.393
 9135WAT      O27646   6.745   0.398   4.879
 9135WAT     H127647   6.660   0.394   4.931
 9135WAT     H227648   6.822   0.383   4.941
 9136WAT      O27649   3.018   7.968   7.449
 9136WAT     H127650   2.970   7.992   7.533
 9136WAT     H227651   2.954   7.971   7.372
 9137WAT      O27652   3.145   1.032   5.822
 9137WAT     H127653   3.051   1.023   5.787
 9137WAT     H227654   3.157   1.122   5.864
 9138WAT      O27655   1.164   0.913   6.030
 9138WAT     H127656   1.129   0.834   5.979
 9138WAT     H227657   1.088   0.972   6.057
 9139WAT      O27658   2.536   6.615   5.403
 9139WAT     H127659   2.578   6.702   5.426
 9139WAT     H227660   2.528   6.606   5.304
 9140WAT      O27661   7.676   2.055   4.110
 9140WAT     H127662   7.582   2.087   4.127
 9140WAT     H227663   7.740   2.129   4.127
 9141WAT      O27664   2.416   5.026   0.767
 9141WAT     H127665   2.345   4.965   0.801
 9141WAT     H227666   2.449   4.992   0.679
 9142WAT      O27667   3.823   9.642   6.830
 9142WAT     H127668   3.765   9.688   6.897
 9142WAT     H227669   3.893   9.590   6.877
 9143WAT      O27670   6.288   0.559   2.680
 9143WAT     H127671   6.214   0.612   2.723
 9143WAT     H227672   6.252   0.472   2.647
 9144WAT      O27673   1.968   6.648   9.366
 9144WAT     H127674   1.977   6.727   9.426
 9144WAT     H227675   1.888   6.595   9.394
 9145WAT      O27676   8.565   4.458   2.057
 9145WAT     H127677   8.587   4.429   1.964
 9145WAT     H227678   8.468   4.480   2.063
 9146WAT      O27679   8.500   5.658   5.200
 9146WAT     H127680   8.457   5.582   5.152
 9146WAT     H227681   8.430   5.712   5.247
 9147WAT      O27682   5.294   4.008   9.080
 9147WAT     H127683   5.268   3.914   9.104
 9147WAT     H227684   5.302   4.017   8.981
 9148WAT      O27685   3.714   6.102   5.512
 9148WAT     H127686   3.660   6.079   5.431
 9148WAT     H227687   3.753   6.018   5.551
 9149WAT      O27688   4.885   1.891   5.056
 9149WAT     H127689   4.878   1.898   4.956
 9149WAT     H227690   4.836   1.968   5.098
 9150WAT      O27691   4.419   8.883   7.293
 9150WAT     H127692   4.411   8.971   7.340
 9150WAT     H227693   4.422   8.809   7.361
 9151WAT      O27694   7.203   7.435   1.672
 9151WAT     H127695   7.203   7.341   1.707
 9151WAT     H227696   7.260   7.493   1.730
 9152WAT      O27697   4.867   9.209   5.793
 9152WAT     H127698   4.797   9.139   5.811
 9152WAT     H227699   4.954   9.165   5.771
 9153WAT      O27700   0.942   9.211   0.095
 9153WAT     H127701   0.955   9.251   0.186
 9153WAT     H227702   0.872   9.139   0.100
 9154WAT      O27703   2.597   9.158   8.254
 9154WAT     H127704   2.598   9.175   8.155
 9154WAT     H227705   2.601   9.060   8.271
 9155WAT      O27706   4.816   1.556   2.197
 9155WAT     H127707   4.814   1.464   2.158
 9155WAT     H227708   4.723   1.587   2.215
 9156WAT      O27709   0.223   7.096   6.641
 9156WAT     H127710   0.256   7.003   6.661
 9156WAT     H227711   0.252   7.122   6.549
 9157WAT      O27712   5.865   7.657   3.534
 9157WAT     H127713   5.924   7.594   3.584
 9157WAT     H227714   5.897   7.751   3.549
 9158WAT      O27715   7.296   5.039   6.943
 9158WAT     H127716   7.354   5.039   6.862
 9158WAT     H227717   7.309   5.124   6.993
 9159WAT      O27718   0.690   8.740   9.830
 9159WAT     H127719   0.785   8.729   9.859
 9159WAT     H227720   0.675   8.688   9.746
 9160WAT      O27721   1.976   8.125   8.137
 9160WAT     H127722   1.996   8.217   8.105
 9160WAT     H227723   2.045   8.097   8.204
 9161WAT      O27724   1.067   7.957   2.932
 9161WAT     H127725   1.142   7.939   2.869
 9161WAT     H227726   1.079   8.047   2.974
 9162WAT      O27727   8.022   7.022   6.675
 9162WAT     H127728   8.049   7.079   6.597
 9162WAT     H227729   7.991   7.080   6.750
 9163WAT      O27730   9.596   6.262   4.101
 9163WAT     H127731   9.540   6.216   4.033
 9163WAT     H227732   9.560   6.354   4.118
 9164WAT      O27733   0.906   9.774   2.175
 9164WAT     H127734   0.863   9.827   2.248
 9164WAT     H227735   0.930   9.683   2.208
 9165WAT      O27736   6.929   8.662   3.347
 9165WAT     H127737   6.857   8.679   3.280
 9165WAT     H227738   6.975   8.747   3.369
 9166WAT      O27739   4.439   1.389   5.904
 9166WAT     H127740   4.520   1.385   5.846
 9166WAT     H227741   4.396   1.479   5.893
 9167WAT      O27742   9.672   9.437   8.188
 9167WAT     H127743   9.691   9.470   8.096
 9167WAT     H227744   9.662   9.515   8.250
 9168WAT      O27745   2.595   2.061   3.213
 9168WAT     H127746   2.662   2.069   3.287
 9168WAT     H227747   2.619   2.124   3.139
 9169WAT      O27748   3.974   5.294   7.706
 9169WAT     H127749   3.902   5.337   7.762
 9169WAT     H227750   4.033   5.365   7.668
 9170WAT      O27751   5.160   7.056   1.708
 9170WAT     H127752   5.063   7.075   1.693
 9170WAT     H227753   5.208   7.142   1.725
 9171WAT      O27754   6.870   0.922   6.752
 9171WAT     H127755   6.874   0.861   6.673
 9171WAT     H227756   6.845   0.870   6.833
 9172WAT      O27757   0.696   7.856   8.273
 9172WAT     H127758   0.728   7.931   8.215
 9172WAT     H227759   0.615   7.885   8.323
 9173WAT      O27760   8.746   8.117   2.311
 9173WAT     H127761   8.737   8.118   2.411
 9173WAT     H227762   8.656   8.103   2.270
 9174WAT      O27763   8.453   8.653   9.179
 9174WAT     H127764   8.374   8.592   9.180
 9174WAT     H227765   8.471   8.683   9.086
 9175WAT      O27766   5.952   0.910   3.467
 9175WAT     H127767   5.910   1.000   3.457
 9175WAT     H227768   6.034   0.918   3.523
 9176WAT      O27769   1.150   5.120   8.741
 9176WAT     H127770   1.180   5.063   8.817
 9176WAT     H227771   1.064   5.085   8.704
 9177WAT      O27772   7.311   3.231   3.872
 9177WAT     H127773   7.264   3.168   3.934
 9177WAT     H227774   7.264   3.319   3.873
 9178WAT      O27775   1.655   6.505   3.277
 9178WAT     H127776   1.589   6.578   3.294
 9178WAT     H227777   1.611   6.416   3.291
 9179WAT      O27778   7.684   4.466   0.380
 9179WAT     H127779   7.636   4.427   0.459
 9179WAT     H227780   7.694   4.565   0.393
 9180WAT      O27781   7.444   7.324   0.092
 9180WAT     H127782   7.435   7.231   0.128
 9180WAT     H227783   7.480   7.384   0.163
 9181WAT      O27784   6.767   6.385   0.622
 9181WAT     H127785   6.861   6.354   0.610
 9181WAT     H227786   6.713   6.359   0.542
 9182WAT      O27787   0.243   1.584   3.703
 9182WAT     H127788   0.165   1.536   3.745
 9182WAT     H227789   0.245   1.565   3.605
 9183WAT      O27790   5.031   1.033   5.127
 9183WAT     H127791   5.125   1.027   5.096
 9183WAT     H227792   4.999   1.127   5.119
 9184WAT      O27793   6.593   6.904   0.698
 9184WAT     H127794   6.668   6.861   0.748
 9184WAT     H227795   6.573   6.993   0.738
 9185WAT      O27796   9.766   4.916   0.587
 9185WAT     H127797   9.707   4.959   0.519
 9185WAT     H227798   9.861   4.918   0.555
 9186WAT      O27799   0.464   1.028   3.756
 9186WAT     H127800   0.490   1.031   3.852
 9186WAT     H227801   0.370   1.060   3.746
 9187WAT      O27802   0.979   8.837   1.462
 9187WAT     H127803   0.985   8.795   1.553
 9187WAT     H227804   1.017   8.929   1.465
 9188WAT      O27805   4.330   6.072   3.720
 9188WAT     H127806   4.249   6.130   3.722
 9188WAT     H227807   4.303   5.977   3.738
 9189WAT      O27808   5.591   1.969   2.262
 9189WAT     H127809   5.680   1.925   2.258
 9189WAT     H227810   5.527   1.920   2.202
 9190WAT      O27811   3.115   5.219   2.152
 9190WAT     H127812   3.205   5.262   2.146
 9190WAT     H227813   3.044   5.285   2.128
 9191WAT      O27814   7.170   1.197   6.100
 9191WAT     H127815   7.168   1.294   6.123
 9191WAT     H227816   7.169   1.187   6.000
 9192WAT      O27817   8.558   7.718   1.835
 9192WAT     H127818   8.595   7.787   1.898
 9192WAT     H227819   8.491   7.662   1.883
 9193WAT      O27820   6.689   0.435   6.427
 9193WAT     H127821   6.767   0.388   6.467
 9193WAT     H227822   6.716   0.479   6.341
 9194WAT      O27823   9.845   0.055   4.061
 9194WAT     H127824   9.848   0.134   4.000
 9194WAT     H227825   9.881  -0.026   4.013
 9195WAT      O27826   4.540   8.334   4.353
 9195WAT     H127827   4.452   8.369   4.383
 9195WAT     H227828   4.528   8.274   4.274
 9196WAT      O27829   6.655   0.727   2.356
 9196WAT     H127830   6.728   0.792   2.379
 9196WAT     H227831   6.629   0.677   2.439
 9197WAT      O27832   4.203   6.938   3.813
 9197WAT     H127833   4.258   6.958   3.894
 9197WAT     H227834   4.170   6.843   3.818
 9198WAT      O27835   3.106   6.710   1.912
 9198WAT     H127836   3.112   6.770   1.991
 9198WAT     H227837   3.089   6.616   1.943
 9199WAT      O27838   6.091   1.663   8.675
 9199WAT     H127839   6.056   1.755   8.690
 9199WAT     H227840   6.191   1.666   8.671
 9200WAT      O27841   9.739   1.877   3.776
 9200WAT     H127842   9.670   1.806   3.760
 9200WAT     H227843   9.700   1.949   3.833
 9201WAT      O27844   4.301   7.483   2.855
 9201WAT     H127845   4.399   7.482   2.832
 9201WAT     H227846   4.289   7.460   2.951
 9202WAT      O27847   5.099   6.077   0.754
 9202WAT     H127848   5.054   6.002   0.706
 9202WAT     H227849   5.164   6.122   0.693
 9203WAT      O27850   4.618   3.405   4.438
 9203WAT     H127851   4.610   3.306   4.446
 9203WAT     H227852   4.650   3.429   4.347
 9204WAT      O27853   6.965   0.745   4.105
 9204WAT     H127854   6.996   0.758   4.010
 9204WAT     H227855   6.886   0.684   4.107
 9205WAT      O27856   9.627   5.148   2.122
 9205WAT     H127857   9.541   5.197   2.108
 9205WAT     H227858   9.658   5.109   2.035
 9206WAT      O27859   7.632   2.573   8.348
 9206WAT     H127860   7.631   2.667   8.382
 9206WAT     H227861   7.709   2.524   8.387
 9207WAT      O27862   5.091   3.392   9.756
 9207WAT     H127863   5.133   3.302   9.742
 9207WAT     H227864   5.033   3.389   9.838
 9208WAT      O27865   0.472   0.519   2.824
 9208WAT     H127866   0.557   0.488   2.780
 9208WAT     H227867   0.432   0.443   2.875
 9209WAT      O27868   0.867   2.687   9.340
 9209WAT     H127869   0.774   2.692   9.303
 9209WAT     H227870   0.930   2.665   9.266
 9210WAT      O27871   0.690   6.699   3.667
 9210WAT     H127872   0.619   6.748   3.717
 9210WAT     H227873   0.772   6.756   3.659
 9211WAT      O27874   7.379   8.548   7.573
 9211WAT     H127875   7.346   8.498   7.492
 9211WAT     H227876   7.383   8.485   7.651
 9212WAT      O27877   2.576   0.209   4.598
 9212WAT     H127878   2.581   0.210   4.498
 9212WAT     H227879   2.666   0.191   4.636
 9213WAT      O27880   3.107   0.769   7.608
 9213WAT     H127881   3.113   0.677   7.647
 9213WAT     H227882   3.051   0.766   7.525
 9214WAT      O27883   5.696   2.157   3.035
 9214WAT     H127884   5.714   2.066   2.999
 9214WAT     H227885   5.776   2.215   3.021
 9215WAT      O27886   9.014   8.006   2.469
 9215WAT     H127887   8.990   8.096   2.431
 9215WAT     H227888   9.084   8.018   2.539
 9216WAT      O27889   4.651   6.094   4.400
 9216WAT     H127890   4.707   6.089   4.318
 9216WAT     H227891   4.709   6.079   4.481
 9217WAT      O27892   1.636   5.354   5.468
 9217WAT     H127893   1.558   5.292   5.459
 9217WAT     H227894   1.626   5.410   5.550
 9218WAT      O27895   0.627   6.795   8.753
 9218WAT     H127896   0.576   6.712   8.733
 9218WAT     H227897   0.651   6.841   8.667
 9219WAT      O27898   6.079   2.573   5.630
 9219WAT     H127899   6.139   2.634   5.578
 9219WAT     H227900   6.032   2.626   5.700
 9220WAT      O27901   9.837   0.249   9.621
 9220WAT     H127902   9.870   0.311   9.692
 9220WAT     H227903   9.797   0.303   9.546
 9221WAT      O27904   0.147   5.701   8.850
 9221WAT     H127905   0.225   5.718   8.789
 9221WAT     H227906   0.181   5.661   8.935
 9222WAT      O27907   7.075   3.921   2.567
 9222WAT     H127908   7.092   3.924   2.666
 9222WAT     H227909   7.075   4.014   2.530
 9223WAT      O27910   9.249   3.905   7.586
 9223WAT     H127911   9.306   3.985   7.570
 9223WAT     H227912   9.280   3.857   7.667
 9224WAT      O27913   1.876   5.982   4.760
 9224WAT     H127914   1.902   5.897   4.806
 9224WAT     H227915   1.950   6.011   4.700
 9225WAT      O27916   1.005   1.105   5.194
 9225WAT     H127917   1.086   1.141   5.239
 9225WAT     H227918   1.016   1.007   5.178
 9226WAT      O27919   9.555   9.469   4.633
 9226WAT     H127920   9.577   9.566   4.631
 9226WAT     H227921   9.499   9.445   4.554
 9227WAT      O27922   1.747   3.837   6.913
 9227WAT     H127923   1.769   3.929   6.881
 9227WAT     H227924   1.827   3.798   6.958
 9228WAT      O27925   2.186   4.480   9.501
 9228WAT     H127926   2.087   4.487   9.487
 9228WAT     H227927   2.223   4.570   9.522
 9229WAT      O27928   6.646   2.528   6.623
 9229WAT     H127929   6.671   2.608   6.569
 9229WAT     H227930   6.675   2.445   6.575
 9230WAT      O27931   0.725   2.346   0.931
 9230WAT     H127932   0.770   2.431   0.904
 9230WAT     H227933   0.647   2.330   0.871
 9231WAT      O27934   4.718   3.786   5.620
 9231WAT     H127935   4.650   3.855   5.643
 9231WAT     H227936   4.716   3.769   5.521
 9232WAT      O27937   0.396   5.627   0.417
 9232WAT     H127938   0.374   5.571   0.337
 9232WAT     H227939   0.320   5.688   0.436
 9233WAT      O27940   4.360   4.721   9.886
 9233WAT     H127941   4.300   4.683   9.956
 9233WAT     H227942   4.448   4.744   9.928
 9234WAT      O27943   5.417   7.625   1.763
 9234WAT     H127944   5.477   7.576   1.826
 9234WAT     H227945   5.396   7.716   1.799
 9235WAT      O27946   5.764   1.685   2.849
 9235WAT     H127947   5.730   1.593   2.865
 9235WAT     H227948   5.858   1.682   2.816
 9236WAT      O27949   0.871   9.361   8.274
 9236WAT     H127950   0.880   9.311   8.360
 9236WAT     H227951   0.778   9.348   8.238
 9237WAT      O27952   7.471   6.609   5.802
 9237WAT     H127953   7.461   6.520   5.847
 9237WAT     H227954   7.395   6.623   5.739
 9238WAT      O27955   5.053   2.258   1.807
 9238WAT     H127956   5.138   2.311   1.797
 9238WAT     H227957   5.066   2.188   1.878
 9239WAT      O27958   0.791   5.252   3.810
 9239WAT     H127959   0.830   5.339   3.838
 9239WAT     H227960   0.704   5.237   3.857
 9240WAT      O27961   5.012   5.918   2.926
 9240WAT     H127962   5.063   5.971   2.858
 9240WAT     H227963   5.062   5.834   2.946
 9241WAT      O27964   5.990   6.874   2.170
 9241WAT     H127965   5.960   6.968   2.153
 9241WAT     H227966   5.976   6.819   2.088
 9242WAT      O27967   2.106   3.300   6.147
 9242WAT     H127968   2.162   3.296   6.064
 9242WAT     H227969   2.088   3.207   6.180
 9243WAT      O27970   0.794   8.963   0.730
 9243WAT     H127971   0.796   9.015   0.645
 9243WAT     H227972   0.701   8.959   0.765
 9244WAT      O27973   6.459   3.336   7.715
 9244WAT     H127974   6.405   3.288   7.785
 9244WAT     H227975   6.397   3.377   7.648
 9245WAT      O27976   8.123   8.345   8.735
 9245WAT     H127977   8.216   8.379   8.740
 9245WAT     H227978   8.110   8.273   8.803
 9246WAT      O27979   7.342   8.575   2.394
 9246WAT     H127980   7.408   8.511   2.355
 9246WAT     H227981   7.336   8.657   2.337
 9247WAT      O27982   6.562   9.234   8.589
 9247WAT     H127983   6.502   9.310   8.563
 9247WAT     H227984   6.522   9.148   8.560
 9248WAT      O27985   4.194   2.797   7.041
 9248WAT     H127986   4.250   2.758   6.968
 9248WAT     H227987   4.144   2.724   7.088
 9249WAT      O27988   2.226   2.201   6.374
 9249WAT     H127989   2.152   2.140   6.400
 9249WAT     H227990   2.210   2.291   6.415
 9250WAT      O27991   8.709   1.270   0.230
 9250WAT     H127992   8.780   1.251   0.298
 9250WAT     H227993   8.736   1.348   0.174
 9251WAT      O27994   6.702   5.541   7.432
 9251WAT     H127995   6.792   5.541   7.388
 9251WAT     H227996   6.663   5.633   7.429
 9252WAT      O27997   4.115   1.538   0.968
 9252WAT     H127998   4.111   1.506   1.063
 9252WAT     H227999   4.022   1.547   0.932
 9253WAT      O28000   2.012   0.635   7.751
 9253WAT     H128001   2.093   0.685   7.781
 9253WAT     H228002   1.952   0.697   7.701
 9254WAT      O28003   4.807   4.124   1.033
 9254WAT     H128004   4.848   4.191   1.095
 9254WAT     H228005   4.746   4.064   1.083
 9255WAT      O28006   1.361   0.587   4.637
 9255WAT     H128007   1.443   0.609   4.585
 9255WAT     H228008   1.299   0.532   4.581
 9256WAT      O28009   0.768   4.459   9.667
 9256WAT     H128010   0.862   4.447   9.699
 9256WAT     H228011   0.732   4.370   9.637
 9257WAT      O28012   3.460   5.528   7.255
 9257WAT     H128013   3.471   5.514   7.157
 9257WAT     H228014   3.547   5.557   7.295
 9258WAT      O28015   8.933   0.404   5.520
 9258WAT     H128016   8.894   0.432   5.608
 9258WAT     H228017   9.033   0.403   5.526
 9259WAT      O28018   0.063   0.063   7.873
 9259WAT     H128019   0.119   0.003   7.930
 9259WAT     H228020   0.047   0.150   7.920
 9260WAT      O28021   2.526   3.446   6.571
 9260WAT     H128022   2.471   3.526   6.595
 9260WAT     H228023   2.574   3.464   6.485
 9261WAT      O28024   7.364   2.083   6.945
 9261WAT     H128025   7.408   2.171   6.962
 9261WAT     H228026   7.405   2.041   6.864
 9262WAT      O28027   8.840   2.828   1.894
 9262WAT     H128028   8.784   2.911   1.900
 9262WAT     H228029   8.909   2.830   1.966
 9263WAT      O28030   3.168   7.320   3.858
 9263WAT     H128031   3.261   7.285   3.854
 9263WAT     H228032   3.107   7.258   3.807
 9264WAT      O28033   0.213   3.317   1.121
 9264WAT     H128034   0.288   3.337   1.059
 9264WAT     H228035   0.205   3.218   1.133
 9265WAT      O28036   4.037   5.878   1.756
 9265WAT     H128037   4.099   5.936   1.703
 9265WAT     H228038   4.032   5.912   1.850
 9266WAT      O28039   8.123   6.668   3.664
 9266WAT     H128040   8.144   6.603   3.738
 9266WAT     H228041   8.052   6.630   3.605
 9267WAT      O28042   6.752   4.874   5.924
 9267WAT     H128043   6.694   4.825   5.859
 9267WAT     H228044   6.845   4.879   5.890
 9268WAT      O28045   1.625   1.589   9.309
 9268WAT     H128046   1.650   1.636   9.224
 9268WAT     H228047   1.528   1.604   9.328
 9269WAT      O28048   1.688   5.384   3.478
 9269WAT     H128049   1.630   5.313   3.439
 9269WAT     H228050   1.631   5.452   3.525
 9270WAT      O28051   1.445   5.546   9.185
 9270WAT     H128052   1.364   5.589   9.224
 9270WAT     H228053   1.429   5.525   9.089
 9271WAT      O28054   4.947   3.050   9.141
 9271WAT     H128055   4.977   2.965   9.099
 9271WAT     H228056   5.026   3.107   9.161
 9272WAT      O28057   4.227   9.021   3.099
 9272WAT     H128058   4.171   9.099   3.125
 9272WAT     H228059   4.318   9.052   3.071
 9273WAT      O28060   9.672   0.651   4.173
 9273WAT     H128061   9.693   0.742   4.138
 9273WAT     H228062   9.756   0.599   4.184
 9274WAT      O28063   7.296   9.358   6.535
 9274WAT     H128064   7.307   9.267   6.494
 9274WAT     H228065   7.290   9.427   6.462
 9275WAT      O28066   4.426   1.080   6.925
 9275WAT     H128067   4.510   1.070   6.872
 9275WAT     H228068   4.423   1.171   6.966
 9276WAT      O28069   3.222   3.237   8.451
 9276WAT     H128070   3.297   3.286   8.407
 9276WAT     H228071   3.259   3.165   8.509
 9277WAT      O28072   1.890   4.939   1.459
 9277WAT     H128073   1.934   4.875   1.522
 9277WAT     H228074   1.958   5.003   1.423
 9278WAT      O28075   4.732   6.844   9.615
 9278WAT     H128076   4.797   6.785   9.567
 9278WAT     H228077   4.657   6.789   9.651
 9279WAT      O28078   0.891   8.713   2.481
 9279WAT     H128079   0.834   8.789   2.449
 9279WAT     H228080   0.844   8.666   2.556
 9280WAT      O28081   1.643   0.374   4.543
 9280WAT     H128082   1.560   0.323   4.567
 9280WAT     H228083   1.622   0.472   4.543
 9281WAT      O28084   3.778   5.135   6.462
 9281WAT     H128085   3.751   5.069   6.392
 9281WAT     H228086   3.704   5.201   6.476
 9282WAT      O28087   9.405   8.156   2.884
 9282WAT     H128088   9.386   8.240   2.835
 9282WAT     H228089   9.350   8.152   2.967
 9283WAT      O28090   8.874   5.372   3.589
 9283WAT     H128091   8.785   5.347   3.628
 9283WAT     H228092   8.915   5.445   3.643
 9284WAT      O28093   8.539   9.107   8.008
 9284WAT     H128094   8.510   9.017   7.975
 9284WAT     H228095   8.482   9.178   7.967
 9285WAT      O28096   1.381   9.396   0.369
 9285WAT     H128097   1.347   9.472   0.425
 9285WAT     H228098   1.470   9.366   0.404
 9286WAT      O28099   6.923   4.191   0.803
 9286WAT     H128100   7.019   4.169   0.822
 9286WAT     H228101   6.896   4.146   0.717
 9287WAT      O28102   8.775   5.697   8.937
 9287WAT     H128103   8.726   5.614   8.910
 9287WAT     H228104   8.833   5.728   8.862
 9288WAT      O28105   5.392   4.995   9.148
 9288WAT     H128106   5.462   5.066   9.156
 9288WAT     H228107   5.331   5.000   9.227
 9289WAT      O28108   7.040   7.053   3.785
 9289WAT     H128109   6.982   6.987   3.833
 9289WAT     H228110   6.991   7.089   3.706
 9290WAT      O28111   8.859   8.970   1.994
 9290WAT     H128112   8.865   8.956   1.895
 9290WAT     H228113   8.840   9.066   2.013
 9291WAT      O28114   2.338   8.905   7.269
 9291WAT     H128115   2.256   8.916   7.213
 9291WAT     H228116   2.403   8.979   7.249
 9292WAT      O28117   1.137   7.719   6.267
 9292WAT     H128118   1.090   7.766   6.343
 9292WAT     H228119   1.151   7.784   6.193
 9293WAT      O28120   2.469   1.297   3.253
 9293WAT     H128121   2.529   1.226   3.288
 9293WAT     H228122   2.472   1.297   3.153
 9294WAT      O28123   5.580   4.204   8.616
 9294WAT     H128124   5.677   4.207   8.640
 9294WAT     H228125   5.554   4.289   8.572
 9295WAT      O28126   8.947   6.099   5.042
 9295WAT     H128127   8.912   6.147   5.122
 9295WAT     H228128   8.875   6.040   5.005
 9296WAT      O28129   8.361   8.485   3.044
 9296WAT     H128130   8.423   8.407   3.050
 9296WAT     H228131   8.338   8.502   2.948
 9297WAT      O28132   2.457   0.314   0.948
 9297WAT     H128133   2.510   0.325   0.865
 9297WAT     H228134   2.404   0.397   0.966
 9298WAT      O28135   6.350   5.042   6.478
 9298WAT     H128136   6.295   5.107   6.425
 9298WAT     H228137   6.429   5.090   6.517
 9299WAT      O28138   5.047   6.185   7.109
 9299WAT     H128139   4.988   6.127   7.053
 9299WAT     H228140   5.105   6.240   7.050
 9300WAT      O28141   7.950   7.506   9.801
 9300WAT     H128142   7.856   7.490   9.771
 9300WAT     H228143   7.951   7.574   9.873
 9301WAT      O28144   1.135   0.363   0.786
 9301WAT     H128145   1.172   0.274   0.815
 9301WAT     H228146   1.168   0.434   0.848
 9302WAT      O28147   4.843   9.180   2.922
 9302WAT     H128148   4.768   9.129   2.880
 9302WAT     H228149   4.824   9.192   3.020
 9303WAT      O28150   6.873   9.352   0.570
 9303WAT     H128151   6.886   9.253   0.562
 9303WAT     H228152   6.776   9.373   0.577
 9304WAT      O28153   3.750   8.691   3.932
 9304WAT     H128154   3.828   8.707   3.993
 9304WAT     H228155   3.760   8.601   3.888
 9305WAT      O28156   6.984   5.927   7.966
 9305WAT     H128157   7.082   5.915   7.977
 9305WAT     H228158   6.959   5.912   7.870
 9306WAT      O28159   6.244   8.496   5.313
 9306WAT     H128160   6.211   8.529   5.225
 9306WAT     H228161   6.332   8.450   5.301
 9307WAT      O28162   1.478   3.493   8.575
 9307WAT     H128163   1.540   3.438   8.631
 9307WAT     H228164   1.471   3.453   8.484
 9308WAT      O28165   6.790   7.191   4.652
 9308WAT     H128166   6.752   7.120   4.593
 9308WAT     H228167   6.716   7.248   4.688
 9309WAT      O28168   1.584   0.065   9.123
 9309WAT     H128169   1.652   0.115   9.068
 9309WAT     H228170   1.503   0.046   9.068
 9310WAT      O28171   2.265   5.762   8.577
 9310WAT     H128172   2.304   5.683   8.531
 9310WAT     H228173   2.174   5.739   8.611
 9311WAT      O28174   5.082   1.326   4.291
 9311WAT     H128175   5.160   1.266   4.308
 9311WAT     H228176   5.108   1.421   4.308
 9312WAT      O28177   1.838   9.058   1.173
 9312WAT     H128178   1.819   9.129   1.105
 9312WAT     H228179   1.932   9.068   1.207
 9313WAT      O28180   1.986   4.550   6.064
 9313WAT     H128181   1.930   4.632   6.079
 9313WAT     H228182   2.057   4.546   6.135
 9314WAT      O28183   0.429   5.681   4.847
 9314WAT     H128184   0.433   5.581   4.852
 9314WAT     H228185   0.382   5.717   4.927
 9315WAT      O28186   4.947   8.873   4.620
 9315WAT     H128187   4.906   8.797   4.569
 9315WAT     H228188   4.922   8.959   4.575
 9316WAT      O28189   5.321   4.204   4.722
 9316WAT     H128190   5.260   4.244   4.791
 9316WAT     H228191   5.387   4.143   4.766
 9317WAT      O28192   1.387   0.477   1.707
 9317WAT     H128193   1.411   0.524   1.622
 9317WAT     H228194   1.469   0.434   1.746
 9318WAT      O28195   4.945   6.249   8.500
 9318WAT     H128196   4.986   6.321   8.445
 9318WAT     H228197   5.006   6.169   8.500
 9319WAT      O28198   4.877   9.405   1.956
 9319WAT     H128199   4.963   9.364   1.926
 9319WAT     H228200   4.801   9.352   1.918
 9320WAT      O28201   0.382   6.585   8.704
 9320WAT     H128202   0.339   6.623   8.785
 9320WAT     H228203   0.356   6.488   8.694
 9321WAT      O28204   6.635   5.725   1.829
 9321WAT     H128205   6.645   5.636   1.785
 9321WAT     H228206   6.546   5.764   1.804
 9322WAT      O28207   0.987   9.387   8.616
 9322WAT     H128208   1.052   9.414   8.687
 9322WAT     H228209   0.984   9.457   8.544
 9323WAT      O28210   0.967   8.126   0.602
 9323WAT     H128211   0.996   8.183   0.679
 9323WAT     H228212   1.046   8.099   0.548
 9324WAT      O28213   6.696   4.487   9.562
 9324WAT     H128214   6.599   4.464   9.567
 9324WAT     H228215   6.734   4.453   9.476
 9325WAT      O28216   0.766   3.072   1.559
 9325WAT     H128217   0.822   2.996   1.529
 9325WAT     H228218   0.802   3.108   1.645
 9326WAT      O28219   9.472   2.348   6.442
 9326WAT     H128220   9.503   2.443   6.446
 9326WAT     H228221   9.484   2.313   6.349
 9327WAT      O28222   1.456   5.669   8.138
 9327WAT     H128223   1.459   5.720   8.224
 9327WAT     H228224   1.389   5.712   8.077
 9328WAT      O28225   2.534   0.629   1.918
 9328WAT     H128226   2.627   0.608   1.947
 9328WAT     H228227   2.475   0.550   1.936
 9329WAT      O28228   2.140   3.872   6.340
 9329WAT     H128229   2.213   3.917   6.392
 9329WAT     H228230   2.153   3.773   6.344
 9330WAT      O28231   0.585   3.694   2.032
 9330WAT     H128232   0.609   3.760   1.961
 9330WAT     H228233   0.490   3.666   2.020
 9331WAT      O28234   8.039   8.681   9.660
 9331WAT     H128235   8.079   8.631   9.737
 9331WAT     H228236   8.100   8.674   9.581
 9332WAT      O28237   9.759   5.385   5.457
 9332WAT     H128238   9.743   5.351   5.549
 9332WAT     H228239   9.779   5.308   5.396
 9333WAT      O28240   7.516   2.713   7.726
 9333WAT     H128241   7.448   2.691   7.796
 9333WAT     H228242   7.486   2.677   7.638
 9334WAT      O28243   9.188   7.937   4.074
 9334WAT     H128244   9.266   7.999   4.065
 9334WAT     H228245   9.131   7.942   3.992
 9335WAT      O28246   6.142   2.592   9.712
 9335WAT     H128247   6.196   2.655   9.767
 9335WAT     H228248   6.058   2.636   9.683
 9336WAT      O28249   9.021   3.036   6.129
 9336WAT     H128250   8.929   3.066   6.152
 9336WAT     H228251   9.078   3.116   6.107
 9337WAT      O28252   6.673   4.269   5.566
 9337WAT     H128253   6.773   4.265   5.565
 9337WAT     H228254   6.640   4.242   5.657
 9338WAT      O28255   5.696   0.629   1.016
 9338WAT     H128256   5.698   0.531   1.034
 9338WAT     H228257   5.602   0.663   1.026
 9339WAT      O28258   2.695   1.377   7.120
 9339WAT     H128259   2.698   1.449   7.189
 9339WAT     H228260   2.768   1.391   7.053
 9340WAT      O28261   4.910   4.165   7.861
 9340WAT     H128262   4.936   4.159   7.957
 9340WAT     H228263   4.832   4.227   7.852
 9341WAT      O28264   7.553   2.175   8.514
 9341WAT     H128265   7.552   2.268   8.552
 9341WAT     H228266   7.514   2.112   8.580
 9342WAT      O28267   8.255   2.129   0.343
 9342WAT     H128268   8.268   2.043   0.394
 9342WAT     H228269   8.183   2.183   0.387
 9343WAT      O28270   0.255   3.121   7.273
 9343WAT     H128271   0.179   3.121   7.338
 9343WAT     H228272   0.219   3.123   7.180
 9344WAT      O28273   9.212   1.854   7.767
 9344WAT     H128274   9.249   1.946   7.756
 9344WAT     H228275   9.229   1.821   7.860
 9345WAT      O28276   3.129   7.089   2.394
 9345WAT     H128277   3.167   7.170   2.350
 9345WAT     H228278   3.030   7.088   2.383
 9346WAT      O28279   9.593   1.631   9.172
 9346WAT     H128280   9.664   1.628   9.243
 9346WAT     H228281   9.503   1.636   9.215
 9347WAT      O28282   0.494   3.131   7.657
 9347WAT     H128283   0.512   3.217   7.706
 9347WAT     H228284   0.560   3.121   7.583
 9348WAT      O28285   3.779   2.898   5.924
 9348WAT     H128286   3.849   2.969   5.921
 9348WAT     H228287   3.818   2.812   5.890
 9349WAT      O28288   9.379   1.729   6.405
 9349WAT     H128289   9.396   1.810   6.349
 9349WAT     H228290   9.310   1.751   6.475
 9350WAT      O28291   2.808   4.013   5.514
 9350WAT     H128292   2.836   4.064   5.433
 9350WAT     H228293   2.883   3.956   5.545
 9351WAT      O28294   3.356   6.806   1.840
 9351WAT     H128295   3.393   6.856   1.918
 9351WAT     H228296   3.262   6.776   1.861
 9352WAT      O28297   9.485   1.157   1.250
 9352WAT     H128298   9.528   1.199   1.170
 9352WAT     H228299   9.388   1.182   1.253
 9353WAT      O28300   7.143   8.469   1.473
 9353WAT     H128301   7.136   8.546   1.536
 9353WAT     H228302   7.233   8.468   1.431
 9354WAT      O28303   6.221   5.684   3.823
 9354WAT     H128304   6.145   5.734   3.866
 9354WAT     H228305   6.263   5.624   3.890
 9355WAT      O28306   9.040   7.779   5.025
 9355WAT     H128307   9.048   7.814   5.118
 9355WAT     H228308   9.047   7.855   4.960
 9356WAT      O28309   4.425   9.277   3.355
 9356WAT     H128310   4.497   9.334   3.316
 9356WAT     H228311   4.382   9.224   3.283
 9357WAT      O28312   6.972   8.256   5.664
 9357WAT     H128313   7.019   8.186   5.609
 9357WAT     H228314   6.969   8.227   5.759
 9358WAT      O28315   0.381   2.680   1.255
 9358WAT     H128316   0.473   2.706   1.284
 9358WAT     H228317   0.373   2.580   1.255
 9359WAT      O28318   7.007   3.287   8.510
 9359WAT     H128319   7.069   3.208   8.518
 9359WAT     H228320   6.999   3.314   8.415
 9360WAT      O28321   4.138   1.191   6.661
 9360WAT     H128322   4.040   1.193   6.641
 9360WAT     H228323   4.157   1.115   6.724
 9361WAT      O28324   1.493   8.028   5.668
 9361WAT     H128325   1.560   8.011   5.595
 9361WAT     H228326   1.530   8.095   5.732
 9362WAT      O28327   4.780   4.846   3.528
 9362WAT     H128328   4.812   4.794   3.607
 9362WAT     H228329   4.699   4.801   3.489
 9363WAT      O28330   7.845   0.626   8.191
 9363WAT     H128331   7.860   0.695   8.262
 9363WAT     H228332   7.908   0.550   8.205
 9364WAT      O28333   2.083   7.793   8.360
 9364WAT     H128334   2.055   7.818   8.453
 9364WAT     H228335   2.124   7.873   8.316
 9365WAT      O28336   5.344   3.266   0.103
 9365WAT     H128337   5.392   3.348   0.072
 9365WAT     H228338   5.397   3.222   0.176
 9366WAT      O28339   5.918   1.002   7.952
 9366WAT     H128340   5.954   0.935   8.018
 9366WAT     H228341   5.862   1.069   8.000
 9367WAT      O28342   0.007   7.327   1.269
 9367WAT     H128343   0.065   7.385   1.212
 9367WAT     H228344   0.005   7.234   1.232
 9368WAT      O28345   4.463   7.332   5.358
 9368WAT     H128346   4.424   7.378   5.279
 9368WAT     H228347   4.551   7.374   5.381
 9369WAT      O28348   0.665   1.991   2.001
 9369WAT     H128349   0.626   2.032   2.083
 9369WAT     H228350   0.764   1.983   2.011
 9370WAT      O28351   5.201   9.785   1.583
 9370WAT     H128352   5.155   9.809   1.668
 9370WAT     H228353   5.252   9.864   1.548
 9371WAT      O28354   2.435   8.680   6.741
 9371WAT     H128355   2.463   8.769   6.777
 9371WAT     H228356   2.446   8.610   6.811
 9372WAT      O28357   1.625   7.704   0.554
 9372WAT     H128358   1.712   7.731   0.513
 9372WAT     H228359   1.568   7.786   0.569
 9373WAT      O28360   1.967   1.015   7.216
 9373WAT     H128361   2.046   1.076   7.214
 9373WAT     H228362   1.993   0.927   7.255
 9374WAT      O28363   5.610   9.537   0.819
 9374WAT     H128364   5.582   9.626   0.784
 9374WAT     H228365   5.577   9.526   0.912
 9375WAT      O28366   9.416   0.131   2.671
 9375WAT     H128367   9.353   0.081   2.731
 9375WAT     H228368   9.506   0.088   2.676
 9376WAT      O28369   4.305   1.605   1.329
 9376WAT     H128370   4.265   1.535   1.269
 9376WAT     H228371   4.310   1.692   1.280
 9377WAT      O28372   8.261   4.561   4.141
 9377WAT     H128373   8.251   4.530   4.235
 9377WAT     H228374   8.344   4.523   4.101
 9378WAT      O28375   1.134   5.833   0.038
 9378WAT     H128376   1.172   5.840   0.130
 9378WAT     H228377   1.105   5.739   0.020
 9379WAT      O28378   4.320   1.971   1.746
 9379WAT     H128379   4.289   2.041   1.809
 9379WAT     H228380   4.403   2.003   1.699
 9380WAT      O28381   2.392   8.699   5.957
 9380WAT     H128382   2.449   8.661   6.029
 9380WAT     H228383   2.324   8.760   5.998
 9381WAT      O28384   6.477   0.846   0.021
 9381WAT     H128385   6.576   0.841   0.014
 9381WAT     H228386   6.437   0.844  -0.070
 9382WAT      O28387   6.261   5.605   8.981
 9382WAT     H128388   6.188   5.642   8.923
 9382WAT     H228389   6.238   5.512   9.009
 9383WAT      O28390   8.316   5.947   4.975
 9383WAT     H128391   8.237   5.989   4.929
 9383WAT     H228392   8.303   5.847   4.978
 9384WAT      O28393   2.033   9.595   6.099
 9384WAT     H128394   2.049   9.613   6.002
 9384WAT     H228395   2.019   9.497   6.114
 9385WAT      O28396   7.974   3.251   3.301
 9385WAT     H128397   7.965   3.159   3.262
 9385WAT     H228398   7.919   3.315   3.247
 9386WAT      O28399   5.826   2.047   0.322
 9386WAT     H128400   5.728   2.034   0.309
 9386WAT     H228401   5.859   1.984   0.393
 9387WAT      O28402   8.428   0.978   3.667
 9387WAT     H128403   8.330   0.963   3.676
 9387WAT     H228404   8.478   0.898   3.700
 9388WAT      O28405   6.444   1.016   7.359
 9388WAT     H128406   6.527   0.971   7.390
 9388WAT     H228407   6.432   1.000   7.261
 9389WAT      O28408   8.794   3.282   8.274
 9389WAT     H128409   8.889   3.304   8.253
 9389WAT     H228410   8.766   3.201   8.221
 9390WAT      O28411   5.876   7.958   7.610
 9390WAT     H128412   5.960   7.911   7.586
 9390WAT     H228413   5.806   7.891   7.634
 9391WAT      O28414   5.463   6.049   8.046
 9391WAT     H128415   5.385   6.107   8.069
 9391WAT     H228416   5.436   5.984   7.975
 9392WAT      O28417   9.698   5.445   6.902
 9392WAT     H128418   9.717   5.417   6.996
 9392WAT     H228419   9.678   5.543   6.899
 9393WAT      O28420   6.748   4.748   7.256
 9393WAT     H128421   6.703   4.661   7.237
 9393WAT     H228422   6.682   4.823   7.243
 9394WAT      O28423   1.588   8.330   3.461
 9394WAT     H128424   1.628   8.406   3.411
 9394WAT     H228425   1.510   8.363   3.515
 9395WAT      O28426   0.003   0.540   8.468
 9395WAT     H128427   0.094   0.581   8.467
 9395WAT     H228428   0.011   0.442   8.448
 9396WAT      O28429   0.930   0.447   6.018
 9396WAT     H128430   0.966   0.417   6.107
 9396WAT     H228431   0.921   0.367   5.958
 9397WAT      O28432   0.578   7.283   1.449
 9397WAT     H128433   0.515   7.303   1.374
 9397WAT     H228434   0.527   7.252   1.529
 9398WAT      O28435   3.066   4.875   7.378
 9398WAT     H128436   2.994   4.830   7.326
 9398WAT     H228437   3.126   4.806   7.419
 9399WAT      O28438   6.864   5.480   6.296
 9399WAT     H128439   6.925   5.425   6.238
 9399WAT     H228440   6.818   5.549   6.240
 9400WAT      O28441   5.076   9.245   7.189
 9400WAT     H128442   5.036   9.156   7.208
 9400WAT     H228443   5.082   9.298   7.273
 9401WAT      O28444   5.562   3.183   3.082
 9401WAT     H128445   5.576   3.103   3.024
 9401WAT     H228446   5.650   3.221   3.109
 9402WAT      O28447   4.940   8.264   3.542
 9402WAT     H128448   4.913   8.320   3.464
 9402WAT     H228449   4.939   8.320   3.625
 9403WAT      O28450   2.627   0.691   8.980
 9403WAT     H128451   2.702   0.737   9.027
 9403WAT     H228452   2.546   0.749   8.980
 9404WAT      O28453   9.710   4.237   8.318
 9404WAT     H128454   9.791   4.247   8.261
 9404WAT     H228455   9.715   4.302   8.395
 9405WAT      O28456   8.625   9.574   9.623
 9405WAT     H128457   8.647   9.672   9.618
 9405WAT     H228458   8.591   9.543   9.534
 9406WAT      O28459   2.811   0.512   9.180
 9406WAT     H128460   2.887   0.501   9.115
 9406WAT     H228461   2.840   0.485   9.271
 9407WAT      O28462   7.003   8.260   1.855
 9407WAT     H128463   6.929   8.210   1.809
 9407WAT     H228464   7.069   8.292   1.787
 9408WAT      O28465   0.933   6.750   2.048
 9408WAT     H128466   0.995   6.759   2.126
 9408WAT     H228467   0.853   6.696   2.076
 9409WAT      O28468   1.200   2.296   3.110
 9409WAT     H128469   1.127   2.355   3.074
 9409WAT     H228470   1.253   2.258   3.035
 9410WAT      O28471   0.370   7.064   5.655
 9410WAT     H128472   0.429   6.983   5.648
 9410WAT     H228473   0.424   7.146   5.636
 9411WAT      O28474   5.516   1.091   1.558
 9411WAT     H128475   5.442   1.152   1.530
 9411WAT     H228476   5.553   1.122   1.646
 9412WAT      O28477   5.447   3.824   8.335
 9412WAT     H128478   5.477   3.909   8.292
 9412WAT     H228479   5.362   3.793   8.291
 9413WAT      O28480   0.618   2.753   4.104
 9413WAT     H128481   0.698   2.782   4.053
 9413WAT     H228482   0.535   2.788   4.059
 9414WAT      O28483   7.697   2.227   7.833
 9414WAT     H128484   7.660   2.259   7.920
 9414WAT     H228485   7.795   2.211   7.842
 9415WAT      O28486   8.180   0.850   6.440
 9415WAT     H128487   8.090   0.892   6.451
 9415WAT     H228488   8.168   0.753   6.417
 9416WAT      O28489   6.277   8.394   0.106
 9416WAT     H128490   6.259   8.482   0.062
 9416WAT     H228491   6.197   8.335   0.098
 9417WAT      O28492   2.314   9.471   8.874
 9417WAT     H128493   2.404   9.430   8.888
 9417WAT     H228494   2.286   9.519   8.957
 9418WAT      O28495   4.302   2.965   1.016
 9418WAT     H128496   4.266   3.021   0.942
 9418WAT     H228497   4.340   3.025   1.087
 9419WAT      O28498   6.081   3.077   8.118
 9419WAT     H128499   6.102   3.158   8.172
 9419WAT     H228500   6.148   3.005   8.138
 9420WAT      O28501   6.012   7.618   5.083
 9420WAT     H128502   5.974   7.659   5.000
 9420WAT     H228503   5.956   7.540   5.110
 9421WAT      O28504   9.803   6.038   6.855
 9421WAT     H128505   9.828   6.068   6.947
 9421WAT     H228506   9.862   5.961   6.828
 9422WAT      O28507   2.235   3.779   9.020
 9422WAT     H128508   2.249   3.728   8.935
 9422WAT     H228509   2.305   3.754   9.086
 9423WAT      O28510   5.417   7.766   3.922
 9423WAT     H128511   5.353   7.831   3.964
 9423WAT     H228512   5.493   7.816   3.880
 9424WAT      O28513   3.438   4.100   7.577
 9424WAT     H128514   3.419   4.087   7.674
 9424WAT     H228515   3.377   4.041   7.523
 9425WAT      O28516   7.167   7.726   4.415
 9425WAT     H128517   7.075   7.750   4.384
 9425WAT     H228518   7.167   7.634   4.454
 9426WAT      O28519   5.515   4.763   1.383
 9426WAT     H128520   5.580   4.839   1.391
 9426WAT     H228521   5.541   4.690   1.446
 9427WAT      O28522   8.439   6.305   8.009
 9427WAT     H128523   8.523   6.263   8.043
 9427WAT     H228524   8.455   6.343   7.918
 9428WAT      O28525   7.487   2.313   7.015
 9428WAT     H128526   7.491   2.293   7.112
 9428WAT     H228527   7.475   2.412   7.001
 9429WAT      O28528   4.037   0.116   3.922
 9429WAT     H128529   4.036   0.106   3.823
 9429WAT     H228530   4.089   0.040   3.962
 9430WAT      O28531   1.692   1.653   5.084
 9430WAT     H128532   1.712   1.737   5.033
 9430WAT     H228533   1.635   1.593   5.029
 9431WAT      O28534   4.060   8.019   1.341
 9431WAT     H128535   4.103   7.930   1.352
 9431WAT     H228536   3.963   8.007   1.318
 9432WAT      O28537   0.830   3.321   9.753
 9432WAT     H128538   0.808   3.235   9.799
 9432WAT     H228539   0.780   3.326   9.667
 9433WAT      O28540   7.798   5.852   9.683
 9433WAT     H128541   7.835   5.813   9.598
 9433WAT     H228542   7.866   5.842   9.756
 9434WAT      O28543   6.233   0.083   5.626
 9434WAT     H128544   6.330   0.108   5.629
 9434WAT     H228545   6.225  -0.015   5.610
 9435WAT      O28546   1.428   8.758   2.351
 9435WAT     H128547   1.408   8.800   2.439
 9435WAT     H228548   1.342   8.735   2.305
 9436WAT      O28549   9.219   1.464   5.494
 9436WAT     H128550   9.218   1.536   5.564
 9436WAT     H228551   9.218   1.507   5.404
 9437WAT      O28552   3.547   6.470   4.668
 9437WAT     H128553   3.576   6.499   4.577
 9437WAT     H228554   3.468   6.524   4.697
 9438WAT      O28555   6.582   6.108   6.916
 9438WAT     H128556   6.678   6.123   6.894
 9438WAT     H228557   6.555   6.017   6.884
 9439WAT      O28558   6.273   5.397   1.587
 9439WAT     H128559   6.207   5.472   1.583
 9439WAT     H228560   6.224   5.310   1.591
 9440WAT      O28561   6.317   4.665   0.092
 9440WAT     H128562   6.380   4.600   0.135
 9440WAT     H228563   6.268   4.716   0.162
 9441WAT      O28564   4.196   0.705   1.898
 9441WAT     H128565   4.291   0.712   1.865
 9441WAT     H228566   4.175   0.610   1.919
 9442WAT      O28567   9.465   1.555   0.970
 9442WAT     H128568   9.446   1.580   1.065
 9442WAT     H228569   9.380   1.544   0.920
 9443WAT      O28570   0.747   3.836   4.930
 9443WAT     H128571   0.724   3.905   4.999
 9443WAT     H228572   0.845   3.838   4.911
 9444WAT      O28573   7.946   1.455   5.522
 9444WAT     H128574   7.975   1.527   5.458
 9444WAT     H228575   7.902   1.381   5.471
 9445WAT      O28576   8.048   3.321   7.752
 9445WAT     H128577   8.011   3.364   7.835
 9445WAT     H228578   8.051   3.388   7.678
 9446WAT      O28579   7.187   0.532   3.196
 9446WAT     H128580   7.165   0.437   3.173
 9446WAT     H228581   7.126   0.563   3.269
 9447WAT      O28582   4.571   5.705   5.655
 9447WAT     H128583   4.477   5.699   5.687
 9447WAT     H228584   4.634   5.685   5.730
 9448WAT      O28585   1.471   4.685   2.349
 9448WAT     H128586   1.411   4.694   2.269
 9448WAT     H228587   1.473   4.772   2.398
 9449WAT      O28588   2.934   6.959   6.320
 9449WAT     H128589   2.981   6.886   6.271
 9449WAT     H228590   2.996   6.998   6.388
 9450WAT      O28591   8.688   8.332   7.273
 9450WAT     H128592   8.619   8.266   7.304
 9450WAT     H228593   8.763   8.283   7.229
 9451WAT      O28594   9.657   6.644   4.299
 9451WAT     H128595   9.645   6.641   4.398
 9451WAT     H228596   9.752   6.622   4.276
 9452WAT      O28597   0.272   8.345   9.393
 9452WAT     H128598   0.246   8.371   9.486
 9452WAT     H228599   0.242   8.252   9.375
 9453WAT      O28600   1.065   7.910   6.765
 9453WAT     H128601   0.974   7.902   6.805
 9453WAT     H228602   1.092   8.007   6.762
 9454WAT      O28603   4.727   8.603   3.283
 9454WAT     H128604   4.810   8.645   3.246
 9454WAT     H228605   4.658   8.674   3.299
 9455WAT      O28606   5.362   4.963   7.636
 9455WAT     H128607   5.451   4.920   7.648
 9455WAT     H228608   5.360   5.049   7.687
 9456WAT      O28609   9.603   1.208   5.973
 9456WAT     H128610   9.540   1.191   5.897
 9456WAT     H228611   9.613   1.125   6.028
 9457WAT      O28612   4.616   7.717   6.012
 9457WAT     H128613   4.518   7.726   6.029
 9457WAT     H228614   4.637   7.748   5.920
 9458WAT      O28615   1.085   3.825   3.355
 9458WAT     H128616   1.006   3.850   3.410
 9458WAT     H228617   1.167   3.825   3.412
 9459WAT      O28618   1.683   3.198   2.446
 9459WAT     H128619   1.624   3.124   2.416
 9459WAT     H228620   1.649   3.236   2.533
 9460WAT      O28621   2.503   8.728   1.596
 9460WAT     H128622   2.470   8.812   1.639
 9460WAT     H228623   2.556   8.752   1.514
 9461WAT      O28624   9.109   5.763   6.100
 9461WAT     H128625   9.057   5.805   6.174
 9461WAT     H228626   9.184   5.709   6.138
 9462WAT      O28627   2.463   8.182   9.783
 9462WAT     H128628   2.410   8.098   9.772
 9462WAT     H228629   2.488   8.193   9.879
 9463WAT      O28630   8.671   3.090   5.032
 9463WAT     H128631   8.710   3.096   4.940
 9463WAT     H228632   8.588   3.035   5.030
 9464WAT      O28633   3.943   2.955   0.996
 9464WAT     H128634   3.977   2.867   0.962
 9464WAT     H228635   3.844   2.953   0.998
 9465WAT      O28636   1.638   2.784   4.201
 9465WAT     H128637   1.576   2.744   4.268
 9465WAT     H228638   1.590   2.796   4.114
 9466WAT      O28639   6.198   5.743   0.717
 9466WAT     H128640   6.195   5.809   0.792
 9466WAT     H228641   6.138   5.666   0.738
 9467WAT      O28642   3.184   4.548   5.093
 9467WAT     H128643   3.214   4.564   5.186
 9467WAT     H228644   3.263   4.528   5.035
 9468WAT      O28645   3.452   3.007   2.993
 9468WAT     H128646   3.439   3.009   3.092
 9468WAT     H228647   3.364   2.992   2.948
 9469WAT      O28648   3.186   7.987   1.491
 9469WAT     H128649   3.149   8.046   1.420
 9469WAT     H228650   3.286   7.987   1.486
 9470WAT      O28651   9.625   0.485   3.164
 9470WAT     H128652   9.722   0.498   3.185
 9470WAT     H228653   9.575   0.570   3.184
 9471WAT      O28654   6.398   4.606   4.780
 9471WAT     H128655   6.349   4.690   4.756
 9471WAT     H228656   6.471   4.590   4.713
 9472WAT      O28657   0.490   7.329   2.276
 9472WAT     H128658   0.511   7.334   2.178
 9472WAT     H228659   0.391   7.323   2.289
 9473WAT      O28660   6.393   7.954   4.243
 9473WAT     H128661   6.311   7.901   4.222
 9473WAT     H228662   6.454   7.955   4.163
 9474WAT      O28663   1.212   8.784   7.630
 9474WAT     H128664   1.306   8.781   7.595
 9474WAT     H228665   1.153   8.728   7.572
 9475WAT      O28666   2.263   2.538   0.588
 9475WAT     H128667   2.273   2.508   0.683
 9475WAT     H228668   2.177   2.504   0.551
 9476WAT      O28669   3.671   0.341   4.230
 9476WAT     H128670   3.769   0.339   4.245
 9476WAT     H228671   3.625   0.280   4.294
 9477WAT      O28672   3.662   1.688   5.390
 9477WAT     H128673   3.688   1.636   5.472
 9477WAT     H228674   3.567   1.718   5.398
 9478WAT      O28675   8.309   3.487   3.514
 9478WAT     H128676   8.326   3.524   3.605
 9478WAT     H228677   8.361   3.539   3.446
 9479WAT      O28678   7.587   2.917   5.159
 9479WAT     H128679   7.620   2.985   5.225
 9479WAT     H228680   7.502   2.877   5.192
 9480WAT      O28681   6.863   6.571   0.366
 9480WAT     H128682   6.856   6.520   0.451
 9480WAT     H228683   6.787   6.546   0.305
 9481WAT      O28684   2.806   7.889   8.860
 9481WAT     H128685   2.807   7.813   8.924
 9481WAT     H228686   2.715   7.896   8.818
 9482WAT      O28687   0.612   4.666   9.665
 9482WAT     H128688   0.573   4.713   9.744
 9482WAT     H228689   0.675   4.595   9.697
 9483WAT      O28690   7.106   2.293   3.671
 9483WAT     H128691   7.194   2.313   3.713
 9483WAT     H228692   7.048   2.244   3.736
 9484WAT      O28693   1.011   5.574   4.925
 9484WAT     H128694   1.073   5.638   4.970
 9484WAT     H228695   0.974   5.615   4.842
 9485WAT      O28696   5.690   4.368   1.759
 9485WAT     H128697   5.759   4.356   1.688
 9485WAT     H228698   5.707   4.304   1.834
 9486WAT      O28699   9.588   6.227   9.418
 9486WAT     H128700   9.594   6.311   9.365
 9486WAT     H228701   9.518   6.168   9.379
 9487WAT      O28702   1.468   1.429   0.195
 9487WAT     H128703   1.398   1.472   0.253
 9487WAT     H228704   1.540   1.496   0.177
 9488WAT      O28705   3.071   7.405   8.257
 9488WAT     H128706   3.132   7.346   8.204
 9488WAT     H228707   3.082   7.500   8.228
 9489WAT      O28708   4.790   5.553   7.842
 9489WAT     H128709   4.720   5.576   7.774
 9489WAT     H228710   4.770   5.601   7.927
 9490WAT      O28711   9.821   6.416   3.966
 9490WAT     H128712   9.878   6.383   3.891
 9490WAT     H228713   9.781   6.337   4.014
 9491WAT      O28714   9.393   6.408   0.634
 9491WAT     H128715   9.483   6.452   0.633
 9491WAT     H228716   9.399   6.318   0.592
 9492WAT      O28717   6.336   7.892   3.042
 9492WAT     H128718   6.374   7.885   3.134
 9492WAT     H228719   6.286   7.807   3.020
 9493WAT      O28720   3.383   8.398   2.131
 9493WAT     H128721   3.355   8.303   2.145
 9493WAT     H228722   3.389   8.417   2.033
 9494WAT      O28723   2.175   0.913   1.965
 9494WAT     H128724   2.229   0.924   1.881
 9494WAT     H228725   2.079   0.903   1.942
 9495WAT      O28726   5.372   4.280   7.515
 9495WAT     H128727   5.398   4.263   7.610
 9495WAT     H228728   5.276   4.254   7.502
 9496WAT      O28729   9.691   2.004   8.508
 9496WAT     H128730   9.722   1.924   8.559
 9496WAT     H228731   9.670   1.978   8.414
 9497WAT      O28732   4.295   1.410   6.246
 9497WAT     H128733   4.347   1.483   6.202
 9497WAT     H228734   4.245   1.358   6.176
 9498WAT      O28735   7.721   5.034   7.978
 9498WAT     H128736   7.777   4.954   7.999
 9498WAT     H228737   7.778   5.116   7.983
 9499WAT      O28738   3.723   0.221   3.410
 9499WAT     H128739   3.637   0.258   3.445
 9499WAT     H228740   3.742   0.134   3.454
 9500WAT      O28741   0.671   1.482   3.662
 9500WAT     H128742   0.711   1.550   3.600
 9500WAT     H228743   0.618   1.529   3.732
 9501WAT      O28744   1.255   7.782   3.167
 9501WAT     H128745   1.309   7.861   3.196
 9501WAT     H228746   1.297   7.741   3.085
 9502WAT      O28747   8.398   4.292   3.632
 9502WAT     H128748   8.482   4.260   3.588
 9502WAT     H228749   8.346   4.214   3.666
 9503WAT      O28750   7.845   8.985   1.084
 9503WAT     H128751   7.855   8.923   1.007
 9503WAT     H228752   7.751   9.018   1.089
 9504WAT      O28753   6.460   1.646   1.805
 9504WAT     H128754   6.511   1.717   1.854
 9504WAT     H228755   6.442   1.570   1.866
 9505WAT      O28756   8.272   7.000   9.208
 9505WAT     H128757   8.202   6.966   9.271
 9505WAT     H228758   8.304   6.925   9.150
 9506WAT      O28759   4.847   3.607   6.235
 9506WAT     H128760   4.802   3.666   6.169
 9506WAT     H228761   4.943   3.593   6.208
 9507WAT      O28762   7.140   2.683   6.904
 9507WAT     H128763   7.061   2.739   6.928
 9507WAT     H228764   7.160   2.693   6.806
 9508WAT      O28765   4.075   0.065   4.357
 9508WAT     H128766   3.985   0.030   4.331
 9508WAT     H228767   4.124   0.095   4.275
 9509WAT      O28768   8.153   8.084   0.802
 9509WAT     H128769   8.110   7.995   0.810
 9509WAT     H228770   8.251   8.075   0.818
 9510WAT      O28771   9.294   5.277   5.338
 9510WAT     H128772   9.239   5.337   5.396
 9510WAT     H228773   9.372   5.327   5.303
 9511WAT      O28774   1.315   4.852   5.138
 9511WAT     H128775   1.367   4.884   5.058
 9511WAT     H228776   1.342   4.759   5.161
 9512WAT      O28777   4.694   5.940   7.907
 9512WAT     H128778   4.632   5.930   7.984
 9512WAT     H228779   4.787   5.913   7.934
 9513WAT      O28780   0.695   8.720   7.877
 9513WAT     H128781   0.722   8.670   7.795
 9513WAT     H228782   0.777   8.749   7.926
 9514WAT      O28783   7.165   2.533   0.312
 9514WAT     H128784   7.070   2.503   0.306
 9514WAT     H228785   7.183   2.571   0.403
 9515WAT      O28786   3.422   8.690   6.101
 9515WAT     H128787   3.326   8.687   6.129
 9515WAT     H228788   3.466   8.770   6.141
 9516WAT      O28789   4.213   6.793   5.290
 9516WAT     H128790   4.215   6.697   5.317
 9516WAT     H228791   4.219   6.850   5.372
 9517WAT      O28792   9.199   9.493   1.173
 9517WAT     H128793   9.147   9.499   1.258
 9517WAT     H228794   9.141   9.455   1.101
 9518WAT      O28795   3.264   4.345  -0.003
 9518WAT     H128796   3.266   4.325   0.095
 9518WAT     H228797   3.308   4.433  -0.020
 9519WAT      O28798   4.205   4.787   8.823
 9519WAT     H128799   4.221   4.881   8.792
 9519WAT     H228800   4.275   4.762   8.890
 9520WAT      O28801   3.714   8.575   2.431
 9520WAT     H128802   3.736   8.626   2.347
 9520WAT     H228803   3.671   8.489   2.406
 9521WAT      O28804   4.736   0.648   8.918
 9521WAT     H128805   4.772   0.653   8.824
 9521WAT     H228806   4.770   0.725   8.971
 9522WAT      O28807   4.526   5.398   8.918
 9522WAT     H128808   4.542   5.303   8.889
 9522WAT     H228809   4.431   5.423   8.898
 9523WAT      O28810   3.942   7.205   7.378
 9523WAT     H128811   3.993   7.226   7.295
 9523WAT     H228812   3.973   7.118   7.416
 9524WAT      O28813   1.431   0.117   4.162
 9524WAT     H128814   1.469   0.100   4.071
 9524WAT     H228815   1.408   0.029   4.205
 9525WAT      O28816   5.733   0.203   2.163
 9525WAT     H128817   5.736   0.214   2.262
 9525WAT     H228818   5.798   0.266   2.121
 9526WAT      O28819   3.919   9.326   5.277
 9526WAT     H128820   4.003   9.302   5.326
 9526WAT     H228821   3.921   9.423   5.254
 9527WAT      O28822   8.270   4.315   2.258
 9527WAT     H128823   8.301   4.410   2.261
 9527WAT     H228824   8.221   4.294   2.343
 9528WAT      O28825   6.911   6.798   1.632
 9528WAT     H128826   6.837   6.751   1.584
 9528WAT     H228827   6.878   6.886   1.666
 9529WAT      O28828   8.483   6.250   5.943
 9529WAT     H128829   8.569   6.241   5.892
 9529WAT     H228830   8.427   6.321   5.900
 9530WAT      O28831   1.632   6.777   6.723
 9530WAT     H128832   1.582   6.767   6.637
 9530WAT     H228833   1.612   6.866   6.763
 9531WAT      O28834   9.182   8.143   9.244
 9531WAT     H128835   9.206   8.048   9.223
 9531WAT     H228836   9.225   8.204   9.177
 9532WAT      O28837   4.780   1.649   7.975
 9532WAT     H128838   4.817   1.558   7.957
 9532WAT     H228839   4.726   1.681   7.897
 9533WAT      O28840   4.346   7.348   7.391
 9533WAT     H128841   4.395   7.405   7.457
 9533WAT     H228842   4.332   7.256   7.429
 9534WAT      O28843   3.211   5.570   6.989
 9534WAT     H128844   3.295   5.550   6.938
 9534WAT     H228845   3.152   5.489   6.987
 9535WAT      O28846   8.236   8.725   5.585
 9535WAT     H128847   8.248   8.656   5.656
 9535WAT     H228848   8.175   8.797   5.618
 9536WAT      O28849   2.128   4.869   0.267
 9536WAT     H128850   2.221   4.840   0.289
 9536WAT     H228851   2.063   4.803   0.304
 9537WAT      O28852   0.225   7.334   3.598
 9537WAT     H128853   0.280   7.352   3.679
 9537WAT     H228854   0.129   7.331   3.623
 9538WAT      O28855   1.687   3.142   1.520
 9538WAT     H128856   1.702   3.238   1.497
 9538WAT     H228857   1.709   3.085   1.440
 9539WAT      O28858   0.902   0.069   5.099
 9539WAT     H128859   0.894   0.007   5.177
 9539WAT     H228860   0.963   0.029   5.030
 9540WAT      O28861   1.072   2.226   9.491
 9540WAT     H128862   1.004   2.194   9.425
 9540WAT     H228863   1.027   2.283   9.560
 9541WAT      O28864   7.517   1.012   7.857
 9541WAT     H128865   7.490   1.002   7.953
 9541WAT     H228866   7.597   0.955   7.838
 9542WAT      O28867   3.406   0.982   0.912
 9542WAT     H128868   3.438   0.898   0.867
 9542WAT     H228869   3.471   1.056   0.894
 9543WAT      O28870   3.037   2.392   1.230
 9543WAT     H128871   2.950   2.432   1.200
 9543WAT     H228872   3.022   2.343   1.316
 9544WAT      O28873   3.681   9.457   5.593
 9544WAT     H128874   3.767   9.466   5.643
 9544WAT     H228875   3.685   9.376   5.534
 9545WAT      O28876   2.711   3.054   4.255
 9545WAT     H128877   2.622   3.098   4.240
 9545WAT     H228878   2.774   3.120   4.296
 9546WAT      O28879   8.582   3.890   2.479
 9546WAT     H128880   8.598   3.870   2.576
 9546WAT     H228881   8.615   3.981   2.457
 9547WAT      O28882   5.821   2.361   5.285
 9547WAT     H128883   5.750   2.382   5.352
 9547WAT     H228884   5.910   2.357   5.330
 9548WAT      O28885   4.274   6.163   4.069
 9548WAT     H128886   4.324   6.086   4.029
 9548WAT     H228887   4.182   6.134   4.094
 9549WAT      O28888   2.297   5.094   0.430
 9549WAT     H128889   2.390   5.069   0.459
 9549WAT     H228890   2.234   5.019   0.450
 9550WAT      O28891   7.479   1.762   2.794
 9550WAT     H128892   7.509   1.715   2.710
 9550WAT     H228893   7.559   1.792   2.845
 9551WAT      O28894   3.419   4.708   8.104
 9551WAT     H128895   3.500   4.708   8.163
 9551WAT     H228896   3.347   4.652   8.146
 9552WAT      O28897   1.598   3.270   4.490
 9552WAT     H128898   1.550   3.316   4.565
 9552WAT     H228899   1.623   3.338   4.421
 9553WAT      O28900   9.570   2.731   7.280
 9553WAT     H128901   9.509   2.769   7.211
 9553WAT     H228902   9.571   2.631   7.272
 9554WAT      O28903   1.289   4.303   7.774
 9554WAT     H128904   1.189   4.310   7.775
 9554WAT     H228905   1.328   4.395   7.771
 9555WAT      O28906   5.872   3.626   4.628
 9555WAT     H128907   5.796   3.574   4.667
 9555WAT     H228908   5.918   3.571   4.559
 9556WAT      O28909   4.140   0.638   1.383
 9556WAT     H128910   4.237   0.651   1.407
 9556WAT     H228911   4.087   0.621   1.466
 9557WAT      O28912   9.603   8.650   2.589
 9557WAT     H128913   9.688   8.641   2.537
 9557WAT     H228914   9.614   8.608   2.679
 9558WAT      O28915   4.758   4.970   7.893
 9558WAT     H128916   4.791   5.058   7.857
 9558WAT     H228917   4.714   4.985   7.981
 9559WAT      O28918   7.172   3.184   5.708
 9559WAT     H128919   7.086   3.181   5.657
 9559WAT     H228920   7.220   3.269   5.687
 9560WAT      O28921   9.857   0.268   1.233
 9560WAT     H128922   9.771   0.319   1.222
 9560WAT     H228923   9.934   0.333   1.232
 9561WAT      O28924   3.216   4.548   8.985
 9561WAT     H128925   3.129   4.518   8.947
 9561WAT     H228926   3.214   4.648   8.996
 9562WAT      O28927   8.186   9.341   3.101
 9562WAT     H128928   8.205   9.243   3.090
 9562WAT     H228929   8.259   9.383   3.155
 9563WAT      O28930   5.483   5.735   1.745
 9563WAT     H128931   5.568   5.737   1.691
 9563WAT     H228932   5.424   5.662   1.712
 9564WAT      O28933   7.674   9.225   5.113
 9564WAT     H128934   7.617   9.199   5.036
 9564WAT     H228935   7.726   9.146   5.146
 9565WAT      O28936   9.426   0.793   1.213
 9565WAT     H128937   9.333   0.779   1.247
 9565WAT     H228938   9.483   0.827   1.288
 9566WAT      O28939   1.449   4.494   4.738
 9566WAT     H128940   1.484   4.570   4.793
 9566WAT     H228941   1.431   4.527   4.645
 9567WAT      O28942   1.719   4.086   3.668
 9567WAT     H128943   1.716   4.113   3.765
 9567WAT     H228944   1.793   4.134   3.622
 9568WAT      O28945   8.852   3.042   9.492
 9568WAT     H128946   8.839   2.954   9.539
 9568WAT     H228947   8.893   3.108   9.555
 9569WAT      O28948   2.886   1.464   9.077
 9569WAT     H128949   2.802   1.483   9.026
 9569WAT     H228950   2.964   1.473   9.015
 9570WAT      O28951   0.041   2.458   4.650
 9570WAT     H128952   0.140   2.441   4.646
 9570WAT     H228953  -0.007   2.370   4.653
 9571WAT      O28954   0.221   1.690   5.722
 9571WAT     H128955   0.280   1.751   5.775
 9571WAT     H228956   0.277   1.633   5.662
 9572WAT      O28957   1.150   5.540   0.985
 9572WAT     H128958   1.192   5.510   0.899
 9572WAT     H228959   1.123   5.460   1.038
 9573WAT      O28960   4.358   9.232   6.237
 9573WAT     H128961   4.438   9.282   6.271
 9573WAT     H228962   4.291   9.297   6.201
 9574WAT      O28963   0.050   8.427   9.156
 9574WAT     H128964   0.131   8.374   9.176
 9574WAT     H228965  -0.032   8.377   9.185
 9575WAT      O28966   9.696   2.473   8.367
 9575WAT     H128967   9.707   2.553   8.307
 9575WAT     H228968   9.782   2.422   8.370
 9576WAT      O28969   5.907   4.224   6.018
 9576WAT     H128970   5.816   4.205   6.055
 9576WAT     H228971   5.905   4.213   5.918
 9577WAT      O28972   6.775   7.376   7.432
 9577WAT     H128973   6.799   7.403   7.339
 9577WAT     H228974   6.748   7.457   7.484
 9578WAT      O28975   0.515   2.984   1.488
 9578WAT     H128976   0.606   3.015   1.515
 9578WAT     H228977   0.464   3.060   1.446
 9579WAT      O28978   1.518   8.945   5.013
 9579WAT     H128979   1.531   8.894   4.928
 9579WAT     H228980   1.600   8.938   5.069
 9580WAT      O28981   0.025   6.111   8.860
 9580WAT     H128982  -0.060   6.156   8.889
 9580WAT     H228983   0.103   6.156   8.904
 9581WAT      O28984   8.416   9.471   5.889
 9581WAT     H128985   8.435   9.396   5.953
 9581WAT     H228986   8.494   9.532   5.885
 9582WAT      O28987   5.320   2.184   4.794
 9582WAT     H128988   5.407   2.176   4.843
 9582WAT     H228989   5.248   2.140   4.847
 9583WAT      O28990   7.942   7.697   0.103
 9583WAT     H128991   8.010   7.684   0.175
 9583WAT     H228992   7.968   7.777   0.048
 9584WAT      O28993   4.548   2.167   6.789
 9584WAT     H128994   4.618   2.225   6.747
 9584WAT     H228995   4.483   2.137   6.720
 9585WAT      O28996   5.419   7.575   5.304
 9585WAT     H128997   5.370   7.547   5.221
 9585WAT     H228998   5.495   7.511   5.320
 9586WAT      O28999   6.551   6.422   9.497
 9586WAT     H129000   6.468   6.439   9.550
 9586WAT     H229001   6.593   6.337   9.527
 9587WAT      O29002   3.497   6.375   2.714
 9587WAT     H129003   3.425   6.431   2.672
 9587WAT     H229004   3.459   6.285   2.738
 9588WAT      O29005   3.588   7.852   8.546
 9588WAT     H129006   3.673   7.807   8.519
 9588WAT     H229007   3.513   7.786   8.543
 9589WAT      O29008   1.950   2.033   4.159
 9589WAT     H129009   1.952   1.979   4.244
 9589WAT     H229010   2.030   2.012   4.104
 9590WAT      O29011   7.746   0.373   0.487
 9590WAT     H129012   7.660   0.342   0.527
 9590WAT     H229013   7.771   0.313   0.411
 9591WAT      O29014   0.897   4.829   0.527
 9591WAT     H129015   0.887   4.881   0.612
 9591WAT     H229016   0.811   4.784   0.505
 9592WAT      O29017   5.203   4.546   4.459
 9592WAT     H129018   5.154   4.500   4.533
 9592WAT     H229019   5.270   4.483   4.420
 9593WAT      O29020   5.503   7.313   5.882
 9593WAT     H129021   5.445   7.277   5.955
 9593WAT     H229022   5.533   7.405   5.907
 9594WAT      O29023   0.178   9.384   3.455
 9594WAT     H129024   0.131   9.304   3.492
 9594WAT     H229025   0.144   9.466   3.502
 9595WAT      O29026   9.876   2.828   8.540
 9595WAT     H129027   9.969   2.853   8.565
 9595WAT     H229028   9.855   2.863   8.449
 9596WAT      O29029   0.940   2.617   4.478
 9596WAT     H129030   0.930   2.521   4.507
 9596WAT     H229031   0.869   2.639   4.411
 9597WAT      O29032   5.396   7.903   8.340
 9597WAT     H129033   5.310   7.928   8.295
 9597WAT     H229034   5.377   7.861   8.429
 9598WAT      O29035   5.598   0.562   7.519
 9598WAT     H129036   5.553   0.519   7.597
 9598WAT     H229037   5.577   0.659   7.518
 9599WAT      O29038   6.480   1.606   5.135
 9599WAT     H129039   6.453   1.698   5.105
 9599WAT     H229040   6.421   1.577   5.211
 9600WAT      O29041   5.462   6.113   0.933
 9600WAT     H129042   5.433   6.039   0.873
 9600WAT     H229043   5.464   6.199   0.881
 9601WAT      O29044   2.891   7.604   0.594
 9601WAT     H129045   2.893   7.512   0.554
 9601WAT     H229046   2.911   7.598   0.692
 9602WAT      O29047   4.590   7.469   2.865
 9602WAT     H129048   4.574   7.499   2.959
 9602WAT     H229049   4.609   7.371   2.864
 9603WAT      O29050   3.211   9.011   6.541
 9603WAT     H129051   3.224   8.944   6.468
 9603WAT     H229052   3.245   9.100   6.511
 9604WAT      O29053   2.969   1.807   9.065
 9604WAT     H129054   2.965   1.793   8.966
 9604WAT     H229055   3.062   1.829   9.093
 9605WAT      O29056   2.086   2.239   8.240
 9605WAT     H129057   2.080   2.183   8.157
 9605WAT     H229058   1.994   2.251   8.278
 9606WAT      O29059   7.421   1.377   9.039
 9606WAT     H129060   7.471   1.405   9.121
 9606WAT     H229061   7.360   1.301   9.062
 9607WAT      O29062   7.794   0.974   3.754
 9607WAT     H129063   7.767   0.965   3.658
 9607WAT     H229064   7.717   0.953   3.813
 9608WAT      O29065   6.255   5.340   1.906
 9608WAT     H129066   6.258   5.390   1.819
 9608WAT     H229067   6.170   5.288   1.910
 9609WAT      O29068   5.834   5.835   6.649
 9609WAT     H129069   5.847   5.843   6.748
 9609WAT     H229070   5.738   5.818   6.629
 9610WAT      O29071   9.378   1.137   2.977
 9610WAT     H129072   9.446   1.092   2.919
 9610WAT     H229073   9.346   1.073   3.047
 9611WAT      O29074   2.400   9.026   5.332
 9611WAT     H129075   2.399   8.933   5.368
 9611WAT     H229076   2.418   9.024   5.234
 9612WAT      O29077   5.168   4.339   0.017
 9612WAT     H129078   5.216   4.290   0.090
 9612WAT     H229079   5.172   4.286  -0.068
 9613WAT      O29080   2.253   2.210   8.916
 9613WAT     H129081   2.310   2.156   8.977
 9613WAT     H229082   2.226   2.295   8.962
 9614WAT      O29083   0.536   6.097   4.994
 9614WAT     H129084   0.532   6.178   4.935
 9614WAT     H229085   0.444   6.073   5.024
 9615WAT      O29086   8.995   4.735   4.741
 9615WAT     H129087   9.028   4.778   4.825
 9615WAT     H229088   8.998   4.636   4.750
 9616WAT      O29089   0.641   0.604   5.304
 9616WAT     H129090   0.737   0.575   5.314
 9616WAT     H229091   0.625   0.632   5.209
 9617WAT      O29092   6.765   2.815   7.276
 9617WAT     H129093   6.746   2.806   7.374
 9617WAT     H229094   6.749   2.909   7.248
 9618WAT      O29095   4.711   6.530   3.191
 9618WAT     H129096   4.766   6.577   3.122
 9618WAT     H229097   4.614   6.542   3.170
 9619WAT      O29098   3.257   4.365   2.303
 9619WAT     H129099   3.172   4.418   2.299
 9619WAT     H229100   3.244   4.278   2.256
 9620WAT      O29101   1.814   6.516   5.708
 9620WAT     H129102   1.772   6.558   5.628
 9620WAT     H229103   1.911   6.537   5.709
 9621WAT      O29104   5.823   3.587   7.338
 9621WAT     H129105   5.778   3.649   7.402
 9621WAT     H229106   5.842   3.500   7.383
 9622WAT      O29107   4.232   7.194   2.476
 9622WAT     H129108   4.311   7.144   2.511
 9622WAT     H229109   4.220   7.278   2.529
 9623WAT      O29110   7.604   2.434   2.030
 9623WAT     H129111   7.657   2.352   2.050
 9623WAT     H229112   7.535   2.448   2.101
 9624WAT      O29113   7.242   6.131   6.986
 9624WAT     H129114   7.312   6.198   6.961
 9624WAT     H229115   7.283   6.040   6.989
 9625WAT      O29116   2.952   9.809   5.396
 9625WAT     H129117   2.927   9.726   5.447
 9625WAT     H229118   2.984   9.784   5.305
 9626WAT      O29119   8.875   4.505   4.361
 9626WAT     H129120   8.919   4.586   4.399
 9626WAT     H229121   8.940   4.456   4.303
 9627WAT      O29122   6.634   2.501   0.048
 9627WAT     H129123   6.639   2.585  -0.006
 9627WAT     H229124   6.721   2.451   0.040
 9628WAT      O29125   5.121   8.222   8.962
 9628WAT     H129126   5.026   8.196   8.951
 9628WAT     H229127   5.136   8.312   8.921
 9629WAT      O29128   3.701   5.644   9.511
 9629WAT     H129129   3.637   5.670   9.439
 9629WAT     H229130   3.733   5.551   9.494
 9630WAT      O29131   1.456   8.880   4.474
 9630WAT     H129132   1.534   8.942   4.478
 9630WAT     H229133   1.430   8.853   4.567
 9631WAT      O29134   7.357   9.761   8.462
 9631WAT     H129135   7.401   9.812   8.535
 9631WAT     H229136   7.426   9.712   8.409
 9632WAT      O29137   8.707   3.669   7.873
 9632WAT     H129138   8.674   3.608   7.945
 9632WAT     H229139   8.793   3.633   7.835
 9633WAT      O29140   6.791   8.811   6.915
 9633WAT     H129141   6.753   8.804   7.008
 9633WAT     H229142   6.806   8.907   6.893
 9634WAT      O29143   1.696   8.696   1.339
 9634WAT     H129144   1.718   8.698   1.242
 9634WAT     H229145   1.781   8.701   1.392
 9635WAT      O29146   2.982   0.052   9.528
 9635WAT     H129147   2.956   0.131   9.472
 9635WAT     H229148   2.900   0.016   9.574
 9636WAT      O29149   2.598   7.585   7.487
 9636WAT     H129150   2.642   7.523   7.422
 9636WAT     H229151   2.622   7.679   7.464
 9637WAT      O29152   2.820   7.016   4.185
 9637WAT     H129153   2.747   7.054   4.242
 9637WAT     H229154   2.800   7.032   4.089
 9638WAT      O29155   4.806   1.712   3.600
 9638WAT     H129156   4.748   1.707   3.519
 9638WAT     H229157   4.823   1.808   3.623
 9639WAT      O29158   2.142   5.786   2.655
 9639WAT     H129159   2.183   5.871   2.687
 9639WAT     H229160   2.054   5.806   2.611
 9640WAT      O29161   3.058   7.866   4.690
 9640WAT     H129162   3.005   7.821   4.761
 9640WAT     H229163   3.140   7.812   4.669
 9641WAT      O29164   2.236   1.494   1.543
 9641WAT     H129165   2.323   1.445   1.552
 9641WAT     H229166   2.217   1.512   1.447
 9642WAT      O29167   2.752   9.735   4.490
 9642WAT     H129168   2.776   9.734   4.587
 9642WAT     H229169   2.786   9.819   4.448
 9643WAT      O29170   1.193   0.419   7.285
 9643WAT     H129171   1.221   0.375   7.370
 9643WAT     H229172   1.232   0.370   7.207
 9644WAT      O29173   3.113   1.335   4.479
 9644WAT     H129174   3.170   1.314   4.400
 9644WAT     H229175   3.121   1.433   4.502
 9645WAT      O29176   4.364   3.698   5.439
 9645WAT     H129177   4.393   3.603   5.446
 9645WAT     H229178   4.360   3.726   5.343
 9646WAT      O29179   9.627   2.041   1.357
 9646WAT     H129180   9.597   2.133   1.331
 9646WAT     H229181   9.709   2.047   1.414
 9647WAT      O29182   7.511   8.832   6.914
 9647WAT     H129183   7.576   8.756   6.917
 9647WAT     H229184   7.421   8.800   6.941
 9648WAT      O29185   1.592   1.342   9.157
 9648WAT     H129186   1.633   1.274   9.217
 9648WAT     H229187   1.607   1.434   9.194
 9649WAT      O29188   2.053   3.981   7.129
 9649WAT     H129189   2.014   3.901   7.083
 9649WAT     H229190   2.142   3.956   7.168
 9650WAT      O29191   9.348   2.921   2.218
 9650WAT     H129192   9.284   2.935   2.142
 9650WAT     H229193   9.441   2.912   2.182
 9651WAT      O29194   3.869   4.693   0.760
 9651WAT     H129195   3.955   4.723   0.799
 9651WAT     H229196   3.825   4.627   0.820
 9652WAT      O29197   6.907   5.919   9.528
 9652WAT     H129198   6.902   6.017   9.545
 9652WAT     H229199   6.940   5.903   9.435
 9653WAT      O29200   3.174   0.876   7.237
 9653WAT     H129201   3.170   0.944   7.310
 9653WAT     H229202   3.231   0.800   7.266
 9654WAT      O29203   8.236   9.397   3.844
 9654WAT     H129204   8.244   9.446   3.758
 9654WAT     H229205   8.141   9.368   3.858
 9655WAT      O29206   0.073   1.858   5.383
 9655WAT     H129207  -0.007   1.889   5.332
 9655WAT     H229208   0.049   1.850   5.480
 9656WAT      O29209   9.640   2.454   7.245
 9656WAT     H129210   9.612   2.358   7.244
 9656WAT     H229211   9.725   2.464   7.193
 9657WAT      O29212   1.531   7.963   0.554
 9657WAT     H129213   1.453   8.014   0.592
 9657WAT     H229214   1.616   8.009   0.578
 9658WAT      O29215   0.042   2.377   4.043
 9658WAT     H129216   0.008   2.299   4.095
 9658WAT     H229217   0.135   2.400   4.073
 9659WAT      O29218   3.151   1.894   6.332
 9659WAT     H129219   3.075   1.954   6.355
 9659WAT     H229220   3.237   1.940   6.353
 9660WAT      O29221   7.115   8.218   0.510
 9660WAT     H129222   7.115   8.293   0.444
 9660WAT     H229223   7.052   8.240   0.585
 9661WAT      O29224   3.555   1.062   1.315
 9661WAT     H129225   3.480   1.040   1.378
 9661WAT     H229226   3.642   1.057   1.364
 9662WAT      O29227   1.801   3.004   6.203
 9662WAT     H129228   1.897   2.996   6.227
 9662WAT     H229229   1.745   2.986   6.284
 9663WAT      O29230   3.507   8.976   1.227
 9663WAT     H129231   3.427   9.027   1.196
 9663WAT     H229232   3.554   8.936   1.147
 9664WAT      O29233   1.774   1.541   1.804
 9664WAT     H129234   1.747   1.529   1.899
 9664WAT     H229235   1.784   1.638   1.784
 9665WAT      O29236   9.453   7.525   5.566
 9665WAT     H129237   9.402   7.601   5.605
 9665WAT     H229238   9.461   7.537   5.467
 9666WAT      O29239   2.149   4.295   0.785
 9666WAT     H129240   2.177   4.230   0.715
 9666WAT     H229241   2.111   4.377   0.742
 9667WAT      O29242   8.028   9.210   0.984
 9667WAT     H129243   8.070   9.225   0.895
 9667WAT     H229244   7.981   9.121   0.985
 9668WAT      O29245   6.207   1.613   9.277
 9668WAT     H129246   6.221   1.574   9.186
 9668WAT     H229247   6.237   1.708   9.278
 9669WAT      O29248   3.668   6.680   2.487
 9669WAT     H129249   3.593   6.699   2.550
 9669WAT     H229250   3.692   6.583   2.493
 9670WAT      O29251   3.751   8.862   6.115
 9670WAT     H129252   3.826   8.885   6.178
 9670WAT     H229253   3.664   8.867   6.164
 9671WAT      O29254   5.878   7.000   5.437
 9671WAT     H129255   5.900   7.064   5.363
 9671WAT     H229256   5.806   6.938   5.408
 9672WAT      O29257   0.109   4.256   1.340
 9672WAT     H129258   0.043   4.285   1.409
 9672WAT     H229259   0.085   4.165   1.307
 9673WAT      O29260   8.524   9.278   1.876
 9673WAT     H129261   8.517   9.181   1.853
 9673WAT     H229262   8.440   9.307   1.921
 9674WAT      O29263   3.628   7.140   2.034
 9674WAT     H129264   3.543   7.186   2.060
 9674WAT     H229265   3.613   7.041   2.030
 9675WAT      O29266   4.101   2.340   5.328
 9675WAT     H129267   4.064   2.365   5.238
 9675WAT     H229268   4.114   2.423   5.382
 9676WAT      O29269   9.039   8.812   5.823
 9676WAT     H129270   8.982   8.870   5.765
 9676WAT     H229271   8.981   8.764   5.889
 9677WAT      O29272   9.514   1.062   3.968
 9677WAT     H129273   9.565   1.077   3.883
 9677WAT     H229274   9.564   1.102   4.045
 9678WAT      O29275   8.492   6.487   0.937
 9678WAT     H129276   8.459   6.397   0.910
 9678WAT     H229277   8.560   6.478   1.009
 9679WAT      O29278   5.797   2.440   4.409
 9679WAT     H129279   5.788   2.424   4.310
 9679WAT     H229280   5.737   2.377   4.458
 9680WAT      O29281   9.360   9.036   5.545
 9680WAT     H129282   9.457   9.041   5.518
 9680WAT     H229283   9.341   8.945   5.582
 9681WAT      O29284   3.648   6.767   5.853
 9681WAT     H129285   3.555   6.740   5.828
 9681WAT     H229286   3.672   6.852   5.807
 9682WAT      O29287   1.547   8.820   9.271
 9682WAT     H129288   1.571   8.729   9.304
 9682WAT     H229289   1.595   8.839   9.186
 9683WAT      O29290   6.801   6.269   4.363
 9683WAT     H129291   6.798   6.193   4.428
 9683WAT     H229292   6.869   6.336   4.394
 9684WAT      O29293   6.831   3.373   9.028
 9684WAT     H129294   6.903   3.422   9.077
 9684WAT     H229295   6.840   3.275   9.045
 9685WAT      O29296   5.914   3.580   6.177
 9685WAT     H129297   5.896   3.542   6.087
 9685WAT     H229298   6.012   3.599   6.187
 9686WAT      O29299   5.328   5.912   5.833
 9686WAT     H129300   5.407   5.938   5.778
 9686WAT     H229301   5.269   5.851   5.780
 9687WAT      O29302   5.363   9.765   8.694
 9687WAT     H129303   5.382   9.678   8.648
 9687WAT     H229304   5.389   9.758   8.790
 9688WAT      O29305   3.894   2.120   7.811
 9688WAT     H129306   3.980   2.156   7.847
 9688WAT     H229307   3.899   2.116   7.711
 9689WAT      O29308   3.045   1.724   8.413
 9689WAT     H129309   3.140   1.738   8.442
 9689WAT     H229310   3.033   1.757   8.320
 9690WAT      O29311   4.284   6.226   8.498
 9690WAT     H129312   4.285   6.130   8.524
 9690WAT     H229313   4.376   6.264   8.508
 9691WAT      O29314   8.442   4.800   2.032
 9691WAT     H129315   8.370   4.867   2.046
 9691WAT     H229316   8.441   4.768   1.937
 9692WAT      O29317   2.926   1.940   9.766
 9692WAT     H129318   2.826   1.945   9.769
 9692WAT     H229319   2.954   1.844   9.769
 9693WAT      O29320   4.461   0.695   1.810
 9693WAT     H129321   4.504   0.612   1.844
 9693WAT     H229322   4.516   0.775   1.836
 9694WAT      O29323   0.743   3.937   8.428
 9694WAT     H129324   0.765   4.024   8.384
 9694WAT     H229325   0.769   3.941   8.525
 9695WAT      O29326   7.936   1.484   1.713
 9695WAT     H129327   7.848   1.437   1.709
 9695WAT     H229328   8.005   1.430   1.664
 9696WAT      O29329   3.561   0.898   6.149
 9696WAT     H129330   3.604   0.962   6.085
 9696WAT     H229331   3.579   0.804   6.118
 9697WAT      O29332   5.789   5.177   0.137
 9697WAT     H129333   5.775   5.079   0.154
 9697WAT     H229334   5.702   5.225   0.141
 9698WAT      O29335   8.757   1.369   2.778
 9698WAT     H129336   8.685   1.314   2.820
 9698WAT     H229337   8.846   1.328   2.799
 9699WAT      O29338   3.791   4.995   0.836
 9699WAT     H129339   3.696   5.024   0.825
 9699WAT     H229340   3.799   4.897   0.821
 9700WAT      O29341   9.535   2.189   6.655
 9700WAT     H129342   9.530   2.266   6.591
 9700WAT     H229343   9.477   2.114   6.622
 9701WAT      O29344   1.917   3.978   6.533
 9701WAT     H129345   1.995   3.993   6.472
 9701WAT     H229346   1.949   3.971   6.628
 9702WAT      O29347   2.712   4.210   8.962
 9702WAT     H129348   2.666   4.293   8.995
 9702WAT     H229349   2.738   4.223   8.866
 9703WAT      O29350   1.404   3.856   1.019
 9703WAT     H129351   1.467   3.780   1.009
 9703WAT     H229352   1.341   3.858   0.941
 9704WAT      O29353   0.539   7.345   6.113
 9704WAT     H129354   0.629   7.302   6.107
 9704WAT     H229355   0.485   7.300   6.185
 9705WAT      O29356   1.706   9.445   8.933
 9705WAT     H129357   1.649   9.432   9.015
 9705WAT     H229358   1.700   9.364   8.875
 9706WAT      O29359   3.427   2.344   7.360
 9706WAT     H129360   3.495   2.333   7.432
 9706WAT     H229361   3.459   2.411   7.293
 9707WAT      O29362   5.627   3.286   3.483
 9707WAT     H129363   5.540   3.247   3.513
 9707WAT     H229364   5.610   3.365   3.424
 9708WAT      O29365   6.903   2.045   5.217
 9708WAT     H129366   6.920   2.064   5.314
 9708WAT     H229367   6.827   2.101   5.185
 9709WAT      O29368   6.499   1.338   1.568
 9709WAT     H129369   6.594   1.367   1.555
 9709WAT     H229370   6.492   1.281   1.650
 9710WAT      O29371   1.406   3.024   5.084
 9710WAT     H129372   1.463   3.059   5.009
 9710WAT     H229373   1.343   3.096   5.113
 9711WAT      O29374   0.675   0.401   6.979
 9711WAT     H129375   0.611   0.419   7.053
 9711WAT     H229376   0.625   0.389   6.893
 9712WAT      O29377   7.942   0.408   6.999
 9712WAT     H129378   8.000   0.359   7.065
 9712WAT     H229379   7.846   0.387   7.018
 9713WAT      O29380   4.107   7.749   1.371
 9713WAT     H129381   4.105   7.735   1.470
 9713WAT     H229382   4.045   7.683   1.327
 9714WAT      O29383   7.986   6.995   8.112
 9714WAT     H129384   7.948   6.978   8.021
 9714WAT     H229385   8.085   6.992   8.108
 9715WAT      O29386   9.267   0.584   6.404
 9715WAT     H129387   9.324   0.650   6.453
 9715WAT     H229388   9.253   0.503   6.460
 9716WAT      O29389   9.444   4.388   9.031
 9716WAT     H129390   9.471   4.338   8.948
 9716WAT     H229391   9.469   4.334   9.111
 9717WAT      O29392   3.304   3.215   6.798
 9717WAT     H129393   3.224   3.200   6.856
 9717WAT     H229394   3.362   3.133   6.801
 9718WAT      O29395   0.347   5.801   2.462
 9718WAT     H129396   0.447   5.799   2.462
 9718WAT     H229397   0.312   5.759   2.378
 9719WAT      O29398   1.824   5.453   4.146
 9719WAT     H129399   1.851   5.545   4.115
 9719WAT     H229400   1.893   5.418   4.209
 9720WAT      O29401   2.102   2.512   8.119
 9720WAT     H129402   2.195   2.515   8.082
 9720WAT     H229403   2.070   2.417   8.120
 9721WAT      O29404   2.393   8.769   5.419
 9721WAT     H129405   2.408   8.746   5.515
 9721WAT     H229406   2.345   8.694   5.373
 9722WAT      O29407   3.332   2.256   8.876
 9722WAT     H129408   3.375   2.220   8.794
 9722WAT     H229409   3.401   2.271   8.947
 9723WAT      O29410   4.626   2.471   3.321
 9723WAT     H129411   4.722   2.479   3.347
 9723WAT     H229412   4.569   2.514   3.391
 9724WAT      O29413   6.948   7.607   2.553
 9724WAT     H129414   6.913   7.569   2.639
 9724WAT     H229415   7.022   7.548   2.519
 9725WAT      O29416   4.869   9.512   2.649
 9725WAT     H129417   4.894   9.416   2.660
 9725WAT     H229418   4.812   9.523   2.568
 9726WAT      O29419   1.378   0.587   5.858
 9726WAT     H129420   1.385   0.583   5.759
 9726WAT     H229421   1.463   0.623   5.897
 9727WAT      O29422   3.220   4.877   2.961
 9727WAT     H129423   3.258   4.833   3.042
 9727WAT     H229424   3.126   4.906   2.980
 9728WAT      O29425   5.109   6.621   5.205
 9728WAT     H129426   5.181   6.625   5.274
 9728WAT     H229427   5.109   6.531   5.161
 9729WAT      O29428   1.568   1.067   4.966
 9729WAT     H129429   1.592   1.031   5.056
 9729WAT     H229430   1.471   1.088   4.963
 9730WAT      O29431   0.053   7.854   5.753
 9730WAT     H129432   0.100   7.918   5.691
 9730WAT     H229433  -0.022   7.809   5.704
 9731WAT      O29434   3.979   7.183   2.794
 9731WAT     H129435   4.033   7.137   2.864
 9731WAT     H229436   4.031   7.261   2.758
 9732WAT      O29437   4.887   3.282   8.822
 9732WAT     H129438   4.862   3.226   8.743
 9732WAT     H229439   4.987   3.291   8.826
 9733WAT      O29440   4.246   4.375   8.619
 9733WAT     H129441   4.236   4.276   8.621
 9733WAT     H229442   4.297   4.405   8.699
 9734WAT      O29443   1.200   9.778   5.968
 9734WAT     H129444   1.202   9.787   5.869
 9734WAT     H229445   1.268   9.840   6.008
 9735WAT      O29446   4.049   7.020   6.235
 9735WAT     H129447   4.076   6.925   6.247
 9735WAT     H229448   4.056   7.046   6.139
 9736WAT      O29449   8.619   2.934   6.205
 9736WAT     H129450   8.660   2.866   6.145
 9736WAT     H229451   8.580   2.888   6.285
 9737WAT      O29452   1.541   4.115   7.893
 9737WAT     H129453   1.555   4.056   7.973
 9737WAT     H229454   1.515   4.207   7.924
 9738WAT      O29455   4.319   9.509   9.610
 9738WAT     H129456   4.290   9.442   9.542
 9738WAT     H229457   4.249   9.516   9.681
 9739WAT      O29458   5.444   7.132   7.818
 9739WAT     H129459   5.370   7.180   7.864
 9739WAT     H229460   5.461   7.044   7.863
 9740WAT      O29461   4.495   7.450   9.811
 9740WAT     H129462   4.396   7.460   9.800
 9740WAT     H229463   4.537   7.541   9.820
 9741WAT      O29464   0.229   8.629   6.589
 9741WAT     H129465   0.173   8.575   6.652
 9741WAT     H229466   0.174   8.654   6.509
 9742WAT      O29467   6.662   5.327   6.831
 9742WAT     H129468   6.757   5.306   6.855
 9742WAT     H229469   6.650   5.426   6.826
 9743WAT      O29470   9.839   8.827   1.468
 9743WAT     H129471   9.746   8.816   1.502
 9743WAT     H229472   9.851   8.920   1.432
 9744WAT      O29473   0.157   4.944   9.578
 9744WAT     H129474   0.168   4.854   9.620
 9744WAT     H229475   0.060   4.961   9.560
 9745WAT      O29476   5.175   9.138   6.580
 9745WAT     H129477   5.237   9.159   6.656
 9745WAT     H229478   5.144   9.223   6.538
 9746WAT      O29479   5.706   0.445   7.318
 9746WAT     H129480   5.675   0.350   7.311
 9746WAT     H229481   5.674   0.485   7.404
 9747WAT      O29482   9.112   6.128   5.442
 9747WAT     H129483   9.074   6.171   5.524
 9747WAT     H229484   9.188   6.069   5.467
 9748WAT      O29485   3.482   0.762   9.768
 9748WAT     H129486   3.412   0.698   9.734
 9748WAT     H229487   3.559   0.709   9.805
 9749WAT      O29488   7.711   6.867   3.874
 9749WAT     H129489   7.780   6.808   3.831
 9749WAT     H229490   7.674   6.929   3.805
 9750WAT      O29491   1.611   0.914   0.034
 9750WAT     H129492   1.539   0.913   0.104
 9750WAT     H229493   1.604   0.998  -0.020
 9751WAT      O29494   0.276   3.591   7.224
 9751WAT     H129495   0.307   3.640   7.143
 9751WAT     H229496   0.330   3.621   7.303
 9752WAT      O29497   3.003   2.966   4.012
 9752WAT     H129498   2.964   2.905   4.081
 9752WAT     H229499   2.974   2.937   3.921
 9753WAT      O29500   4.549   5.312   2.754
 9753WAT     H129501   4.648   5.318   2.769
 9753WAT     H229502   4.531   5.260   2.671
 9754WAT      O29503   1.518   6.161   5.654
 9754WAT     H129504   1.534   6.081   5.713
 9754WAT     H229505   1.420   6.178   5.647
 9755WAT      O29506   6.425   3.860   0.557
 9755WAT     H129507   6.437   3.952   0.595
 9755WAT     H229508   6.440   3.862   0.458
 9756WAT      O29509   6.567   7.112   0.273
 9756WAT     H129510   6.656   7.086   0.235
 9756WAT     H229511   6.503   7.130   0.198
 9757WAT      O29512   7.605   3.940   8.384
 9757WAT     H129513   7.704   3.931   8.374
 9757WAT     H229514   7.562   3.851   8.367
 9758WAT      O29515   7.573   8.934   8.416
 9758WAT     H129516   7.556   9.029   8.392
 9758WAT     H229517   7.565   8.877   8.334
 9759WAT      O29518   4.078   0.380   8.295
 9759WAT     H129519   4.007   0.328   8.247
 9759WAT     H229520   4.053   0.390   8.391
 9760WAT      O29521   7.607   8.574   1.631
 9760WAT     H129522   7.612   8.477   1.605
 9760WAT     H229523   7.514   8.596   1.661
 9761WAT      O29524   8.544   4.894   8.949
 9761WAT     H129525   8.455   4.866   8.912
 9761WAT     H229526   8.563   4.988   8.922
 9762WAT      O29527   0.840   0.331   5.099
 9762WAT     H129528   0.743   0.329   5.123
 9762WAT     H229529   0.872   0.237   5.086
 9763WAT      O29530   0.224   1.569   8.376
 9763WAT     H129531   0.156   1.625   8.329
 9763WAT     H229532   0.312   1.617   8.376
 9764WAT      O29533   3.557   6.260   3.741
 9764WAT     H129534   3.464   6.262   3.703
 9764WAT     H229535   3.598   6.351   3.733
 9765WAT      O29536   6.977   5.682   4.776
 9765WAT     H129537   6.995   5.719   4.867
 9765WAT     H229538   7.047   5.616   4.751
 9766WAT      O29539   0.851   5.048   5.499
 9766WAT     H129540   0.913   5.003   5.435
 9766WAT     H229541   0.888   5.137   5.524
 9767WAT      O29542   5.310   2.760   4.640
 9767WAT     H129543   5.255   2.811   4.706
 9767WAT     H229544   5.251   2.694   4.592
 9768WAT      O29545   5.298   5.868   9.339
 9768WAT     H129546   5.339   5.778   9.353
 9768WAT     H229547   5.340   5.935   9.400
 9769WAT      O29548   7.884   3.127   5.384
 9769WAT     H129549   7.793   3.090   5.402
 9769WAT     H229550   7.878   3.226   5.369
 9770WAT      O29551   7.013   7.566   9.371
 9770WAT     H129552   6.954   7.491   9.402
 9770WAT     H229553   6.998   7.646   9.430
 9771WAT      O29554   6.933   7.495   2.979
 9771WAT     H129555   7.007   7.521   2.917
 9771WAT     H229556   6.927   7.395   2.984
 9772WAT      O29557   2.146   7.145   9.292
 9772WAT     H129558   2.192   7.061   9.322
 9772WAT     H229559   2.143   7.210   9.368
 9773WAT      O29560   9.221   1.271   4.559
 9773WAT     H129561   9.225   1.215   4.476
 9773WAT     H229562   9.190   1.363   4.535
 9774WAT      O29563   3.736   1.437   2.987
 9774WAT     H129564   3.823   1.461   2.946
 9774WAT     H229565   3.662   1.453   2.921
 9775WAT      O29566   8.209   3.120   1.707
 9775WAT     H129567   8.162   3.143   1.621
 9775WAT     H229568   8.229   3.204   1.757
 9776WAT      O29569   3.934   0.968   2.542
 9776WAT     H129570   3.899   1.022   2.466
 9776WAT     H229571   3.866   0.899   2.568
 9777WAT      O29572   4.546   1.704   5.700
 9777WAT     H129573   4.576   1.761   5.777
 9777WAT     H229574   4.619   1.700   5.631
 9778WAT      O29575   4.536   8.779   3.348
 9778WAT     H129576   4.441   8.780   3.315
 9778WAT     H229577   4.536   8.771   3.447
 9779WAT      O29578   4.907   2.934   1.994
 9779WAT     H129579   4.888   2.851   1.942
 9779WAT     H229580   4.986   2.918   2.053
 9780WAT      O29581   6.131   7.083   0.932
 9780WAT     H129582   6.190   7.002   0.935
 9780WAT     H229583   6.057   7.073   0.999
 9781WAT      O29584   1.214   5.153   4.709
 9781WAT     H129585   1.159   5.213   4.766
 9781WAT     H229586   1.261   5.207   4.640
 9782WAT      O29587   8.120   0.910   8.458
 9782WAT     H129588   8.194   0.862   8.412
 9782WAT     H229589   8.035   0.898   8.406
 9783WAT      O29590   0.258   9.781   0.788
 9783WAT     H129591   0.317   9.853   0.750
 9783WAT     H229592   0.189   9.756   0.720
 9784WAT      O29593   7.784   2.651   7.800
 9784WAT     H129594   7.826   2.588   7.735
 9784WAT     H229595   7.692   2.674   7.770
 9785WAT      O29596   8.917   1.307   9.280
 9785WAT     H129597   8.959   1.231   9.329
 9785WAT     H229598   8.846   1.350   9.337
 9786WAT      O29599   1.791   0.258   1.330
 9786WAT     H129600   1.827   0.297   1.245
 9786WAT     H229601   1.757   0.332   1.388
 9787WAT      O29602   5.382   6.873   8.784
 9787WAT     H129603   5.282   6.868   8.780
 9787WAT     H229604   5.415   6.934   8.711
 9788WAT      O29605   1.463   8.050   6.738
 9788WAT     H129606   1.421   8.003   6.815
 9788WAT     H229607   1.401   8.120   6.703
 9789WAT      O29608   7.958   6.525   3.494
 9789WAT     H129609   7.871   6.482   3.517
 9789WAT     H229610   8.032   6.459   3.507
 9790WAT      O29611   5.247   2.898   1.974
 9790WAT     H129612   5.218   2.803   1.969
 9790WAT     H229613   5.236   2.932   2.068
 9791WAT      O29614   5.445   5.402   6.763
 9791WAT     H129615   5.529   5.389   6.709
 9791WAT     H229616   5.386   5.322   6.753
 9792WAT      O29617   0.182   3.227   4.398
 9792WAT     H129618   0.155   3.251   4.305
 9792WAT     H229619   0.170   3.307   4.458
 9793WAT      O29620   1.774   4.588   7.439
 9793WAT     H129621   1.850   4.653   7.437
 9793WAT     H229622   1.789   4.518   7.370
 9794WAT      O29623   7.210   2.950   4.987
 9794WAT     H129624   7.202   2.941   5.086
 9794WAT     H229625   7.280   3.018   4.965
 9795WAT      O29626   5.127   6.034   8.434
 9795WAT     H129627   5.123   6.033   8.534
 9795WAT     H229628   5.222   6.030   8.404
 9796WAT      O29629   0.091   6.093   7.854
 9796WAT     H129630   0.106   6.169   7.917
 9796WAT     H229631   0.001   6.101   7.812
 9797WAT      O29632   4.525   7.812   4.654
 9797WAT     H129633   4.453   7.745   4.638
 9797WAT     H229634   4.511   7.891   4.594
 9798WAT      O29635   8.354   3.841   9.344
 9798WAT     H129636   8.352   3.929   9.391
 9798WAT     H229637   8.307   3.849   9.256
 9799WAT      O29638   1.849   6.509   3.934
 9799WAT     H129639   1.816   6.540   3.845
 9799WAT     H229640   1.772   6.501   3.997
 9800WAT      O29641   7.719   0.518   3.126
 9800WAT     H129642   7.625   0.552   3.137
 9800WAT     H229643   7.740   0.454   3.200
 9801WAT      O29644   6.073   3.047   0.731
 9801WAT     H129645   5.976   3.024   0.726
 9801WAT     H229646   6.090   3.105   0.810
 9802WAT      O29647   4.788   5.536   6.253
 9802WAT     H129648   4.702   5.577   6.221
 9802WAT     H229649   4.863   5.563   6.193
 9803WAT      O29650   1.020   2.849   9.870
 9803WAT     H129651   1.066   2.847   9.780
 9803WAT     H229652   1.004   2.944   9.896
 9804WAT      O29653   1.970   6.839   7.069
 9804WAT     H129654   1.905   6.771   7.103
 9804WAT     H229655   1.993   6.902   7.144
 9805WAT      O29656   2.762   5.776   3.208
 9805WAT     H129657   2.861   5.794   3.215
 9805WAT     H229658   2.712   5.852   3.248
 9806WAT      O29659   9.412   5.805   1.051
 9806WAT     H129660   9.435   5.891   1.096
 9806WAT     H229661   9.493   5.769   1.005
 9807WAT      O29662   5.735   6.996   8.676
 9807WAT     H129663   5.774   7.088   8.673
 9807WAT     H229664   5.755   6.954   8.764
 9808WAT      O29665   8.206   2.667   1.400
 9808WAT     H129666   8.183   2.570   1.400
 9808WAT     H229667   8.301   2.679   1.429
 9809WAT      O29668   2.747   7.155   6.667
 9809WAT     H129669   2.811   7.138   6.742
 9809WAT     H229670   2.653   7.144   6.700
 9810WAT      O29671   3.573   6.260   4.012
 9810WAT     H129672   3.575   6.258   3.912
 9810WAT     H229673   3.509   6.330   4.043
 9811WAT      O29674   8.845   5.031   7.755
 9811WAT     H129675   8.760   5.009   7.803
 9811WAT     H229676   8.851   4.977   7.671
 9812WAT      O29677   8.019   5.496   3.405
 9812WAT     H129678   8.015   5.401   3.438
 9812WAT     H229679   7.990   5.558   3.478
 9813WAT      O29680   8.069   7.401   8.292
 9813WAT     H129681   8.041   7.480   8.347
 9813WAT     H229682   8.147   7.357   8.336
 9814WAT      O29683   7.342   1.422   8.760
 9814WAT     H129684   7.280   1.500   8.750
 9814WAT     H229685   7.388   1.428   8.848
 9815WAT      O29686   9.843   2.163   8.679
 9815WAT     H129687   9.941   2.165   8.659
 9815WAT     H229688   9.796   2.104   8.614
 9816WAT      O29689   5.171   2.571   5.921
 9816WAT     H129690   5.166   2.582   5.821
 9816WAT     H229691   5.175   2.474   5.944
 9817WAT      O29692   4.272   4.849   6.622
 9817WAT     H129693   4.234   4.767   6.579
 9817WAT     H229694   4.197   4.906   6.656
 9818WAT      O29695   3.617   2.667   1.688
 9818WAT     H129696   3.590   2.752   1.734
 9818WAT     H229697   3.555   2.648   1.612
 9819WAT      O29698   9.141   5.081   3.004
 9819WAT     H129699   9.169   5.008   2.941
 9819WAT     H229700   9.211   5.153   3.005
 9820WAT      O29701   5.493   2.240   1.856
 9820WAT     H129702   5.465   2.167   1.795
 9820WAT     H229703   5.492   2.208   1.950
 9821WAT      O29704   2.091   4.977   5.018
 9821WAT     H129705   2.017   5.041   5.042
 9821WAT     H229706   2.051   4.895   4.977
 9822WAT      O29707   2.948   6.024   6.278
 9822WAT     H129708   2.885   6.043   6.203
 9822WAT     H229709   2.990   5.934   6.265
 9823WAT      O29710   2.039   6.685   3.980
 9823WAT     H129711   2.029   6.714   4.075
 9823WAT     H229712   1.964   6.622   3.956
 9824WAT      O29713   7.593   0.930   7.571
 9824WAT     H129714   7.645   0.942   7.656
 9824WAT     H229715   7.520   0.863   7.586
 9825WAT      O29716   8.524   1.500   4.451
 9825WAT     H129717   8.471   1.528   4.371
 9825WAT     H229718   8.590   1.430   4.423
 9826WAT      O29719   4.675   4.749   9.636
 9826WAT     H129720   4.682   4.677   9.705
 9826WAT     H229721   4.750   4.814   9.647
 9827WAT      O29722   8.893   6.852   1.547
 9827WAT     H129723   8.837   6.920   1.594
 9827WAT     H229724   8.834   6.791   1.494
 9828WAT      O29725   5.673   9.102   8.967
 9828WAT     H129726   5.643   9.038   9.037
 9828WAT     H229727   5.769   9.127   8.984
 9829WAT      O29728   2.041   0.666   0.718
 9829WAT     H129729   2.077   0.753   0.750
 9829WAT     H229730   2.110   0.595   0.730
 9830WAT      O29731   5.553   3.770   0.182
 9830WAT     H129732   5.636   3.802   0.136
 9830WAT     H229733   5.578   3.701   0.251
 9831WAT      O29734   3.656   4.978   0.460
 9831WAT     H129735   3.594   4.915   0.413
 9831WAT     H229736   3.614   5.010   0.545
 9832WAT      O29737   6.840   2.041   6.165
 9832WAT     H129738   6.761   2.055   6.105
 9832WAT     H229739   6.810   2.039   6.260
 9833WAT      O29740   3.456   0.749   4.600
 9833WAT     H129741   3.478   0.844   4.579
 9833WAT     H229742   3.386   0.745   4.671
 9834WAT      O29743   9.223   1.968   1.333
 9834WAT     H129744   9.197   2.064   1.344
 9834WAT     H229745   9.261   1.934   1.418
 9835WAT      O29746   6.921   0.682   2.712
 9835WAT     H129747   6.859   0.760   2.722
 9835WAT     H229748   6.960   0.659   2.801
 9836WAT      O29749   5.222   2.936   1.651
 9836WAT     H129750   5.185   2.983   1.731
 9836WAT     H229751   5.269   2.853   1.679
 9837WAT      O29752   7.427   9.237   1.946
 9837WAT     H129753   7.356   9.306   1.933
 9837WAT     H229754   7.458   9.203   1.857
 9838WAT      O29755   7.800   3.677   7.571
 9838WAT     H129756   7.900   3.680   7.566
 9838WAT     H229757   7.767   3.756   7.623
 9839WAT      O29758   8.292   7.572   7.983
 9839WAT     H129759   8.364   7.511   7.949
 9839WAT     H229760   8.287   7.653   7.925
 9840WAT      O29761   1.715   9.548   7.262
 9840WAT     H129762   1.684   9.554   7.167
 9840WAT     H229763   1.815   9.546   7.263
 9841WAT      O29764   9.375   6.389   4.564
 9841WAT     H129765   9.298   6.355   4.618
 9841WAT     H229766   9.345   6.401   4.469
 9842WAT      O29767   7.433   5.767   5.375
 9842WAT     H129768   7.478   5.754   5.286
 9842WAT     H229769   7.468   5.699   5.439
 9843WAT      O29770   9.453   5.118   9.154
 9843WAT     H129771   9.409   5.208   9.157
 9843WAT     H229772   9.398   5.052   9.205
 9844WAT      O29773   5.282   6.619   9.217
 9844WAT     H129774   5.198   6.565   9.220
 9844WAT     H229775   5.297   6.651   9.124
 9845WAT      O29776   3.255   2.587   6.625
 9845WAT     H129777   3.293   2.526   6.555
 9845WAT     H229778   3.244   2.678   6.587
 9846WAT      O29779   0.087   7.742   2.667
 9846WAT     H129780   0.076   7.837   2.696
 9846WAT     H229781   0.059   7.682   2.741
 9847WAT      O29782   7.506   5.030   5.893
 9847WAT     H129783   7.507   4.939   5.850
 9847WAT     H229784   7.502   5.020   5.992
 9848WAT      O29785   2.228   4.868   6.662
 9848WAT     H129786   2.326   4.870   6.680
 9848WAT     H229787   2.181   4.827   6.740
 9849WAT      O29788   4.845   1.925   0.699
 9849WAT     H129789   4.942   1.929   0.676
 9849WAT     H229790   4.798   2.003   0.658
 9850WAT      O29791   9.498   6.261   7.241
 9850WAT     H129792   9.524   6.357   7.226
 9850WAT     H229793   9.399   6.254   7.253
 9851WAT      O29794   7.318   3.035   8.126
 9851WAT     H129795   7.319   3.129   8.159
 9851WAT     H229796   7.335   2.973   8.202
 9852WAT      O29797   6.062   8.211   0.103
 9852WAT     H129798   6.045   8.157   0.020
 9852WAT     H229799   6.039   8.156   0.183
 9853WAT      O29800   3.449   6.165   8.424
 9853WAT     H129801   3.514   6.240   8.409
 9853WAT     H229802   3.392   6.186   8.503
 9854WAT      O29803   6.408   1.186   0.619
 9854WAT     H129804   6.321   1.235   0.621
 9854WAT     H229805   6.458   1.206   0.703
 9855WAT      O29806   5.078   0.956   6.724
 9855WAT     H129807   5.161   0.987   6.678
 9855WAT     H229808   5.103   0.919   6.814
 9856WAT      O29809   3.073   9.532   1.078
 9856WAT     H129810   3.109   9.625   1.077
 9856WAT     H229811   3.093   9.489   1.166
 9857WAT      O29812   3.558   1.649   0.454
 9857WAT     H129813   3.495   1.719   0.486
 9857WAT     H229814   3.525   1.559   0.481
 9858WAT      O29815   7.574   5.427   2.193
 9858WAT     H129816   7.668   5.459   2.207
 9858WAT     H229817   7.534   5.473   2.114
 9859WAT      O29818   3.726   0.689   4.661
 9859WAT     H129819   3.673   0.730   4.586
 9859WAT     H229820   3.716   0.746   4.742
 9860WAT      O29821   3.081   7.770   6.542
 9860WAT     H129822   3.061   7.801   6.635
 9860WAT     H229823   3.021   7.693   6.519
 9861WAT      O29824   5.658   8.258   0.970
 9861WAT     H129825   5.747   8.293   0.997
 9861WAT     H229826   5.669   8.193   0.895
 9862WAT      O29827   4.158   0.475   4.284
 9862WAT     H129828   4.252   0.455   4.313
 9862WAT     H229829   4.156   0.564   4.239
 9863WAT      O29830   9.329   4.271   0.541
 9863WAT     H129831   9.392   4.348   0.532
 9863WAT     H229832   9.267   4.269   0.462
 9864WAT      O29833   7.943   6.273   1.627
 9864WAT     H129834   7.952   6.259   1.528
 9864WAT     H229835   7.857   6.321   1.646
 9865WAT      O29836   2.421   7.317   9.299
 9865WAT     H129837   2.402   7.282   9.391
 9865WAT     H229838   2.500   7.377   9.301
 9866WAT      O29839   4.441   9.339   8.673
 9866WAT     H129840   4.429   9.385   8.585
 9866WAT     H229841   4.353   9.329   8.719
 9867WAT      O29842   3.029   0.091   2.493
 9867WAT     H129843   3.000  -0.002   2.469
 9867WAT     H229844   3.054   0.093   2.590
 9868WAT      O29845   7.850   5.611   4.193
 9868WAT     H129846   7.897   5.546   4.132
 9868WAT     H229847   7.873   5.704   4.165
 9869WAT      O29848   8.073   4.210   0.762
 9869WAT     H129849   8.049   4.115   0.780
 9869WAT     H229850   8.053   4.265   0.842
 9870WAT      O29851   6.835   5.690   1.131
 9870WAT     H129852   6.743   5.710   1.164
 9870WAT     H229853   6.844   5.719   1.036
 9871WAT      O29854   5.309   4.949   9.634
 9871WAT     H129855   5.409   4.941   9.631
 9871WAT     H229856   5.268   4.891   9.563
 9872WAT      O29857   3.684   9.702   4.434
 9872WAT     H129858   3.684   9.607   4.404
 9872WAT     H229859   3.693   9.706   4.533
 9873WAT      O29860   0.989   3.966   0.013
 9873WAT     H129861   0.983   3.873   0.051
 9873WAT     H229862   1.049   4.021   0.070
 9874WAT      O29863   8.337   8.087   6.300
 9874WAT     H129864   8.390   8.096   6.216
 9874WAT     H229865   8.292   7.998   6.302
 9875WAT      O29866   1.881   6.640   9.779
 9875WAT     H129867   1.875   6.730   9.735
 9875WAT     H229868   1.977   6.614   9.790
 9876WAT      O29869   4.453   7.314   3.255
 9876WAT     H129870   4.550   7.287   3.255
 9876WAT     H229871   4.397   7.233   3.273
 9877WAT      O29872   6.637   1.139   5.905
 9877WAT     H129873   6.712   1.152   5.970
 9877WAT     H229874   6.675   1.116   5.815
 9878WAT      O29875   3.112   5.554   5.376
 9878WAT     H129876   3.195   5.509   5.409
 9878WAT     H229877   3.031   5.508   5.414
 9879WAT      O29878   6.626   5.226   4.580
 9879WAT     H129879   6.628   5.156   4.651
 9879WAT     H229880   6.536   5.227   4.537
 9880WAT      O29881   9.384   1.637   7.938
 9880WAT     H129882   9.413   1.590   8.022
 9880WAT     H229883   9.458   1.637   7.872
 9881WAT      O29884   1.715   1.935   5.031
 9881WAT     H129885   1.640   1.998   5.050
 9881WAT     H229886   1.800   1.975   5.066
 9882WAT      O29887   2.271   4.674   1.539
 9882WAT     H129888   2.346   4.700   1.601
 9882WAT     H229889   2.289   4.712   1.448
 9883WAT      O29890   7.633   2.643   2.594
 9883WAT     H129891   7.566   2.603   2.531
 9883WAT     H229892   7.722   2.649   2.548
 9884WAT      O29893   3.508   2.871   7.549
 9884WAT     H129894   3.541   2.964   7.540
 9884WAT     H229895   3.513   2.842   7.645
 9885WAT      O29896   6.521   5.439   5.756
 9885WAT     H129897   6.474   5.351   5.767
 9885WAT     H229898   6.461   5.503   5.708
 9886WAT      O29899   3.520   3.925   8.533
 9886WAT     H129900   3.544   4.013   8.491
 9886WAT     H229901   3.423   3.905   8.516
 9887WAT      O29902   4.045   3.621   6.748
 9887WAT     H129903   4.137   3.649   6.719
 9887WAT     H229904   4.002   3.568   6.675
 9888WAT      O29905   3.590   1.879   4.396
 9888WAT     H129906   3.604   1.781   4.413
 9888WAT     H229907   3.584   1.895   4.297
 9889WAT      O29908   6.264   7.512   5.047
 9889WAT     H129909   6.261   7.412   5.057
 9889WAT     H229910   6.171   7.549   5.055
 9890WAT      O29911   8.673   0.694   5.651
 9890WAT     H129912   8.691   0.692   5.553
 9890WAT     H229913   8.724   0.620   5.696
 9891WAT      O29914   8.605   6.210   1.136
 9891WAT     H129915   8.527   6.266   1.162
 9891WAT     H229916   8.682   6.269   1.111
 9892WAT      O29917   4.057   5.916   1.338
 9892WAT     H129918   4.067   5.822   1.372
 9892WAT     H229919   4.144   5.947   1.301
 9893WAT      O29920   9.044   6.623   7.590
 9893WAT     H129921   9.083   6.615   7.682
 9893WAT     H229922   9.005   6.714   7.578
 9894WAT      O29923   8.376   6.958   7.863
 9894WAT     H129924   8.360   7.055   7.846
 9894WAT     H229925   8.353   6.936   7.958
 9895WAT      O29926   9.761   6.551   3.552
 9895WAT     H129927   9.842   6.609   3.562
 9895WAT     H229928   9.780   6.461   3.592
 9896WAT      O29929   3.203   2.398   3.670
 9896WAT     H129930   3.119   2.411   3.617
 9896WAT     H229931   3.205   2.305   3.707
 9897WAT      O29932   8.745   7.146   2.480
 9897WAT     H129933   8.749   7.051   2.511
 9897WAT     H229934   8.782   7.152   2.387
 9898WAT      O29935   5.844   9.783   4.788
 9898WAT     H129936   5.850   9.809   4.885
 9898WAT     H229937   5.806   9.691   4.780
 9899WAT      O29938   2.138   0.414   9.133
 9899WAT     H129939   2.058   0.474   9.145
 9899WAT     H229940   2.125   0.356   9.053
 9900WAT      O29941   5.506   1.601   6.103
 9900WAT     H129942   5.538   1.587   6.197
 9900WAT     H229943   5.452   1.521   6.074
 9901WAT      O29944   2.535   0.109   4.154
 9901WAT     H129945   2.474   0.109   4.074
 9901WAT     H229946   2.518   0.191   4.208
 9902WAT      O29947   4.877   6.787   5.218
 9902WAT     H129948   4.926   6.869   5.189
 9902WAT     H229949   4.942   6.713   5.234
 9903WAT      O29950   8.144   6.227   9.467
 9903WAT     H129951   8.175   6.255   9.557
 9903WAT     H229952   8.049   6.197   9.472
 9904WAT      O29953   7.618   1.070   3.300
 9904WAT     H129954   7.676   1.151   3.291
 9904WAT     H229955   7.537   1.092   3.355
 9905WAT      O29956   6.749   8.075   6.032
 9905WAT     H129957   6.802   8.067   6.116
 9905WAT     H229958   6.695   7.992   6.018
 9906WAT      O29959   3.625   3.745   4.674
 9906WAT     H129960   3.683   3.731   4.594
 9906WAT     H229961   3.682   3.752   4.756
 9907WAT      O29962   8.702   6.653   6.569
 9907WAT     H129963   8.686   6.555   6.556
 9907WAT     H229964   8.769   6.685   6.502
 9908WAT      O29965   1.384   5.097   0.160
 9908WAT     H129966   1.407   5.152   0.079
 9908WAT     H229967   1.301   5.135   0.202
 9909WAT      O29968   4.580   6.370   5.652
 9909WAT     H129969   4.650   6.302   5.629
 9909WAT     H229970   4.556   6.361   5.749
 9910WAT      O29971   1.211   7.676   7.539
 9910WAT     H129972   1.307   7.681   7.511
 9910WAT     H229973   1.154   7.666   7.457
 9911WAT      O29974   7.156   6.621   0.851
 9911WAT     H129975   7.100   6.587   0.926
 9911WAT     H229976   7.108   6.694   0.803
 9912WAT      O29977   2.619   6.110   2.193
 9912WAT     H129978   2.623   6.069   2.284
 9912WAT     H229979   2.643   6.041   2.125
 9913WAT      O29980   6.045   9.315   2.525
 9913WAT     H129981   5.951   9.309   2.490
 9913WAT     H229982   6.090   9.227   2.512
 9914WAT      O29983   4.911   0.262   5.824
 9914WAT     H129984   4.925   0.183   5.884
 9914WAT     H229985   4.926   0.346   5.875
 9915WAT      O29986   5.286   4.734   1.121
 9915WAT     H129987   5.317   4.788   1.199
 9915WAT     H229988   5.322   4.641   1.127
 9916WAT      O29989   3.317   7.507   6.780
 9916WAT     H129990   3.296   7.508   6.878
 9916WAT     H229991   3.316   7.412   6.747
 9917WAT      O29992   1.866   6.304   9.095
 9917WAT     H129993   1.802   6.367   9.138
 9917WAT     H229994   1.833   6.280   9.004
 9918WAT      O29995   5.725   4.152   3.249
 9918WAT     H129996   5.676   4.211   3.314
 9918WAT     H229997   5.821   4.145   3.276
 9919WAT      O29998   9.238   5.718   3.535
 9919WAT     H129999   9.283   5.796   3.491
 9919WAT     H230000   9.307   5.653   3.567
 9920WAT      O30001   1.054   2.306   8.454
 9920WAT     H130002   0.956   2.322   8.451
 9920WAT     H230003   1.090   2.331   8.544
 9921WAT      O30004   9.531   4.442   7.125
 9921WAT     H130005   9.538   4.403   7.216
 9921WAT     H230006   9.518   4.541   7.132
 9922WAT      O30007   9.016   0.304   1.149
 9922WAT     H130008   9.076   0.341   1.078
 9922WAT     H230009   9.049   0.213   1.177
 9923WAT      O30010   6.389   8.784   8.376
 9923WAT     H130011   6.422   8.822   8.289
 9923WAT     H230012   6.384   8.684   8.368
 9924WAT      O30013   5.077   1.562   6.781
 9924WAT     H130014   5.012   1.604   6.718
 9924WAT     H230015   5.133   1.633   6.824
 9925WAT      O30016   9.254   7.058   1.439
 9925WAT     H130017   9.195   7.137   1.421
 9925WAT     H230018   9.330   7.058   1.375
 9926WAT      O30019   6.188   3.598   6.241
 9926WAT     H130020   6.242   3.603   6.157
 9926WAT     H230021   6.186   3.504   6.274
 9927WAT      O30022   8.013   9.003   1.307
 9927WAT     H130023   7.932   9.014   1.250
 9927WAT     H230024   8.017   9.078   1.374
 9928WAT      O30025   2.763   8.433   5.989
 9928WAT     H130026   2.716   8.469   6.070
 9928WAT     H230027   2.712   8.354   5.954
 9929WAT      O30028   0.407   7.230   8.682
 9929WAT     H130029   0.393   7.329   8.689
 9929WAT     H230030   0.504   7.209   8.693
 9930WAT      O30031   7.723   4.425   5.556
 9930WAT     H130032   7.687   4.336   5.527
 9930WAT     H230033   7.661   4.465   5.623
 9931WAT      O30034   7.952   8.106   1.544
 9931WAT     H130035   7.935   8.178   1.611
 9931WAT     H230036   7.964   8.147   1.453
 9932WAT      O30037   3.858   7.186   0.190
 9932WAT     H130038   3.881   7.167   0.094
 9932WAT     H230039   3.802   7.112   0.226
 9933WAT      O30040   4.674   2.294   6.113
 9933WAT     H130041   4.724   2.373   6.078
 9933WAT     H230042   4.582   2.293   6.074
 9934WAT      O30043   6.827   7.027   8.314
 9934WAT     H130044   6.916   7.064   8.343
 9934WAT     H230045   6.820   6.932   8.342
 9935WAT      O30046   9.191   2.730   2.898
 9935WAT     H130047   9.105   2.735   2.949
 9935WAT     H230048   9.171   2.722   2.800
 9936WAT      O30049   0.710   1.231   6.418
 9936WAT     H130050   0.708   1.290   6.337
 9936WAT     H230051   0.718   1.287   6.500
 9937WAT      O30052   3.891   4.401   6.214
 9937WAT     H130053   3.827   4.477   6.226
 9937WAT     H230054   3.923   4.399   6.119
 9938WAT      O30055   0.733   0.034   3.609
 9938WAT     H130056   0.690   0.085   3.534
 9938WAT     H230057   0.819  -0.006   3.577
 9939WAT      O30058   6.548   0.282   8.103
 9939WAT     H130059   6.562   0.325   8.193
 9939WAT     H230060   6.535   0.352   8.034
 9940WAT      O30061   4.638   6.285   9.303
 9940WAT     H130062   4.612   6.380   9.319
 9940WAT     H230063   4.665   6.243   9.389
 9941WAT      O30064   0.294   2.431   4.117
 9941WAT     H130065   0.261   2.461   4.207
 9941WAT     H230066   0.390   2.455   4.108
 9942WAT      O30067   3.657   5.987   2.465
 9942WAT     H130068   3.675   5.913   2.529
 9942WAT     H230069   3.563   6.021   2.478
 9943WAT      O30070   0.376   1.769   3.833
 9943WAT     H130071   0.335   1.700   3.774
 9943WAT     H230072   0.450   1.815   3.784
 9944WAT      O30073   0.219   2.534   8.747
 9944WAT     H130074   0.137   2.590   8.758
 9944WAT     H230075   0.292   2.589   8.707
 9945WAT      O30076   6.344   5.576   7.656
 9945WAT     H130077   6.426   5.570   7.713
 9945WAT     H230078   6.350   5.510   7.581
 9946WAT      O30079   1.441   8.729   0.276
 9946WAT     H130080   1.380   8.732   0.196
 9946WAT     H230081   1.434   8.639   0.319
 9947WAT      O30082   4.759   1.018   3.650
 9947WAT     H130083   4.679   0.981   3.602
 9947WAT     H230084   4.732   1.044   3.743
 9948WAT      O30085   6.842   9.260   9.588
 9948WAT     H130086   6.894   9.261   9.502
 9948WAT     H230087   6.836   9.353   9.624
 9949WAT      O30088   1.983   4.768   8.668
 9949WAT     H130089   1.891   4.752   8.633
 9949WAT     H230090   2.003   4.700   8.739
 9950WAT      O30091   8.462   3.462   8.638
 9950WAT     H130092   8.500   3.516   8.713
 9950WAT     H230093   8.521   3.473   8.557
 9951WAT      O30094   4.029   3.355   8.289
 9951WAT     H130095   3.980   3.425   8.340
 9951WAT     H230096   3.976   3.270   8.290
 9952WAT      O30097   6.609   2.922   3.405
 9952WAT     H130098   6.575   2.999   3.459
 9952WAT     H230099   6.654   2.856   3.466
 9953WAT      O30100   6.528   3.695   0.744
 9953WAT     H130101   6.504   3.733   0.655
 9953WAT     H230102   6.444   3.671   0.793
 9954WAT      O30103   6.137   9.125   4.770
 9954WAT     H130104   6.116   9.220   4.748
 9954WAT     H230105   6.097   9.065   4.701
 9955WAT      O30106   7.093   5.783   4.999
 9955WAT     H130107   7.085   5.877   5.031
 9955WAT     H230108   7.189   5.755   5.002
 9956WAT      O30109   3.709   8.267   3.303
 9956WAT     H130110   3.769   8.333   3.348
 9956WAT     H230111   3.757   8.180   3.294
 9957WAT      O30112   3.860   6.840   9.468
 9957WAT     H130113   3.903   6.751   9.455
 9957WAT     H230114   3.776   6.845   9.414
 9958WAT      O30115   5.376   6.903   9.081
 9958WAT     H130116   5.337   6.824   9.034
 9958WAT     H230117   5.433   6.955   9.018
 9959WAT      O30118   3.475   7.559   4.060
 9959WAT     H130119   3.510   7.597   4.146
 9959WAT     H230120   3.391   7.509   4.078
 9960WAT      O30121   1.916   5.168   5.123
 9960WAT     H130122   1.829   5.139   5.163
 9960WAT     H230123   1.985   5.173   5.195
 9961WAT      O30124   7.568   0.672   7.102
 9961WAT     H130125   7.487   0.618   7.125
 9961WAT     H230126   7.550   0.724   7.018
 9962WAT      O30127   3.097   8.494   9.690
 9962WAT     H130128   3.193   8.516   9.679
 9962WAT     H230129   3.067   8.520   9.782
 9963WAT      O30130   8.177   1.945   8.256
 9963WAT     H130131   8.252   1.982   8.201
 9963WAT     H230132   8.091   1.959   8.208
 9964WAT      O30133   0.633   4.669   5.745
 9964WAT     H130134   0.658   4.721   5.826
 9964WAT     H230135   0.635   4.729   5.665
 9965WAT      O30136   0.829   9.150   1.210
 9965WAT     H130137   0.820   9.123   1.115
 9965WAT     H230138   0.926   9.162   1.233
 9966WAT      O30139   7.801   7.820   4.486
 9966WAT     H130140   7.856   7.777   4.414
 9966WAT     H230141   7.719   7.860   4.445
 9967WAT      O30142   7.932   7.487   7.240
 9967WAT     H130143   7.857   7.421   7.247
 9967WAT     H230144   7.912   7.553   7.168
 9968WAT      O30145   4.021   3.514   7.914
 9968WAT     H130146   4.071   3.442   7.963
 9968WAT     H230147   3.931   3.525   7.956
 9969WAT      O30148   1.263   2.522   2.907
 9969WAT     H130149   1.359   2.548   2.892
 9969WAT     H230150   1.246   2.433   2.864
 9970WAT      O30151   2.517   9.215   3.433
 9970WAT     H130152   2.505   9.145   3.503
 9970WAT     H230153   2.436   9.217   3.374
 9971WAT      O30154   2.960   5.666   9.085
 9971WAT     H130155   2.864   5.675   9.060
 9971WAT     H230156   2.989   5.746   9.136
 9972WAT      O30157   6.841   8.632   1.684
 9972WAT     H130158   6.804   8.545   1.718
 9972WAT     H230159   6.766   8.694   1.664
 9973WAT      O30160   5.651   5.978   3.948
 9973WAT     H130161   5.626   6.023   3.862
 9973WAT     H230162   5.737   6.016   3.981
 9974WAT      O30163   1.530   6.350   5.044
 9974WAT     H130164   1.601   6.288   5.012
 9974WAT     H230165   1.445   6.298   5.059
 9975WAT      O30166   3.070   9.618   7.433
 9975WAT     H130167   3.152   9.628   7.376
 9975WAT     H230168   3.072   9.684   7.507
 9976WAT      O30169   8.318   1.481   8.082
 9976WAT     H130170   8.336   1.470   8.180
 9976WAT     H230171   8.232   1.530   8.069
 9977WAT      O30172   7.682   9.039   7.259
 9977WAT     H130173   7.669   9.134   7.229
 9977WAT     H230174   7.689   9.036   7.358
 9978WAT      O30175   0.297   9.588   8.135
 9978WAT     H130176   0.355   9.668   8.118
 9978WAT     H230177   0.309   9.522   8.061
 9979WAT      O30178   2.849   1.072   3.642
 9979WAT     H130179   2.919   1.001   3.638
 9979WAT     H230180   2.883   1.149   3.696
 9980WAT      O30181   5.296   5.394   6.359
 9980WAT     H130182   5.250   5.313   6.322
 9980WAT     H230183   5.392   5.372   6.376
 9981WAT      O30184   1.712   4.194   2.424
 9981WAT     H130185   1.704   4.111   2.480
 9981WAT     H230186   1.791   4.186   2.364
 9982WAT      O30187   8.546   6.153   6.189
 9982WAT     H130188   8.625   6.198   6.230
 9982WAT     H230189   8.529   6.190   6.098
 9983WAT      O30190   8.798   3.167   6.178
 9983WAT     H130191   8.783   3.205   6.086
 9983WAT     H230192   8.718   3.113   6.204
 9984WAT      O30193   8.653   7.206   1.038
 9984WAT     H130194   8.639   7.194   0.939
 9984WAT     H230195   8.666   7.117   1.081
 9985WAT      O30196   0.635   6.888   4.290
 9985WAT     H130197   0.672   6.969   4.244
 9985WAT     H230198   0.542   6.908   4.322
 9986WAT      O30199   0.347   9.245   8.493
 9986WAT     H130200   0.425   9.225   8.552
 9986WAT     H230201   0.309   9.334   8.517
 9987WAT      O30202   5.925   8.409   9.412
 9987WAT     H130203   5.896   8.466   9.489
 9987WAT     H230204   5.882   8.319   9.419
 9988WAT      O30205   2.283   6.361   9.856
 9988WAT     H130206   2.371   6.354   9.903
 9988WAT     H230207   2.209   6.353   9.923
 9989WAT      O30208   2.003   6.886   3.701
 9989WAT     H130209   1.928   6.923   3.646
 9989WAT     H230210   2.016   6.789   3.678
 9990WAT      O30211   9.167   2.439   1.405
 9990WAT     H130212   9.164   2.485   1.316
 9990WAT     H230213   9.089   2.470   1.460
 9991WAT      O30214   9.119   3.541   6.714
 9991WAT     H130215   9.047   3.596   6.757
 9991WAT     H230216   9.162   3.483   6.783
 9992WAT      O30217   0.704   9.664   8.681
 9992WAT     H130218   0.674   9.745   8.732
 9992WAT     H230219   0.797   9.639   8.710
 9993WAT      O30220   3.106   9.109   7.832
 9993WAT     H130221   3.181   9.044   7.819
 9993WAT     H230222   3.032   9.064   7.883
 9994WAT      O30223   9.840   2.172   6.360
 9994WAT     H130224   9.832   2.267   6.330
 9994WAT     H230225   9.899   2.168   6.441
 9995WAT      O30226   4.035   1.298   9.693
 9995WAT     H130227   3.962   1.313   9.760
 9995WAT     H230228   4.007   1.333   9.604
 9996WAT      O30229   4.336   0.373   1.208
 9996WAT     H130230   4.422   0.322   1.210
 9996WAT     H230231   4.311   0.400   1.301
 9997WAT      O30232   1.882   0.846   0.117
 9997WAT     H130233   1.792   0.848   0.074
 9997WAT     H230234   1.894   0.929   0.172
 9998WAT      O30235   6.634   7.379   0.923
 9998WAT     H130236   6.566   7.415   0.859
 9998WAT     H230237   6.656   7.448   0.991
 9999WAT      O30238   5.569   7.401   4.602
 9999WAT     H130239   5.634   7.436   4.534
 9999WAT     H230240   5.599   7.428   4.694
10000WAT      O30241   7.876   3.471   0.972
10000WAT     H130242   7.940   3.437   0.903
10000WAT     H230243   7.837   3.393   1.022
10001WAT      O30244   9.837   6.368   5.146
10001WAT     H130245   9.834   6.394   5.242
10001WAT     H230246   9.931   6.352   5.118
10002WAT      O30247   8.878   4.776   8.776
10002WAT     H130248   8.883   4.677   8.791
10002WAT     H230249   8.801   4.796   8.714
10003WAT      O30250   1.265   2.991   6.977
10003WAT     H130251   1.333   2.919   6.987
10003WAT     H230252   1.221   2.983   6.888
10004WAT      O30253   6.943   7.579   3.683
10004WAT     H130254   6.878   7.512   3.718
10004WAT     H230255   6.974   7.552   3.592
10005WAT      O30256   3.332   2.263   1.794
10005WAT     H130257   3.370   2.179   1.833
10005WAT     H230258   3.376   2.283   1.707
10006WAT      O30259   1.685   4.941   2.023
10006WAT     H130260   1.719   4.999   1.950
10006WAT     H230261   1.712   4.846   2.006
10007WAT      O30262   0.765   6.310   9.166
10007WAT     H130263   0.800   6.231   9.116
10007WAT     H230264   0.739   6.381   9.100
10008WAT      O30265   1.627   0.344   1.767
10008WAT     H130266   1.701   0.407   1.746
10008WAT     H230267   1.649   0.293   1.849
10009WAT      O30268   7.630   1.182   9.500
10009WAT     H130269   7.636   1.174   9.599
10009WAT     H230270   7.637   1.278   9.474
10010WAT      O30271   1.379   0.854   3.652
10010WAT     H130272   1.345   0.936   3.698
10010WAT     H230273   1.388   0.871   3.554
10011WAT      O30274   8.881   6.432   8.374
10011WAT     H130275   8.864   6.466   8.281
10011WAT     H230276   8.936   6.497   8.425
10012WAT      O30277   0.217   0.035   8.409
10012WAT     H130278   0.281   0.070   8.340
10012WAT     H230279   0.150  -0.025   8.366
10013WAT      O30280   3.454   4.980   8.438
10013WAT     H130281   3.512   5.052   8.476
10013WAT     H230282   3.431   4.914   8.509
10014WAT      O30283   6.774   7.514   5.289
10014WAT     H130284   6.853   7.572   5.308
10014WAT     H230285   6.747   7.466   5.372
10015WAT      O30286   5.484   3.005   3.431
10015WAT     H130287   5.405   3.028   3.487
10015WAT     H230288   5.509   3.083   3.374
10016WAT      O30289   7.484   1.378   9.294
10016WAT     H130290   7.528   1.417   9.375
10016WAT     H230291   7.386   1.397   9.296
10017WAT      O30292   6.503   4.175   8.498
10017WAT     H130293   6.480   4.260   8.451
10017WAT     H230294   6.516   4.193   8.596
10018WAT      O30295   4.204   0.797   7.291
10018WAT     H130296   4.113   0.760   7.305
10018WAT     H230297   4.269   0.750   7.350
10019WAT      O30298   3.762   1.921   2.936
10019WAT     H130299   3.679   1.922   2.992
10019WAT     H230300   3.746   1.975   2.853
10020WAT      O30301   1.779   9.161   6.680
10020WAT     H130302   1.799   9.258   6.672
10020WAT     H230303   1.858   9.113   6.718
10021WAT      O30304   4.235   5.038   8.749
10021WAT     H130305   4.210   5.092   8.829
10021WAT     H230306   4.276   5.097   8.680
10022WAT      O30307   9.303   0.366   2.326
10022WAT     H130308   9.209   0.377   2.293
10022WAT     H230309   9.347   0.291   2.276
10023WAT      O30310   4.757   4.604   0.607
10023WAT     H130311   4.835   4.641   0.558
10023WAT     H230312   4.784   4.521   0.656
10024WAT      O30313   9.423   0.400   1.722
10024WAT     H130314   9.500   0.354   1.678
10024WAT     H230315   9.339   0.349   1.703
10025WAT      O30316   8.378   3.740   1.140
10025WAT     H130317   8.351   3.668   1.076
10025WAT     H230318   8.296   3.783   1.178
10026WAT      O30319   9.785   2.916   2.371
10026WAT     H130320   9.855   2.972   2.327
10026WAT     H230321   9.829   2.843   2.423
10027WAT      O30322   0.786   4.915   7.036
10027WAT     H130323   0.696   4.885   7.003
10027WAT     H230324   0.787   5.015   7.041
10028WAT      O30325   9.174   5.982   4.105
10028WAT     H130326   9.242   6.024   4.164
10028WAT     H230327   9.090   6.036   4.107
10029WAT      O30328   8.909   6.396   0.851
10029WAT     H130329   8.988   6.335   0.851
10029WAT     H230330   8.854   6.379   0.769
10030WAT      O30331   9.437   6.628   8.766
10030WAT     H130332   9.531   6.642   8.737
10030WAT     H230333   9.386   6.714   8.758
10031WAT      O30334   4.890   5.265   6.506
10031WAT     H130335   4.956   5.331   6.543
10031WAT     H230336   4.807   5.266   6.561
10032WAT      O30337   9.449   6.181   0.472
10032WAT     H130338   9.482   6.128   0.394
10032WAT     H230339   9.369   6.136   0.512
10033WAT      O30340   0.660   4.123   2.482
10033WAT     H130341   0.616   4.034   2.490
10033WAT     H230342   0.719   4.139   2.562
10034WAT      O30343   9.523   4.690   2.160
10034WAT     H130344   9.619   4.661   2.160
10034WAT     H230345   9.491   4.697   2.065
10035WAT      O30346   1.600   6.524   0.812
10035WAT     H130347   1.591   6.510   0.714
10035WAT     H230348   1.685   6.573   0.832
10036WAT      O30349   6.227   2.344   9.631
10036WAT     H130350   6.301   2.315   9.692
10036WAT     H230351   6.185   2.427   9.668
10037WAT      O30352   3.181   9.698   4.942
10037WAT     H130353   3.266   9.663   4.902
10037WAT     H230354   3.189   9.796   4.958
10038WAT      O30355   7.830   9.822   4.912
10038WAT     H130356   7.873   9.767   4.984
10038WAT     H230357   7.881   9.906   4.899
10039WAT      O30358   9.593   7.705   0.215
10039WAT     H130359   9.658   7.678   0.286
10039WAT     H230360   9.559   7.797   0.233
10040WAT      O30361   4.517   7.399   6.517
10040WAT     H130362   4.456   7.435   6.587
10040WAT     H230363   4.578   7.471   6.485
10041WAT      O30364   4.189   1.171   5.323
10041WAT     H130365   4.199   1.253   5.380
10041WAT     H230366   4.131   1.105   5.370
10042WAT      O30367   4.482   7.671   3.721
10042WAT     H130368   4.414   7.665   3.648
10042WAT     H230369   4.513   7.766   3.730
10043WAT      O30370   7.733   1.802   6.728
10043WAT     H130371   7.830   1.798   6.704
10043WAT     H230372   7.712   1.730   6.794
10044WAT      O30373   6.464   2.481   2.387
10044WAT     H130374   6.557   2.514   2.402
10044WAT     H230375   6.399   2.544   2.431
10045WAT      O30376   1.999   3.080   9.854
10045WAT     H130377   2.067   3.106   9.784
10045WAT     H230378   2.046   3.058   9.939
10046WAT      O30379   4.657   8.818   5.505
10046WAT     H130380   4.647   8.721   5.484
10046WAT     H230381   4.581   8.869   5.465
10047WAT      O30382   0.316   0.476   0.644
10047WAT     H130383   0.387   0.414   0.676
10047WAT     H230384   0.242   0.481   0.711
10048WAT      O30385   3.535   9.764   3.281
10048WAT     H130386   3.578   9.818   3.353
10048WAT     H230387   3.486   9.825   3.218
10049WAT      O30388   2.415   0.189   2.504
10049WAT     H130389   2.470   0.192   2.587
10049WAT     H230390   2.384   0.096   2.487
10050WAT      O30391   5.683   2.361   9.350
10050WAT     H130392   5.754   2.316   9.295
10050WAT     H230393   5.725   2.432   9.406
10051WAT      O30394   1.220   6.346   3.864
10051WAT     H130395   1.286   6.298   3.805
10051WAT     H230396   1.135   6.360   3.813
10052WAT      O30397   5.989   7.712   4.810
10052WAT     H130398   5.960   7.617   4.806
10052WAT     H230399   6.045   7.734   4.730
10053WAT      O30400   2.271   0.722   9.362
10053WAT     H130401   2.321   0.648   9.318
10053WAT     H230402   2.177   0.724   9.327
10054WAT      O30403   9.194   9.173   9.348
10054WAT     H130404   9.281   9.137   9.314
10054WAT     H230405   9.131   9.097   9.365
10055WAT      O30406   1.525   4.398   6.700
10055WAT     H130407   1.580   4.463   6.647
10055WAT     H230408   1.503   4.438   6.789
10056WAT      O30409   3.338   8.475   7.418
10056WAT     H130410   3.419   8.432   7.378
10056WAT     H230411   3.354   8.573   7.429
10057WAT      O30412   7.590   2.841   4.680
10057WAT     H130413   7.533   2.919   4.706
10057WAT     H230414   7.547   2.757   4.713
10058WAT      O30415   5.063   9.699   0.647
10058WAT     H130416   5.143   9.668   0.699
10058WAT     H230417   5.040   9.792   0.674
10059WAT      O30418   7.770   5.244   0.362
10059WAT     H130419   7.808   5.152   0.362
10059WAT     H230420   7.808   5.295   0.284
10060WAT      O30421   7.718   3.672   3.308
10060WAT     H130422   7.655   3.594   3.301
10060WAT     H230423   7.762   3.670   3.398
10061WAT      O30424   0.930   1.080   2.601
10061WAT     H130425   0.926   0.991   2.555
10061WAT     H230426   0.887   1.149   2.543
10062WAT      O30427   3.025   0.137   5.114
10062WAT     H130428   3.043   0.230   5.081
10062WAT     H230429   3.105   0.103   5.164
10063WAT      O30430   0.715   5.259   3.537
10063WAT     H130431   0.722   5.241   3.635
10063WAT     H230432   0.744   5.353   3.518
10064WAT      O30433   3.750   4.185   5.790
10064WAT     H130434   3.782   4.271   5.830
10064WAT     H230435   3.679   4.204   5.723
10065WAT      O30436   7.280   8.152   0.730
10065WAT     H130437   7.236   8.137   0.641
10065WAT     H230438   7.354   8.218   0.721
10066WAT      O30439   6.346   3.994   2.108
10066WAT     H130440   6.345   3.962   2.014
10066WAT     H230441   6.410   4.070   2.117
10067WAT      O30442   4.884   8.466   0.909
10067WAT     H130443   4.937   8.393   0.866
10067WAT     H230444   4.871   8.444   1.006
10068WAT      O30445   1.991   3.620   8.752
10068WAT     H130446   1.960   3.710   8.722
10068WAT     H230447   1.983   3.555   8.677
10069WAT      O30448   7.039   5.831   1.243
10069WAT     H130449   7.113   5.828   1.175
10069WAT     H230450   6.963   5.774   1.213
10070WAT      O30451   9.407   6.725   4.585
10070WAT     H130452   9.485   6.665   4.569
10070WAT     H230453   9.365   6.703   4.674
10071WAT      O30454   1.143   0.364   2.009
10071WAT     H130455   1.140   0.313   2.095
10071WAT     H230456   1.082   0.442   2.015
10072WAT      O30457   7.769   3.821   3.898
10072WAT     H130458   7.804   3.737   3.859
10072WAT     H230459   7.684   3.802   3.948
10073WAT      O30460   5.936   4.133   5.149
10073WAT     H130461   5.871   4.066   5.183
10073WAT     H230462   5.903   4.170   5.062
10074WAT      O30463   7.986   1.353   4.216
10074WAT     H130464   8.086   1.354   4.214
10074WAT     H230465   7.953   1.263   4.188
10075WAT      O30466   4.340   2.484   8.747
10075WAT     H130467   4.399   2.527   8.679
10075WAT     H230468   4.282   2.553   8.791
10076WAT      O30469   1.721   3.043   4.934
10076WAT     H130470   1.639   3.066   4.882
10076WAT     H230471   1.765   3.126   4.967
10077WAT      O30472   5.357   8.389   6.960
10077WAT     H130473   5.294   8.458   6.925
10077WAT     H230474   5.365   8.315   6.893
10078WAT      O30475   0.554   3.885   5.753
10078WAT     H130476   0.498   3.964   5.731
10078WAT     H230477   0.532   3.809   5.692
10079WAT      O30478   8.106   3.499   0.188
10079WAT     H130479   8.026   3.536   0.234
10079WAT     H230480   8.148   3.569   0.130
10080WAT      O30481   2.792   6.729   4.052
10080WAT     H130482   2.837   6.762   3.969
10080WAT     H230483   2.797   6.799   4.123
10081WAT      O30484   3.441   4.934   1.369
10081WAT     H130485   3.498   5.006   1.329
10081WAT     H230486   3.361   4.919   1.311
10082WAT      O30487   1.369   5.347   3.399
10082WAT     H130488   1.336   5.266   3.351
10082WAT     H230489   1.358   5.428   3.340
10083WAT      O30490   5.330   6.084   0.561
10083WAT     H130491   5.356   6.038   0.476
10083WAT     H230492   5.348   6.023   0.638
10084WAT      O30493   5.404   3.121   2.209
10084WAT     H130494   5.331   3.053   2.210
10084WAT     H230495   5.492   3.075   2.201
10085WAT      O30496   0.964   4.840   9.875
10085WAT     H130497   1.039   4.774   9.880
10085WAT     H230498   0.927   4.842   9.782
10086WAT      O30499   0.676   3.028   2.470
10086WAT     H130500   0.772   3.058   2.469
10086WAT     H230501   0.649   2.998   2.379
10087WAT      O30502   0.254   8.666   5.302
10087WAT     H130503   0.215   8.658   5.210
10087WAT     H230504   0.232   8.755   5.341
10088WAT      O30505   7.743   0.638   2.129
10088WAT     H130506   7.836   0.646   2.166
10088WAT     H230507   7.736   0.689   2.044
10089WAT      O30508   8.499   7.829   5.007
10089WAT     H130509   8.434   7.874   4.947
10089WAT     H230510   8.592   7.845   4.974
10090WAT      O30511   1.537   7.149   8.612
10090WAT     H130512   1.571   7.166   8.520
10090WAT     H230513   1.449   7.196   8.625
10091WAT      O30514   4.895   7.191   5.576
10091WAT     H130515   4.802   7.168   5.607
10091WAT     H230516   4.942   7.242   5.648
10092WAT      O30517   4.242   5.710   2.328
10092WAT     H130518   4.265   5.618   2.361
10092WAT     H230519   4.242   5.709   2.228
10093WAT      O30520   5.272   3.473   6.616
10093WAT     H130521   5.229   3.423   6.692
10093WAT     H230522   5.309   3.559   6.651
10094WAT      O30523   8.284   8.856   1.522
10094WAT     H130524   8.335   8.927   1.474
10094WAT     H230525   8.239   8.896   1.602
10095WAT      O30526   4.781   9.848   0.309
10095WAT     H130527   4.687   9.843   0.341
10095WAT     H230528   4.801   9.769   0.251
10096WAT      O30529   9.249   4.393   5.324
10096WAT     H130530   9.250   4.491   5.343
10096WAT     H230531   9.234   4.378   5.226
10097WAT      O30532   0.640   0.409   7.453
10097WAT     H130533   0.693   0.459   7.521
10097WAT     H230534   0.702   0.361   7.391
10098WAT      O30535   3.421   2.558   6.869
10098WAT     H130536   3.371   2.565   6.782
10098WAT     H230537   3.491   2.629   6.873
10099WAT      O30538   1.039   9.519   5.297
10099WAT     H130539   0.987   9.441   5.262
10099WAT     H230540   1.115   9.539   5.235
10100WAT      O30541   2.194   2.366   0.242
10100WAT     H130542   2.253   2.445   0.232
10100WAT     H230543   2.137   2.376   0.323
10101WAT      O30544   3.709   7.279   5.987
10101WAT     H130545   3.693   7.372   5.956
10101WAT     H230546   3.761   7.229   5.918
10102WAT      O30547   8.707   0.194   2.180
10102WAT     H130548   8.781   0.196   2.113
10102WAT     H230549   8.669   0.285   2.192
10103WAT      O30550   6.162   3.807   4.179
10103WAT     H130551   6.244   3.752   4.197
10103WAT     H230552   6.148   3.871   4.254
10104WAT      O30553   2.773   7.114   9.185
10104WAT     H130554   2.709   7.040   9.206
10104WAT     H230555   2.799   7.159   9.270
10105WAT      O30556   6.979   0.800   0.655
10105WAT     H130557   6.882   0.793   0.676
10105WAT     H230558   7.005   0.897   0.648
10106WAT      O30559   9.568   2.359   4.548
10106WAT     H130560   9.536   2.448   4.582
10106WAT     H230561   9.597   2.369   4.453
10107WAT      O30562   5.231   3.362   4.676
10107WAT     H130563   5.222   3.327   4.769
10107WAT     H230564   5.191   3.297   4.612
10108WAT      O30565   5.347   1.070   5.212
10108WAT     H130566   5.405   1.142   5.251
10108WAT     H230567   5.341   1.082   5.113
10109WAT      O30568   9.573   3.505   9.235
10109WAT     H130569   9.582   3.470   9.328
10109WAT     H230570   9.624   3.445   9.172
10110WAT      O30571   4.306   1.342   3.513
10110WAT     H130572   4.314   1.423   3.572
10110WAT     H230573   4.247   1.275   3.558
10111WAT      O30574   5.925   5.552   1.289
10111WAT     H130575   5.882   5.536   1.378
10111WAT     H230576   5.988   5.477   1.269
10112WAT      O30577   1.932   4.238   2.955
10112WAT     H130578   1.974   4.168   2.896
10112WAT     H230579   1.859   4.285   2.904
10113WAT      O30580   1.335   7.082   4.133
10113WAT     H130581   1.265   7.011   4.125
10113WAT     H230582   1.413   7.058   4.076
10114WAT      O30583   0.744   4.448   3.123
10114WAT     H130584   0.646   4.444   3.142
10114WAT     H230585   0.769   4.541   3.094
10115WAT      O30586   8.217   3.127   2.871
10115WAT     H130587   8.137   3.068   2.860
10115WAT     H230588   8.198   3.217   2.832
10116WAT      O30589   1.983   3.470   7.246
10116WAT     H130590   1.936   3.492   7.332
10116WAT     H230591   2.062   3.412   7.265
10117WAT      O30592   3.794   5.892   4.472
10117WAT     H130593   3.759   5.866   4.562
10117WAT     H230594   3.829   5.986   4.476
10118WAT      O30595   9.276   7.860   7.190
10118WAT     H130596   9.365   7.904   7.205
10118WAT     H230597   9.287   7.784   7.125
10119WAT      O30598   7.074   3.641   6.542
10119WAT     H130599   7.035   3.720   6.495
10119WAT     H230600   7.008   3.606   6.609
10120WAT      O30601   3.916   3.420   1.680
10120WAT     H130602   3.937   3.484   1.754
10120WAT     H230603   3.999   3.371   1.653
10121WAT      O30604   0.372   8.514   9.615
10121WAT     H130605   0.390   8.526   9.712
10121WAT     H230606   0.299   8.576   9.586
10122WAT      O30607   4.815   6.131   3.468
10122WAT     H130608   4.754   6.180   3.531
10122WAT     H230609   4.841   6.192   3.394
10123WAT      O30610   1.223   6.560   1.441
10123WAT     H130611   1.149   6.594   1.384
10123WAT     H230612   1.291   6.514   1.384
10124WAT      O30613   2.928   9.774   1.764
10124WAT     H130614   2.891   9.840   1.699
10124WAT     H230615   2.854   9.719   1.803
10125WAT      O30616   6.778   1.844   9.689
10125WAT     H130617   6.684   1.865   9.716
10125WAT     H230618   6.807   1.906   9.616
10126WAT      O30619   7.157   6.169   3.057
10126WAT     H130620   7.182   6.264   3.074
10126WAT     H230621   7.179   6.145   2.963
10127WAT      O30622   7.936   7.894   8.360
10127WAT     H130623   7.942   7.801   8.396
10127WAT     H230624   7.935   7.892   8.260
10128WAT      O30625   8.896   9.704   4.009
10128WAT     H130626   8.855   9.678   3.921
10128WAT     H230627   8.964   9.636   4.035
10129WAT      O30628   0.953   7.385   2.667
10129WAT     H130629   1.034   7.432   2.634
10129WAT     H230630   0.944   7.398   2.765
10130WAT      O30631   5.265   0.106   5.783
10130WAT     H130632   5.174   0.095   5.743
10130WAT     H230633   5.260   0.174   5.857
10131WAT      O30634   7.237   7.307   0.899
10131WAT     H130635   7.224   7.257   0.813
10131WAT     H230636   7.147   7.322   0.942
10132WAT      O30637   5.847   8.102   3.651
10132WAT     H130638   5.761   8.053   3.639
10132WAT     H230639   5.835   8.197   3.622
10133WAT      O30640   4.970   8.230   4.061
10133WAT     H130641   4.921   8.145   4.075
10133WAT     H230642   4.981   8.278   4.148
10134WAT      O30643   1.488   4.058   8.871
10134WAT     H130644   1.534   3.977   8.835
10134WAT     H230645   1.556   4.125   8.901
10135WAT      O30646   6.519   2.206   4.819
10135WAT     H130647   6.441   2.203   4.881
10135WAT     H230648   6.575   2.286   4.840
10136WAT      O30649   3.446   5.783   6.402
10136WAT     H130650   3.535   5.781   6.449
10136WAT     H230651   3.453   5.841   6.321
10137WAT      O30652   3.799   9.079   9.726
10137WAT     H130653   3.808   9.040   9.634
10137WAT     H230654   3.705   9.109   9.741
10138WAT      O30655   2.076   8.496   2.763
10138WAT     H130656   2.105   8.425   2.828
10138WAT     H230657   2.084   8.460   2.670
10139WAT      O30658   8.684   3.311   4.648
10139WAT     H130659   8.639   3.341   4.732
10139WAT     H230660   8.746   3.384   4.616
10140WAT      O30661   1.454   9.018   8.040
10140WAT     H130662   1.363   8.980   8.022
10140WAT     H230663   1.472   9.015   8.139
10141WAT      O30664   8.774   8.787   7.843
10141WAT     H130665   8.764   8.861   7.910
10141WAT     H230666   8.839   8.815   7.772
10142WAT      O30667   4.826   7.508   4.899
10142WAT     H130668   4.854   7.413   4.883
10142WAT     H230669   4.791   7.547   4.813
10143WAT      O30670   0.320   1.619   1.796
10143WAT     H130671   0.400   1.653   1.845
10143WAT     H230672   0.246   1.603   1.861
10144WAT      O30673   3.860   5.051   7.657
10144WAT     H130674   3.937   4.987   7.661
10144WAT     H230675   3.895   5.144   7.648
10145WAT      O30676   0.549   6.145   3.746
10145WAT     H130677   0.520   6.206   3.819
10145WAT     H230678   0.492   6.062   3.748
10146WAT      O30679   1.121   9.821   7.012
10146WAT     H130680   1.024   9.808   7.034
10146WAT     H230681   1.129   9.880   6.932
10147WAT      O30682   7.349   2.067   5.140
10147WAT     H130683   7.284   2.074   5.215
10147WAT     H230684   7.409   1.988   5.155
10148WAT      O30685   6.672   4.018   1.482
10148WAT     H130686   6.718   3.979   1.561
10148WAT     H230687   6.585   4.058   1.511
10149WAT      O30688   5.195   9.670   0.423
10149WAT     H130689   5.132   9.661   0.499
10149WAT     H230690   5.282   9.628   0.446
10150WAT      O30691   4.267   0.518   4.612
10150WAT     H130692   4.175   0.551   4.589
10150WAT     H230693   4.261   0.433   4.663
10151WAT      O30694   2.198   0.092   7.757
10151WAT     H130695   2.106   0.103   7.794
10151WAT     H230696   2.247   0.023   7.811
10152WAT      O30697   2.808   5.837   5.382
10152WAT     H130698   2.770   5.761   5.328
10152WAT     H230699   2.904   5.850   5.359
10153WAT      O30700   1.975   6.071   0.207
10153WAT     H130701   2.061   6.028   0.234
10153WAT     H230702   1.921   6.007   0.152
10154WAT      O30703   6.388   3.770   7.311
10154WAT     H130704   6.290   3.791   7.304
10154WAT     H230705   6.402   3.671   7.307
10155WAT      O30706   0.708   8.671   3.383
10155WAT     H130707   0.642   8.741   3.411
10155WAT     H230708   0.799   8.696   3.417
10156WAT      O30709   0.451   8.735   0.083
10156WAT     H130710   0.527   8.765   0.026
10156WAT     H230711   0.399   8.663   0.036
10157WAT      O30712   5.866   0.242   6.915
10157WAT     H130713   5.872   0.266   6.818
10157WAT     H230714   5.778   0.271   6.951
10158WAT      O30715   9.359   4.024   3.576
10158WAT     H130716   9.411   4.074   3.507
10158WAT     H230717   9.268   4.003   3.540
10159WAT      O30718   3.080   4.854   3.375
10159WAT     H130719   3.135   4.800   3.310
10159WAT     H230720   3.005   4.798   3.410
10160WAT      O30721   2.026   1.520   3.434
10160WAT     H130722   1.996   1.557   3.346
10160WAT     H230723   1.955   1.534   3.502
10161WAT      O30724   0.907   0.395   9.181
10161WAT     H130725   0.813   0.371   9.159
10161WAT     H230726   0.958   0.312   9.203
10162WAT      O30727   5.405   4.540   9.535
10162WAT     H130728   5.331   4.497   9.483
10162WAT     H230729   5.374   4.557   9.629
10163WAT      O30730   9.243   2.734   1.737
10163WAT     H130731   9.335   2.759   1.707
10163WAT     H230732   9.181   2.735   1.659
10164WAT      O30733   4.684   8.033   5.932
10164WAT     H130734   4.704   8.056   5.837
10164WAT     H230735   4.613   8.094   5.967
10165WAT      O30736   2.902   0.464   0.922
10165WAT     H130737   2.960   0.393   0.961
10165WAT     H230738   2.911   0.548   0.976
10166WAT      O30739   0.692   5.764   6.419
10166WAT     H130740   0.757   5.732   6.350
10166WAT     H230741   0.668   5.859   6.401
10167WAT      O30742   3.225   3.018   2.835
10167WAT     H130743   3.210   3.115   2.814
10167WAT     H230744   3.177   2.995   2.919
10168WAT      O30745   8.601   0.369   3.187
10168WAT     H130746   8.537   0.316   3.131
10168WAT     H230747   8.553   0.408   3.266
10169WAT      O30748   6.378   8.265   1.709
10169WAT     H130749   6.443   8.260   1.785
10169WAT     H230750   6.364   8.360   1.682
10170WAT      O30751   3.655   0.146   8.843
10170WAT     H130752   3.592   0.223   8.851
10170WAT     H230753   3.689   0.141   8.749
10171WAT      O30754   8.829   0.508   8.809
10171WAT     H130755   8.845   0.605   8.789
10171WAT     H230756   8.738   0.482   8.779
10172WAT      O30757   2.493   8.915   6.275
10172WAT     H130758   2.434   8.958   6.208
10172WAT     H230759   2.568   8.867   6.229
10173WAT      O30760   0.366   7.825   6.695
10173WAT     H130761   0.323   7.900   6.646
10173WAT     H230762   0.463   7.819   6.669
10174WAT      O30763   5.260   1.947   6.111
10174WAT     H130764   5.190   1.877   6.097
10174WAT     H230765   5.350   1.909   6.091
10175WAT      O30766   8.432   8.002   3.288
10175WAT     H130767   8.412   7.982   3.192
10175WAT     H230768   8.347   8.018   3.337
10176WAT      O30769   8.651   7.519   8.262
10176WAT     H130770   8.689   7.606   8.232
10176WAT     H230771   8.725   7.459   8.293
10177WAT      O30772   3.884   4.679   3.946
10177WAT     H130773   3.828   4.596   3.952
10177WAT     H230774   3.915   4.704   4.038
10178WAT      O30775   7.640   3.096   4.919
10178WAT     H130776   7.737   3.119   4.925
10178WAT     H230777   7.614   3.040   4.997
10179WAT      O30778   3.689   6.450   7.067
10179WAT     H130779   3.734   6.437   6.979
10179WAT     H230780   3.670   6.361   7.109
10180WAT      O30781   0.435   3.329   3.281
10180WAT     H130782   0.343   3.357   3.308
10180WAT     H230783   0.502   3.391   3.321
10181WAT      O30784   8.746   4.306   8.748
10181WAT     H130785   8.729   4.242   8.823
10181WAT     H230786   8.666   4.310   8.688
10182WAT      O30787   5.692   9.587   1.804
10182WAT     H130788   5.723   9.681   1.792
10182WAT     H230789   5.684   9.566   1.902
10183WAT      O30790   9.655   8.208   6.988
10183WAT     H130791   9.679   8.193   7.084
10183WAT     H230792   9.557   8.225   6.981
10184WAT      O30793   0.745   9.213   8.466
10184WAT     H130794   0.698   9.132   8.430
10184WAT     H230795   0.699   9.295   8.434
10185WAT      O30796   4.904   0.971   6.255
10185WAT     H130797   4.997   0.983   6.288
10185WAT     H230798   4.839   0.983   6.330
10186WAT      O30799   1.647   1.436   3.140
10186WAT     H130800   1.723   1.383   3.179
10186WAT     H230801   1.663   1.533   3.155
10187WAT      O30802   7.476   5.122   0.280
10187WAT     H130803   7.500   5.103   0.376
10187WAT     H230804   7.535   5.068   0.220
10188WAT      O30805   6.389   7.598   3.923
10188WAT     H130806   6.446   7.568   3.846
10188WAT     H230807   6.363   7.694   3.911
10189WAT      O30808   9.607   8.487   9.384
10189WAT     H130809   9.674   8.551   9.346
10189WAT     H230810   9.527   8.539   9.417
10190WAT      O30811   7.621   2.882   6.975
10190WAT     H130812   7.599   2.973   6.941
10190WAT     H230813   7.679   2.889   7.056
10191WAT      O30814   2.636   6.273   1.876
10191WAT     H130815   2.580   6.272   1.793
10191WAT     H230816   2.581   6.240   1.953
10192WAT      O30817   6.876   7.762   8.238
10192WAT     H130818   6.943   7.829   8.206
10192WAT     H230819   6.866   7.689   8.170
10193WAT      O30820   2.241   7.771   7.049
10193WAT     H130821   2.225   7.814   7.137
10193WAT     H230822   2.155   7.767   6.998
10194WAT      O30823   7.042   5.005   5.242
10194WAT     H130824   7.014   5.095   5.210
10194WAT     H230825   6.962   4.946   5.251
10195WAT      O30826   3.925   8.432   0.418
10195WAT     H130827   3.842   8.393   0.459
10195WAT     H230828   3.904   8.462   0.324
10196WAT      O30829   5.158   5.786   2.438
10196WAT     H130830   5.216   5.861   2.406
10196WAT     H230831   5.173   5.705   2.381
10197WAT      O30832   5.680   6.858   4.506
10197WAT     H130833   5.675   6.779   4.568
10197WAT     H230834   5.747   6.923   4.541
10198WAT      O30835   8.365   0.538   5.578
10198WAT     H130836   8.395   0.584   5.495
10198WAT     H230837   8.321   0.603   5.639
10199WAT      O30838   5.818   3.040   5.085
10199WAT     H130839   5.832   2.942   5.096
10199WAT     H230840   5.848   3.088   5.167
10200WAT      O30841   5.952   7.200   9.761
10200WAT     H130842   5.995   7.244   9.840
10200WAT     H230843   5.865   7.159   9.789
10201WAT      O30844   1.818   9.019   6.448
10201WAT     H130845   1.809   9.072   6.532
10201WAT     H230846   1.914   9.017   6.420
10202WAT      O30847   3.632   3.970   3.132
10202WAT     H130848   3.650   3.881   3.172
10202WAT     H230849   3.708   3.997   3.073
10203WAT      O30850   4.890   4.340   0.101
10203WAT     H130851   4.830   4.263   0.081
10203WAT     H230852   4.985   4.312   0.090
10204WAT      O30853   2.479   1.901   4.657
10204WAT     H130854   2.568   1.924   4.618
10204WAT     H230855   2.428   1.984   4.678
10205WAT      O30856   4.201   1.695   3.027
10205WAT     H130857   4.238   1.767   3.085
10205WAT     H230858   4.250   1.694   2.940
10206WAT      O30859   7.068   4.027   2.002
10206WAT     H130860   7.128   4.089   2.051
10206WAT     H230861   7.052   4.062   1.909
10207WAT      O30862   3.067   0.921   3.661
10207WAT     H130863   3.126   0.981   3.715
10207WAT     H230864   3.065   0.830   3.704
10208WAT      O30865   0.035   1.869   1.680
10208WAT     H130866  -0.007   1.933   1.616
10208WAT     H230867   0.005   1.776   1.659
10209WAT      O30868   3.531   0.995   4.580
10209WAT     H130869   3.498   1.089   4.592
10209WAT     H230870   3.603   0.976   4.647
10210WAT      O30871   9.745   5.481   2.037
10210WAT     H130872   9.786   5.394   2.066
10210WAT     H230873   9.727   5.479   1.939
10211WAT      O30874   9.371   9.096   9.623
10211WAT     H130875   9.365   9.195   9.638
10211WAT     H230876   9.360   9.049   9.710
10212WAT      O30877   3.831   6.311   4.960
10212WAT     H130878   3.809   6.267   5.046
10212WAT     H230879   3.769   6.388   4.944
10213WAT      O30880   0.040   9.152   3.501
10213WAT     H130881  -0.011   9.133   3.417
10213WAT     H230882   0.000   9.101   3.577
10214WAT      O30883   2.468   6.028   5.908
10214WAT     H130884   2.554   6.075   5.889
10214WAT     H230885   2.409   6.034   5.827
10215WAT      O30886   1.839   7.714   8.086
10215WAT     H130887   1.879   7.791   8.035
10215WAT     H230888   1.874   7.628   8.048
10216WAT      O30889   7.107   3.535   2.094
10216WAT     H130890   7.171   3.526   2.017
10216WAT     H230891   7.042   3.459   2.091
10217WAT      O30892   8.301   7.788   3.484
10217WAT     H130893   8.393   7.764   3.452
10217WAT     H230894   8.245   7.816   3.407
10218WAT      O30895   9.454   4.029   1.157
10218WAT     H130896   9.473   4.120   1.121
10218WAT     H230897   9.518   4.008   1.231
10219WAT      O30898   0.742   6.870   8.528
10219WAT     H130899   0.840   6.871   8.549
10219WAT     H230900   0.727   6.821   8.442
10220WAT      O30901   7.359   1.800   4.792
10220WAT     H130902   7.390   1.893   4.776
10220WAT     H230903   7.392   1.740   4.719
10221WAT      O30904   3.797   3.232   0.857
10221WAT     H130905   3.800   3.247   0.758
10221WAT     H230906   3.793   3.134   0.876
10222WAT      O30907   0.225   7.354   2.941
10222WAT     H130908   0.244   7.329   2.846
10222WAT     H230909   0.219   7.271   2.997
10223WAT      O30910   0.752   6.531   6.980
10223WAT     H130911   0.784   6.477   7.057
10223WAT     H230912   0.655   6.511   6.962
10224WAT      O30913   9.417   1.445   2.538
10224WAT     H130914   9.502   1.450   2.486
10224WAT     H230915   9.398   1.534   2.580
10225WAT      O30916   7.820   2.285   3.929
10225WAT     H130917   7.913   2.304   3.962
10225WAT     H230918   7.810   2.187   3.913
10226WAT      O30919   2.995   3.769   5.517
10226WAT     H130920   3.039   3.788   5.429
10226WAT     H230921   3.064   3.743   5.584
10227WAT      O30922   3.219   4.185   2.099
10227WAT     H130923   3.203   4.212   2.004
10227WAT     H230924   3.272   4.100   2.101
10228WAT      O30925   7.104   8.694   1.619
10228WAT     H130926   7.007   8.674   1.621
10228WAT     H230927   7.117   8.793   1.621
10229WAT      O30928   2.303   5.356   3.497
10229WAT     H130929   2.250   5.285   3.542
10229WAT     H230930   2.284   5.445   3.539
10230WAT      O30931   5.586   9.672   2.571
10230WAT     H130932   5.580   9.744   2.503
10230WAT     H230933   5.577   9.583   2.526
10231WAT      O30934   1.491   4.268   4.505
10231WAT     H130935   1.538   4.262   4.593
10231WAT     H230936   1.485   4.364   4.477
10232WAT      O30937   4.919   7.797   2.232
10232WAT     H130938   4.891   7.854   2.309
10232WAT     H230939   4.898   7.701   2.252
10233WAT      O30940   6.990   9.349   5.836
10233WAT     H130941   6.943   9.434   5.859
10233WAT     H230942   7.089   9.362   5.846
10234WAT      O30943   8.390   2.481   2.487
10234WAT     H130944   8.476   2.529   2.508
10234WAT     H230945   8.411   2.386   2.465
10235WAT      O30946   1.725   1.199   8.128
10235WAT     H130947   1.715   1.108   8.088
10235WAT     H230948   1.754   1.190   8.223
10236WAT      O30949   1.589   6.776   1.495
10236WAT     H130950   1.509   6.756   1.552
10236WAT     H230951   1.653   6.834   1.545
10237WAT      O30952   0.831   2.127   9.379
10237WAT     H130953   0.813   2.069   9.458
10237WAT     H230954   0.775   2.210   9.386
10238WAT      O30955   1.492   1.739   3.009
10238WAT     H130956   1.545   1.768   2.930
10238WAT     H230957   1.554   1.713   3.083
10239WAT      O30958   7.328   2.694   2.954
10239WAT     H130959   7.256   2.675   2.888
10239WAT     H230960   7.308   2.648   3.040
10240WAT      O30961   7.820   3.993   2.471
10240WAT     H130962   7.815   4.055   2.550
10240WAT     H230963   7.728   3.977   2.435
10241WAT      O30964   7.153   5.721   0.605
10241WAT     H130965   7.123   5.794   0.667
10241WAT     H230966   7.245   5.741   0.572
10242WAT      O30967   2.655   3.128   7.857
10242WAT     H130968   2.680   3.200   7.922
10242WAT     H230969   2.690   3.151   7.766
10243WAT      O30970   7.091   1.156   1.737
10243WAT     H130971   7.179   1.169   1.691
10243WAT     H230972   7.103   1.170   1.835
10244WAT      O30973   3.171   0.104   1.772
10244WAT     H130974   3.102   0.032   1.772
10244WAT     H230975   3.256   0.068   1.809
10245WAT      O30976   0.085   4.393   9.894
10245WAT     H130977   0.157   4.453   9.856
10245WAT     H230978   0.114   4.298   9.885
10246WAT      O30979   8.708   2.496   4.918
10246WAT     H130980   8.616   2.489   4.880
10246WAT     H230981   8.763   2.418   4.887
10247WAT      O30982   4.038   7.611   5.945
10247WAT     H130983   4.036   7.708   5.968
10247WAT     H230984   3.974   7.593   5.871
10248WAT      O30985   4.143   5.346   2.522
10248WAT     H130986   4.198   5.355   2.439
10248WAT     H230987   4.133   5.435   2.566
10249WAT      O30988   3.277   7.100   7.104
10249WAT     H130989   3.215   7.090   7.026
10249WAT     H230990   3.250   7.035   7.175
10250WAT      O30991   0.442   0.227   5.481
10250WAT     H130992   0.343   0.229   5.489
10250WAT     H230993   0.478   0.148   5.531
10251WAT      O30994   2.967   5.695   7.422
10251WAT     H130995   2.992   5.642   7.503
10251WAT     H230996   2.908   5.771   7.449
10252WAT      O30997   5.529   3.880   9.479
10252WAT     H130998   5.488   3.960   9.437
10252WAT     H230999   5.568   3.821   9.409
10253WAT      O31000   2.271   2.825   6.976
10253WAT     H131001   2.369   2.810   6.990
10253WAT     H231002   2.219   2.756   7.025
10254WAT      O31003   3.771   4.680   2.746
10254WAT     H131004   3.768   4.703   2.843
10254WAT     H231005   3.696   4.727   2.699
10255WAT      O31006   5.831   5.874   8.496
10255WAT     H131007   5.909   5.887   8.435
10255WAT     H231008   5.789   5.785   8.477
10256WAT      O31009   2.578   8.415   4.812
10256WAT     H131010   2.643   8.347   4.843
10256WAT     H231011   2.559   8.480   4.886
10257WAT      O31012   4.660   9.262   7.905
10257WAT     H131013   4.675   9.164   7.919
10257WAT     H231014   4.736   9.300   7.851
10258WAT      O31015   2.291   3.490   8.348
10258WAT     H131016   2.389   3.500   8.364
10258WAT     H231017   2.267   3.393   8.351
10259WAT      O31018   2.821   3.014   6.473
10259WAT     H131019   2.779   2.980   6.557
10259WAT     H231020   2.856   3.106   6.489
10260WAT      O31021   1.178   8.790   6.857
10260WAT     H131022   1.247   8.851   6.817
10260WAT     H231023   1.220   8.737   6.932
10261WAT      O31024   6.618   2.163   5.663
10261WAT     H131025   6.590   2.247   5.617
10261WAT     H231026   6.669   2.185   5.746
10262WAT      O31027   0.442   3.639   8.944
10262WAT     H131028   0.435   3.714   8.878
10262WAT     H231029   0.537   3.629   8.972
10263WAT      O31030   0.823   9.088   7.555
10263WAT     H131031   0.834   9.177   7.510
10263WAT     H231032   0.766   9.029   7.498
10264WAT      O31033   1.497   6.704   7.839
10264WAT     H131034   1.437   6.759   7.897
10264WAT     H231035   1.568   6.661   7.895
10265WAT      O31036   6.400   4.859   2.289
10265WAT     H131037   6.441   4.841   2.379
10265WAT     H231038   6.351   4.778   2.258
10266WAT      O31039   7.371   0.945   3.721
10266WAT     H131040   7.363   1.037   3.682
10266WAT     H231041   7.405   0.882   3.651
10267WAT      O31042   6.521   5.163   3.018
10267WAT     H131043   6.548   5.199   3.108
10267WAT     H231044   6.422   5.165   3.010
10268WAT      O31045   1.596   3.240   7.887
10268WAT     H131046   1.686   3.235   7.929
10268WAT     H231047   1.606   3.258   7.789
10269WAT      O31048   6.255   2.203   9.153
10269WAT     H131049   6.201   2.137   9.206
10269WAT     H231050   6.195   2.275   9.119
10270WAT      O31051   7.663   3.569   8.564
10270WAT     H131052   7.630   3.475   8.572
10270WAT     H231053   7.763   3.570   8.565
10271WAT      O31054   8.642   1.252   7.034
10271WAT     H131055   8.734   1.212   7.029
10271WAT     H231056   8.629   1.294   7.124
10272WAT      O31057   8.995   6.310   9.454
10272WAT     H131058   9.077   6.274   9.409
10272WAT     H231059   9.008   6.407   9.473
10273WAT      O31060   9.776   4.608   0.073
10273WAT     H131061   9.746   4.539   0.139
10273WAT     H231062   9.865   4.581   0.035
10274WAT      O31063   1.177   9.169   4.755
10274WAT     H131064   1.209   9.209   4.669
10274WAT     H231065   1.254   9.158   4.818
10275WAT      O31066   5.368   3.963   1.295
10275WAT     H131067   5.331   3.931   1.382
10275WAT     H231068   5.301   3.946   1.222
10276WAT      O31069   2.980   0.721   4.726
10276WAT     H131070   2.926   0.788   4.676
10276WAT     H231071   2.920   0.650   4.763
10277WAT      O31072   5.614   9.663   3.803
10277WAT     H131073   5.531   9.659   3.746
10277WAT     H231074   5.612   9.589   3.870
10278WAT      O31075   8.774   3.925   1.040
10278WAT     H131076   8.745   3.925   0.944
10278WAT     H231077   8.729   3.850   1.089
10279WAT      O31078   8.775   1.546   8.853
10279WAT     H131079   8.803   1.539   8.948
10279WAT     H231080   8.817   1.626   8.811
10280WAT      O31081   9.207   0.688   1.355
10280WAT     H131082   9.136   0.716   1.291
10280WAT     H231083   9.169   0.682   1.447
10281WAT      O31084   0.020   9.799   8.743
10281WAT     H131085   0.040   9.786   8.840
10281WAT     H231086   0.097   9.766   8.689
10282WAT      O31087   6.042   8.808   8.757
10282WAT     H131088   6.021   8.711   8.751
10282WAT     H231089   6.103   8.834   8.682
10283WAT      O31090   9.745   0.145   3.070
10283WAT     H131091   9.797   0.157   3.155
10283WAT     H231092   9.697   0.057   3.073
10284WAT      O31093   0.656   1.424   0.321
10284WAT     H131094   0.619   1.342   0.278
10284WAT     H231095   0.752   1.408   0.344
10285WAT      O31096   2.443   3.178   6.395
10285WAT     H131097   2.531   3.199   6.438
10285WAT     H231098   2.437   3.080   6.379
10286WAT      O31099   9.089   2.458   2.165
10286WAT     H131100   9.095   2.494   2.072
10286WAT     H231101   9.101   2.358   2.163
10287WAT      O31102   8.099   7.215   9.403
10287WAT     H131103   8.121   7.176   9.492
10287WAT     H231104   8.182   7.244   9.357
10288WAT      O31105   4.724   2.517   6.602
10288WAT     H131106   4.716   2.419   6.619
10288WAT     H231107   4.636   2.561   6.622
10289WAT      O31108   4.519   1.647   3.080
10289WAT     H131109   4.473   1.669   3.166
10289WAT     H231110   4.551   1.552   3.082
10290WAT      O31111   7.043   6.072   3.856
10290WAT     H131112   7.107   5.995   3.860
10290WAT     H231113   6.971   6.058   3.924
10291WAT      O31114   6.804   6.489   3.351
10291WAT     H131115   6.896   6.452   3.347
10291WAT     H231116   6.738   6.414   3.358
10292WAT      O31117   9.765   8.448   2.353
10292WAT     H131118   9.666   8.459   2.339
10292WAT     H231119   9.783   8.361   2.398
10293WAT      O31120   1.968   4.402   3.165
10293WAT     H131121   2.053   4.387   3.216
10293WAT     H231122   1.958   4.331   3.096
10294WAT      O31123   5.251   0.593   6.802
10294WAT     H131124   5.174   0.595   6.867
10294WAT     H231125   5.271   0.498   6.778
10295WAT      O31126   1.961   1.952   6.786
10295WAT     H131127   1.954   2.047   6.817
10295WAT     H231128   1.870   1.913   6.777
10296WAT      O31129   4.607   1.287   4.618
10296WAT     H131130   4.521   1.333   4.640
10296WAT     H231131   4.602   1.192   4.649
10297WAT      O31132   6.092   9.705   5.415
10297WAT     H131133   6.124   9.663   5.500
10297WAT     H231134   6.126   9.653   5.337
10298WAT      O31135   8.176   7.362   3.442
10298WAT     H131136   8.236   7.283   3.433
10298WAT     H231137   8.212   7.424   3.512
10299WAT      O31138   6.259   3.332   7.902
10299WAT     H131139   6.296   3.369   7.988
10299WAT     H231140   6.165   3.363   7.890
10300WAT      O31141   7.938   6.514   3.836
10300WAT     H131142   7.957   6.420   3.864
10300WAT     H231143   7.862   6.515   3.772
10301WAT      O31144   1.568   3.432   6.845
10301WAT     H131145   1.597   3.528   6.850
10301WAT     H231146   1.488   3.425   6.785
10302WAT      O31147   4.531   3.452   5.080
10302WAT     H131148   4.462   3.404   5.026
10302WAT     H231149   4.553   3.398   5.161
10303WAT      O31150   8.305   1.297   6.982
10303WAT     H131151   8.353   1.263   6.902
10303WAT     H231152   8.343   1.384   7.011
10304WAT      O31153   0.144   5.154   2.748
10304WAT     H131154   0.132   5.194   2.839
10304WAT     H231155   0.182   5.222   2.686
10305WAT      O31156   7.038   9.804   7.504
10305WAT     H131157   6.990   9.763   7.427
10305WAT     H231158   7.126   9.841   7.474
10306WAT      O31159   8.844   7.701   8.767
10306WAT     H131160   8.893   7.691   8.680
10306WAT     H231161   8.910   7.715   8.840
10307WAT      O31162   0.700   1.781   3.119
10307WAT     H131163   0.622   1.743   3.168
10307WAT     H231164   0.702   1.743   3.026
10308WAT      O31165   9.694   7.842   5.087
10308WAT     H131166   9.701   7.866   4.990
10308WAT     H231167   9.762   7.772   5.110
10309WAT      O31168   7.615   8.475   6.692
10309WAT     H131169   7.668   8.526   6.624
10309WAT     H231170   7.675   8.443   6.765
10310WAT      O31171   3.228   1.283   2.085
10310WAT     H131172   3.165   1.325   2.019
10310WAT     H231173   3.228   1.337   2.169
10311WAT      O31174   0.309   6.235   4.058
10311WAT     H131175   0.274   6.175   3.987
10311WAT     H231176   0.381   6.293   4.020
10312WAT      O31177   4.463   0.514   8.103
10312WAT     H131178   4.391   0.453   8.137
10312WAT     H231179   4.513   0.469   8.029
10313WAT      O31180   9.331   6.013   4.538
10313WAT     H131181   9.404   6.006   4.606
10313WAT     H231182   9.243   5.989   4.580
10314WAT      O31183   1.770   7.514   7.120
10314WAT     H131184   1.736   7.545   7.031
10314WAT     H231185   1.855   7.463   7.108
10315WAT      O31186   4.903   7.191   2.721
10315WAT     H131187   4.923   7.265   2.786
10315WAT     H231188   4.989   7.151   2.689
10316WAT      O31189   4.115   7.516   1.103
10316WAT     H131190   4.040   7.515   1.169
10316WAT     H231191   4.080   7.498   1.011
10317WAT      O31192   1.000   0.929   8.845
10317WAT     H131193   0.963   0.852   8.896
10317WAT     H231194   0.952   0.939   8.758
10318WAT      O31195   5.058   2.650   8.680
10318WAT     H131196   5.009   2.563   8.676
10318WAT     H231197   5.015   2.716   8.619
10319WAT      O31198   3.476   0.915   2.256
10319WAT     H131199   3.569   0.942   2.230
10319WAT     H231200   3.412   0.943   2.185
10320WAT      O31201   7.371   8.291   6.983
10320WAT     H131202   7.380   8.272   7.081
10320WAT     H231203   7.280   8.330   6.965
10321WAT      O31204   0.768   2.622   7.807
10321WAT     H131205   0.731   2.552   7.869
10321WAT     H231206   0.852   2.589   7.765
10322WAT      O31207   4.920   8.876   3.551
10322WAT     H131208   5.013   8.850   3.527
10322WAT     H231209   4.879   8.805   3.608
10323WAT      O31210   1.665   9.661   1.602
10323WAT     H131211   1.637   9.578   1.554
10323WAT     H231212   1.670   9.737   1.538
10324WAT      O31213   1.740   3.670   2.407
10324WAT     H131214   1.838   3.673   2.428
10324WAT     H231215   1.694   3.609   2.471
10325WAT      O31216   3.284   7.920   7.540
10325WAT     H131217   3.339   7.902   7.459
10325WAT     H231218   3.190   7.942   7.514
10326WAT      O31219   6.747   5.453   9.755
10326WAT     H131220   6.806   5.516   9.704
10326WAT     H231221   6.765   5.359   9.726
10327WAT      O31222   2.126   6.593   4.567
10327WAT     H131223   2.107   6.498   4.543
10327WAT     H231224   2.046   6.650   4.548
10328WAT      O31225   3.240   9.710   0.086
10328WAT     H131226   3.239   9.722   0.185
10328WAT     H231227   3.271   9.618   0.064
10329WAT      O31228   6.643   8.380   0.461
10329WAT     H131229   6.591   8.324   0.525
10329WAT     H231230   6.657   8.329   0.376
10330WAT      O31231   0.157   6.521   0.869
10330WAT     H131232   0.169   6.589   0.796
10330WAT     H231233   0.062   6.520   0.899
10331WAT      O31234   6.400   6.344   3.563
10331WAT     H131235   6.382   6.316   3.469
10331WAT     H231236   6.334   6.301   3.624
10332WAT      O31237   0.733   2.873   8.871
10332WAT     H131238   0.801   2.945   8.860
10332WAT     H231239   0.724   2.823   8.785
10333WAT      O31240   2.720   6.275   6.216
10333WAT     H131241   2.653   6.205   6.190
10333WAT     H231242   2.732   6.274   6.315
10334WAT      O31243   4.933   3.407   0.147
10334WAT     H131244   5.012   3.395   0.208
10334WAT     H231245   4.889   3.319   0.131
10335WAT      O31246   6.857   1.406   3.201
10335WAT     H131247   6.803   1.350   3.137
10335WAT     H231248   6.795   1.449   3.267
10336WAT      O31249   3.276   5.882   1.217
10336WAT     H131250   3.323   5.882   1.128
10336WAT     H231251   3.328   5.826   1.281
10337WAT      O31252   1.164   1.339   8.667
10337WAT     H131253   1.071   1.320   8.635
10337WAT     H231254   1.173   1.310   8.762
10338WAT      O31255   5.392   3.362   2.934
10338WAT     H131256   5.344   3.304   2.869
10338WAT     H231257   5.453   3.306   2.990
10339WAT      O31258   4.852   7.553   2.384
10339WAT     H131259   4.760   7.515   2.377
10339WAT     H231260   4.919   7.479   2.385
10340WAT      O31261   0.201   1.563   3.429
10340WAT     H131262   0.271   1.517   3.374
10340WAT     H231263   0.111   1.540   3.394
10341WAT      O31264   9.340   2.088   7.628
10341WAT     H131265   9.257   2.130   7.591
10341WAT     H231266   9.409   2.158   7.644
10342WAT      O31267   4.397   2.871   5.655
10342WAT     H131268   4.477   2.865   5.595
10342WAT     H231269   4.422   2.923   5.737
10343WAT      O31270   5.279   0.328   6.698
10343WAT     H131271   5.184   0.316   6.670
10343WAT     H231272   5.311   0.247   6.746
10344WAT      O31273   8.523   8.893   3.203
10344WAT     H131274   8.589   8.914   3.275
10344WAT     H231275   8.505   8.975   3.149
10345WAT      O31276   3.592   1.245   6.134
10345WAT     H131277   3.628   1.249   6.227
10345WAT     H231278   3.578   1.338   6.100
10346WAT      O31279   0.554   3.131   4.939
10346WAT     H131280   0.478   3.065   4.937
10346WAT     H231281   0.528   3.213   4.888
10347WAT      O31282   2.299   8.273   2.119
10347WAT     H131283   2.293   8.183   2.075
10347WAT     H231284   2.394   8.305   2.116
10348WAT      O31285   7.662   9.062   5.786
10348WAT     H131286   7.566   9.037   5.803
10348WAT     H231287   7.665   9.140   5.723
10349WAT      O31288   2.350   7.517   6.703
10349WAT     H131289   2.392   7.506   6.793
10349WAT     H231290   2.343   7.427   6.659
10350WAT      O31291   1.534   4.340   7.206
10350WAT     H131292   1.625   4.366   7.173
10350WAT     H231293   1.473   4.327   7.127
10351WAT      O31294   8.362   5.034   0.513
10351WAT     H131295   8.270   5.053   0.476
10351WAT     H231296   8.404   5.120   0.542
10352WAT      O31297   7.377   5.494   1.361
10352WAT     H131298   7.398   5.575   1.306
10352WAT     H231299   7.343   5.523   1.451
10353WAT      O31300   8.157   1.517   3.599
10353WAT     H131301   8.105   1.472   3.671
10353WAT     H231302   8.251   1.482   3.597
10354WAT      O31303   5.665   2.900   7.067
10354WAT     H131304   5.736   2.909   6.998
10354WAT     H231305   5.620   2.989   7.081
10355WAT      O31306   1.903   1.395   2.950
10355WAT     H131307   1.835   1.444   2.895
10355WAT     H231308   1.914   1.440   3.038
10356WAT      O31309   4.771   3.728   1.006
10356WAT     H131310   4.747   3.825   1.002
10356WAT     H231311   4.775   3.691   0.913
10357WAT      O31312   5.892   0.354   7.646
10357WAT     H131313   5.904   0.382   7.551
10357WAT     H231314   5.866   0.433   7.702
10358WAT      O31315   5.458   6.635   1.243
10358WAT     H131316   5.463   6.669   1.337
10358WAT     H231317   5.363   6.639   1.211
10359WAT      O31318   9.193   0.668   0.912
10359WAT     H131319   9.267   0.618   0.957
10359WAT     H231320   9.231   0.729   0.843
10360WAT      O31321   3.126   6.783   8.782
10360WAT     H131322   3.128   6.822   8.875
10360WAT     H231323   3.034   6.792   8.744
10361WAT      O31324   0.019   7.532   2.829
10361WAT     H131325  -0.072   7.504   2.802
10361WAT     H231326   0.075   7.452   2.849
10362WAT      O31327   0.610   1.062   4.900
10362WAT     H131328   0.672   1.098   4.970
10362WAT     H231329   0.538   1.008   4.943
10363WAT      O31330   6.470   7.231   5.232
10363WAT     H131331   6.551   7.225   5.173
10363WAT     H231332   6.499   7.242   5.327
10364WAT      O31333   4.552   1.783   9.043
10364WAT     H131334   4.534   1.756   8.949
10364WAT     H231335   4.498   1.725   9.105
10365WAT      O31336   2.317   9.407   1.879
10365WAT     H131337   2.402   9.358   1.895
10365WAT     H231338   2.240   9.357   1.920
10366WAT      O31339   3.688   5.764   7.156
10366WAT     H131340   3.716   5.676   7.118
10366WAT     H231341   3.662   5.752   7.252
10367WAT      O31342   7.117   7.953   3.089
10367WAT     H131343   7.056   8.007   3.031
10367WAT     H231344   7.189   8.011   3.127
10368WAT      O31345   3.677   2.905   1.001
10368WAT     H131346   3.606   2.921   1.069
10368WAT     H231347   3.636   2.875   0.916
10369WAT      O31348   6.825   3.838   5.425
10369WAT     H131349   6.783   3.928   5.424
10369WAT     H231350   6.754   3.768   5.424
10370WAT      O31351   3.684   1.771   9.034
10370WAT     H131352   3.592   1.734   9.049
10370WAT     H231353   3.729   1.786   9.122
10371WAT      O31354   3.488   8.650   2.575
10371WAT     H131355   3.488   8.638   2.674
10371WAT     H231356   3.578   8.628   2.538
10372WAT      O31357   8.287   9.001   6.439
10372WAT     H131358   8.231   8.968   6.362
10372WAT     H231359   8.228   9.013   6.519
10373WAT      O31360   5.977   4.187   2.372
10373WAT     H131361   6.028   4.125   2.313
10373WAT     H231362   6.039   4.255   2.411
10374WAT      O31363   1.522   5.398   0.293
10374WAT     H131364   1.556   5.362   0.379
10374WAT     H231365   1.594   5.393   0.224
10375WAT      O31366   4.197   8.345   3.474
10375WAT     H131367   4.183   8.345   3.573
10375WAT     H231368   4.217   8.252   3.443
10376WAT      O31369   3.713   2.487   4.303
10376WAT     H131370   3.785   2.511   4.237
10376WAT     H231371   3.716   2.389   4.320
10377WAT      O31372   5.665   2.744   6.240
10377WAT     H131373   5.705   2.757   6.330
10377WAT     H231374   5.701   2.814   6.177
10378WAT      O31375   5.253   8.774   5.607
10378WAT     H131376   5.297   8.756   5.695
10378WAT     H231377   5.158   8.800   5.621
10379WAT      O31378   5.960   8.203   7.666
10379WAT     H131379   5.920   8.118   7.632
10379WAT     H231380   5.989   8.191   7.761
10380WAT      O31381   7.238   0.319   7.559
10380WAT     H131382   7.328   0.280   7.578
10380WAT     H231383   7.186   0.326   7.645
10381WAT      O31384   0.162   3.007   7.011
10381WAT     H131385   0.087   3.039   6.953
10381WAT     H231386   0.137   2.920   7.053
10382WAT      O31387   0.902   1.781   6.193
10382WAT     H131388   0.995   1.818   6.204
10382WAT     H231389   0.846   1.810   6.271
10383WAT      O31390   7.069   6.316   9.876
10383WAT     H131391   6.995   6.373   9.840
10383WAT     H231392   7.033   6.227   9.904
10384WAT      O31393   5.096   2.939   5.211
10384WAT     H131394   5.022   2.946   5.278
10384WAT     H231395   5.058   2.911   5.123
10385WAT      O31396   6.310   2.082   3.605
10385WAT     H131397   6.215   2.058   3.624
10385WAT     H231398   6.312   2.159   3.541
10386WAT      O31399   4.825   2.593   5.032
10386WAT     H131400   4.845   2.496   5.048
10386WAT     H231401   4.842   2.615   4.936
10387WAT      O31402   3.209   7.054   5.616
10387WAT     H131403   3.110   7.046   5.602
10387WAT     H231404   3.232   7.030   5.710
10388WAT      O31405   3.230   5.558   3.681
10388WAT     H131406   3.235   5.487   3.752
10388WAT     H231407   3.294   5.536   3.607
10389WAT      O31408   8.378   4.892   0.738
10389WAT     H131409   8.370   4.936   0.649
10389WAT     H231410   8.306   4.824   0.749
10390WAT      O31411   6.176   1.609   3.870
10390WAT     H131412   6.223   1.697   3.880
10390WAT     H231413   6.095   1.608   3.928
10391WAT      O31414   9.267   7.176   4.687
10391WAT     H131415   9.240   7.168   4.783
10391WAT     H231416   9.243   7.093   4.639
10392WAT      O31417   4.696   5.219   1.827
10392WAT     H131418   4.771   5.187   1.885
10392WAT     H231419   4.625   5.148   1.823
10393WAT      O31420   4.241   3.049   0.468
10393WAT     H131421   4.262   2.964   0.420
10393WAT     H231422   4.196   3.028   0.555
10394WAT      O31423   7.525   3.564   2.978
10394WAT     H131424   7.602   3.622   3.004
10394WAT     H231425   7.440   3.608   3.005
10395WAT      O31426   0.641   8.029   9.102
10395WAT     H131427   0.642   8.031   9.202
10395WAT     H231428   0.633   7.934   9.071
10396WAT      O31429   2.360   4.250   4.361
10396WAT     H131430   2.389   4.250   4.456
10396WAT     H231431   2.284   4.315   4.349
10397WAT      O31432   9.302   1.957   0.344
10397WAT     H131433   9.258   1.982   0.431
10397WAT     H231434   9.244   1.892   0.295
10398WAT      O31435   4.263   1.234   7.223
10398WAT     H131436   4.267   1.213   7.125
10398WAT     H231437   4.312   1.319   7.241
10399WAT      O31438   8.753   6.523   4.212
10399WAT     H131439   8.690   6.582   4.162
10399WAT     H231440   8.740   6.428   4.183
10400WAT      O31441   3.670   1.513   5.605
10400WAT     H131442   3.681   1.467   5.693
10400WAT     H231443   3.596   1.469   5.554
10401WAT      O31444   9.868   1.852   3.496
10401WAT     H131445   9.785   1.813   3.456
10401WAT     H231446   9.858   1.861   3.595
10402WAT      O31447   2.862   2.466   7.160
10402WAT     H131448   2.951   2.472   7.113
10402WAT     H231449   2.798   2.415   7.103
10403WAT      O31450   3.432   0.104   8.523
10403WAT     H131451   3.450   0.192   8.566
10403WAT     H231452   3.485   0.033   8.569
10404WAT      O31453   3.759   7.297   0.537
10404WAT     H131454   3.689   7.257   0.477
10404WAT     H231455   3.847   7.253   0.519
10405WAT      O31456   1.984   0.166   1.055
10405WAT     H131457   1.913   0.154   0.986
10405WAT     H231458   2.002   0.263   1.068
10406WAT      O31459   4.587   8.426   0.383
10406WAT     H131460   4.662   8.479   0.423
10406WAT     H231461   4.547   8.477   0.307
10407WAT      O31462   3.744   0.899   9.372
10407WAT     H131463   3.690   0.909   9.456
10407WAT     H231464   3.793   0.984   9.354
10408WAT      O31465   4.895   8.482   6.797
10408WAT     H131466   4.974   8.469   6.737
10408WAT     H231467   4.878   8.580   6.809
10409WAT      O31468   8.219   4.389   9.772
10409WAT     H131469   8.224   4.353   9.865
10409WAT     H231470   8.269   4.476   9.768
10410WAT      O31471   4.803   9.709   3.718
10410WAT     H131472   4.732   9.659   3.668
10410WAT     H231473   4.762   9.785   3.768
10411WAT      O31474   1.941   8.941   9.230
10411WAT     H131475   1.916   8.929   9.326
10411WAT     H231476   2.023   8.998   9.223
10412WAT      O31477   1.669   8.983   5.629
10412WAT     H131478   1.707   8.891   5.628
10412WAT     H231479   1.662   9.014   5.724
10413WAT      O31480   7.400   8.526   8.002
10413WAT     H131481   7.309   8.499   7.968
10413WAT     H231482   7.450   8.571   7.928
10414WAT      O31483   2.940   1.023   6.433
10414WAT     H131484   2.901   0.983   6.350
10414WAT     H231485   2.954   1.121   6.419
10415WAT      O31486   7.086   7.276   9.555
10415WAT     H131487   7.120   7.352   9.610
10415WAT     H231488   7.145   7.196   9.569
10416WAT      O31489   6.975   6.458   2.972
10416WAT     H131490   7.027   6.411   2.901
10416WAT     H231491   6.886   6.486   2.935
10417WAT      O31492   1.964   7.596   1.059
10417WAT     H131493   1.952   7.521   1.124
10417WAT     H231494   2.000   7.677   1.107
10418WAT      O31495   9.609   8.773   5.460
10418WAT     H131496   9.541   8.800   5.392
10418WAT     H231497   9.687   8.835   5.455
10419WAT      O31498   9.304   9.648   5.917
10419WAT     H131499   9.344   9.592   5.989
10419WAT     H231500   9.333   9.613   5.828
10420WAT      O31501   2.174   8.792   6.085
10420WAT     H131502   2.080   8.759   6.071
10420WAT     H231503   2.175   8.892   6.078
10421WAT      O31504   6.271   3.246   9.107
10421WAT     H131505   6.301   3.174   9.044
10421WAT     H231506   6.172   3.260   9.097
10422WAT      O31507   4.725   3.264   8.214
10422WAT     H131508   4.821   3.287   8.230
10422WAT     H231509   4.671   3.282   8.296
10423WAT      O31510   4.616   7.413   2.433
10423WAT     H131511   4.640   7.326   2.474
10423WAT     H231512   4.553   7.398   2.357
10424WAT      O31513   1.353   4.836   2.645
10424WAT     H131514   1.436   4.846   2.590
10424WAT     H231515   1.372   4.774   2.721
10425WAT      O31516   6.171   0.720   7.931
10425WAT     H131517   6.133   0.632   7.902
10425WAT     H231518   6.116   0.757   8.006
10426WAT      O31519   2.213   8.259   0.074
10426WAT     H131520   2.267   8.245   0.157
10426WAT     H231521   2.217   8.356   0.049
10427WAT      O31522   8.096   4.682   5.358
10427WAT     H131523   8.100   4.657   5.455
10427WAT     H231524   8.006   4.658   5.321
10428WAT      O31525   8.584   2.229   9.187
10428WAT     H131526   8.640   2.231   9.104
10428WAT     H231527   8.489   2.251   9.165
10429WAT      O31528   1.861   8.106   1.015
10429WAT     H131529   1.777   8.095   0.962
10429WAT     H231530   1.862   8.197   1.057
10430WAT      O31531   5.877   5.233   5.018
10430WAT     H131532   5.889   5.235   4.919
10430WAT     H231533   5.902   5.323   5.056
10431WAT      O31534   2.458   8.526   8.941
10431WAT     H131535   2.406   8.556   9.021
10431WAT     H231536   2.398   8.522   8.861
10432WAT      O31537   3.915   7.494   4.324
10432WAT     H131538   4.005   7.476   4.364
10432WAT     H231539   3.877   7.409   4.287
10433WAT      O31540   0.945   2.877   1.854
10433WAT     H131541   0.989   2.955   1.809
10433WAT     H231542   0.959   2.795   1.799
10434WAT      O31543   0.509   2.723   4.627
10434WAT     H131544   0.467   2.701   4.538
10434WAT     H231545   0.578   2.794   4.614
10435WAT      O31546   4.449   9.462   9.883
10435WAT     H131547   4.489   9.479   9.793
10435WAT     H231548   4.354   9.492   9.884
10436WAT      O31549   6.485   4.874   9.617
10436WAT     H131550   6.446   4.863   9.709
10436WAT     H231551   6.513   4.969   9.604
10437WAT      O31552   7.296   7.433   9.376
10437WAT     H131553   7.321   7.420   9.472
10437WAT     H231554   7.219   7.496   9.370
10438WAT      O31555   4.116   0.438   2.154
10438WAT     H131556   4.166   0.470   2.235
10438WAT     H231557   4.181   0.417   2.082
10439WAT      O31558   1.312   1.929   3.241
10439WAT     H131559   1.231   1.979   3.211
10439WAT     H231560   1.394   1.975   3.206
10440WAT      O31561   0.603   6.808   9.311
10440WAT     H131562   0.569   6.837   9.221
10440WAT     H231563   0.547   6.732   9.345
10441WAT      O31564   4.330   0.057   9.042
10441WAT     H131565   4.314   0.155   9.033
10441WAT     H231566   4.345   0.034   9.138
10442WAT      O31567   1.018   5.925   0.508
10442WAT     H131568   1.029   5.850   0.442
10442WAT     H231569   0.921   5.937   0.528
10443WAT      O31570   3.511   7.029   5.612
10443WAT     H131571   3.498   7.109   5.671
10443WAT     H231572   3.453   7.036   5.532
10444WAT      O31573   9.151   1.131   7.845
10444WAT     H131574   9.209   1.203   7.883
10444WAT     H231575   9.206   1.075   7.782
10445WAT      O31576   6.577   1.311   3.536
10445WAT     H131577   6.644   1.361   3.591
10445WAT     H231578   6.503   1.279   3.596
10446WAT      O31579   6.356   9.060   5.287
10446WAT     H131580   6.269   9.034   5.244
10446WAT     H231581   6.375   9.156   5.267
10447WAT      O31582   6.257   4.578   7.627
10447WAT     H131583   6.322   4.638   7.581
10447WAT     H231584   6.304   4.527   7.699
10448WAT      O31585   3.661   1.638   4.506
10448WAT     H131586   3.634   1.679   4.593
10448WAT     H231587   3.738   1.576   4.521
10449WAT      O31588   1.176   7.582   3.815
10449WAT     H131589   1.270   7.551   3.828
10449WAT     H231590   1.114   7.516   3.859
10450WAT      O31591   9.658   4.526   1.718
10450WAT     H131592   9.736   4.525   1.780
10450WAT     H231593   9.587   4.586   1.755
10451WAT      O31594   1.725   5.960   4.346
10451WAT     H131595   1.642   5.960   4.401
10451WAT     H231596   1.707   5.914   4.259
10452WAT      O31597   0.129   3.439   9.491
10452WAT     H131598   0.141   3.450   9.589
10452WAT     H231599   0.087   3.521   9.452
10453WAT      O31600   4.560   3.569   6.334
10453WAT     H131601   4.512   3.627   6.399
10453WAT     H231602   4.659   3.585   6.342
10454WAT      O31603   6.417   2.930   8.810
10454WAT     H131604   6.436   2.976   8.723
10454WAT     H231605   6.481   2.962   8.880
10455WAT      O31606   7.620   2.058   4.496
10455WAT     H131607   7.611   2.155   4.474
10455WAT     H231608   7.557   2.004   4.441
10456WAT      O31609   7.818   9.045   0.564
10456WAT     H131610   7.790   9.140   0.548
10456WAT     H231611   7.739   8.985   0.550
10457WAT      O31612   1.549   2.566   2.942
10457WAT     H131613   1.576   2.580   3.037
10457WAT     H231614   1.558   2.469   2.918
10458WAT      O31615   5.213   5.357   3.916
10458WAT     H131616   5.281   5.363   3.988
10458WAT     H231617   5.136   5.302   3.946
10459WAT      O31618   1.705   0.671   8.089
10459WAT     H131619   1.608   0.653   8.105
10459WAT     H231620   1.756   0.584   8.091
10460WAT      O31621   0.750   2.141   0.628
10460WAT     H131622   0.770   2.130   0.725
10460WAT     H231623   0.778   2.060   0.578
10461WAT      O31624   0.637   5.517   1.727
10461WAT     H131625   0.667   5.612   1.737
10461WAT     H231626   0.547   5.516   1.684
10462WAT      O31627   7.732   0.651   0.511
10462WAT     H131628   7.644   0.697   0.525
10462WAT     H231629   7.718   0.553   0.500
10463WAT      O31630   2.613   2.340   6.047
10463WAT     H131631   2.517   2.365   6.036
10463WAT     H231632   2.669   2.422   6.052
10464WAT      O31633   8.548   9.615   9.144
10464WAT     H131634   8.494   9.565   9.076
10464WAT     H231635   8.508   9.706   9.157
10465WAT      O31636   5.440   6.059   3.296
10465WAT     H131637   5.445   5.981   3.359
10465WAT     H231638   5.487   6.137   3.337
10466WAT      O31639   4.664   5.901   0.655
10466WAT     H131640   4.656   5.916   0.754
10466WAT     H231641   4.674   5.803   0.637
10467WAT      O31642   7.590   4.024   1.738
10467WAT     H131643   7.589   4.034   1.639
10467WAT     H231644   7.525   4.088   1.779
10468WAT      O31645   6.468   3.452   4.277
10468WAT     H131646   6.487   3.366   4.230
10468WAT     H231647   6.391   3.440   4.340
10469WAT      O31648   1.752   0.520   4.148
10469WAT     H131649   1.670   0.520   4.206
10469WAT     H231650   1.746   0.595   4.081
10470WAT      O31651   2.641   5.812   4.647
10470WAT     H131652   2.551   5.804   4.605
10470WAT     H231653   2.695   5.882   4.599
10471WAT      O31654   0.149   4.089   0.339
10471WAT     H131655   0.064   4.141   0.346
10471WAT     H231656   0.215   4.123   0.406
10472WAT      O31657   0.047   2.761   7.083
10472WAT     H131658   0.012   2.667   7.076
10472WAT     H231659  -0.009   2.812   7.149
10473WAT      O31660   1.421   7.285   8.103
10473WAT     H131661   1.453   7.197   8.066
10473WAT     H231662   1.379   7.269   8.192
10474WAT      O31663   7.977   6.376   9.845
10474WAT     H131664   8.055   6.314   9.848
10474WAT     H231665   8.010   6.470   9.851
10475WAT      O31666   2.927   2.691   1.736
10475WAT     H131667   3.022   2.687   1.704
10475WAT     H231668   2.866   2.658   1.665
10476WAT      O31669   8.984   0.438   3.128
10476WAT     H131670   8.941   0.374   3.192
10476WAT     H231671   9.078   0.408   3.108
10477WAT      O31672   9.219   1.776   8.576
10477WAT     H131673   9.306   1.823   8.592
10477WAT     H231674   9.157   1.836   8.525
10478WAT      O31675   3.846   7.196   0.987
10478WAT     H131676   3.762   7.207   0.933
10478WAT     H231677   3.846   7.106   1.030
10479WAT      O31678   9.672   7.094   5.410
10479WAT     H131679   9.579   7.083   5.375
10479WAT     H231680   9.728   7.016   5.382
10480WAT      O31681   4.031   7.406   3.303
10480WAT     H131682   3.970   7.451   3.368
10480WAT     H231683   4.040   7.309   3.328
10481WAT      O31684   6.959   1.939   8.969
10481WAT     H131685   7.039   1.904   9.018
10481WAT     H231686   6.884   1.952   9.034
10482WAT      O31687   2.707   4.031   1.121
10482WAT     H131688   2.692   4.118   1.075
10482WAT     H231689   2.632   3.969   1.101
10483WAT      O31690   0.873   4.503   5.761
10483WAT     H131691   0.780   4.537   5.775
10483WAT     H231692   0.879   4.456   5.673
10484WAT      O31693   4.567   3.305   8.446
10484WAT     H131694   4.523   3.373   8.504
10484WAT     H231695   4.499   3.240   8.413
10485WAT      O31696   1.930   1.894   7.759
10485WAT     H131697   1.921   1.794   7.759
10485WAT     H231698   2.021   1.920   7.791
10486WAT      O31699   7.264   1.290   4.853
10486WAT     H131700   7.199   1.215   4.858
10486WAT     H231701   7.348   1.258   4.809
10487WAT      O31702   7.790   3.978   9.727
10487WAT     H131703   7.847   3.913   9.776
10487WAT     H231704   7.825   3.990   9.634
10488WAT      O31705   6.251   6.871   2.879
10488WAT     H131706   6.231   6.820   2.795
10488WAT     H231707   6.350   6.885   2.887
10489WAT      O31708   7.372   9.509   5.707
10489WAT     H131709   7.417   9.470   5.626
10489WAT     H231710   7.430   9.580   5.746
10490WAT      O31711   6.896   7.075   2.601
10490WAT     H131712   6.962   7.148   2.617
10490WAT     H231713   6.892   7.015   2.681
10491WAT      O31714   7.081   6.294   1.001
10491WAT     H131715   7.129   6.317   1.086
10491WAT     H231716   7.033   6.207   1.013
10492WAT      O31717   1.749   0.633   3.870
10492WAT     H131718   1.669   0.675   3.915
10492WAT     H231719   1.728   0.539   3.846
10493WAT      O31720   4.273   2.204   1.374
10493WAT     H131721   4.190   2.149   1.384
10493WAT     H231722   4.288   2.224   1.277
10494WAT      O31723   9.027   7.662   4.415
10494WAT     H131724   8.948   7.654   4.353
10494WAT     H231725   9.108   7.685   4.361
10495WAT      O31726   1.184   0.719   3.407
10495WAT     H131727   1.235   0.764   3.333
10495WAT     H231728   1.129   0.787   3.454
10496WAT      O31729   0.553   4.846   1.164
10496WAT     H131730   0.522   4.753   1.186
10496WAT     H231731   0.582   4.891   1.249
10497WAT      O31732   1.931   6.276   2.879
10497WAT     H131733   1.988   6.339   2.826
10497WAT     H231734   1.987   6.200   2.911
10498WAT      O31735   1.576   1.904   6.015
10498WAT     H131736   1.560   1.989   6.064
10498WAT     H231737   1.556   1.826   6.074
10499WAT      O31738   2.915   4.742   7.196
10499WAT     H131739   2.848   4.803   7.155
10499WAT     H231740   2.929   4.662   7.137
10500WAT      O31741   8.165   6.194   3.709
10500WAT     H131742   8.076   6.217   3.748
10500WAT     H231743   8.192   6.265   3.644
10501WAT      O31744   3.772   3.748   3.238
10501WAT     H131745   3.755   3.684   3.163
10501WAT     H231746   3.727   3.715   3.320
10502WAT      O31747   0.274   7.145   4.723
10502WAT     H131748   0.181   7.175   4.702
10502WAT     H231749   0.311   7.093   4.646
10503WAT      O31750   7.967   5.168   3.046
10503WAT     H131751   7.889   5.218   3.083
10503WAT     H231752   8.026   5.137   3.121
10504WAT      O31753   4.680   9.351   2.397
10504WAT     H131754   4.775   9.324   2.411
10504WAT     H231755   4.677   9.445   2.363
10505WAT      O31756   8.951   2.679   4.203
10505WAT     H131757   8.879   2.745   4.219
10505WAT     H231758   8.920   2.612   4.135
10506WAT      O31759   2.594   1.395   2.573
10506WAT     H131760   2.595   1.374   2.476
10506WAT     H231761   2.676   1.447   2.597
10507WAT      O31762   2.399   5.449   3.029
10507WAT     H131763   2.358   5.421   2.943
10507WAT     H231764   2.347   5.410   3.105
10508WAT      O31765   2.789   8.224   4.898
10508WAT     H131766   2.723   8.155   4.930
10508WAT     H231767   2.871   8.220   4.954
10509WAT      O31768   8.928   9.429   1.949
10509WAT     H131769   8.966   9.516   1.980
10509WAT     H231770   8.969   9.403   1.862
10510WAT      O31771   2.348   0.426   2.060
10510WAT     H131772   2.404   0.359   2.110
10510WAT     H231773   2.274   0.379   2.013
10511WAT      O31774   1.603   9.479   9.823
10511WAT     H131775   1.517   9.428   9.827
10511WAT     H231776   1.677   9.423   9.861
10512WAT      O31777   7.893   9.568   0.826
10512WAT     H131778   7.951   9.548   0.747
10512WAT     H231779   7.942   9.543   0.910
10513WAT      O31780   8.300   5.148   2.992
10513WAT     H131781   8.326   5.070   2.936
10513WAT     H231782   8.253   5.117   3.075
10514WAT      O31783   5.418   8.360   0.734
10514WAT     H131784   5.356   8.438   0.736
10514WAT     H231785   5.459   8.348   0.825
10515WAT      O31786   2.890   6.997   3.849
10515WAT     H131787   2.808   6.981   3.794
10515WAT     H231788   2.942   7.073   3.811
10516WAT      O31789   4.414   0.067   5.289
10516WAT     H131790   4.429   0.144   5.228
10516WAT     H231791   4.433   0.094   5.384
10517WAT      O31792   6.968   9.272   6.978
10517WAT     H131793   6.964   9.288   6.879
10517WAT     H231794   7.063   9.282   7.009
10518WAT      O31795   6.040   6.121   7.603
10518WAT     H131796   5.968   6.122   7.534
10518WAT     H231797   6.062   6.026   7.627
10519WAT      O31798   6.729   8.014   4.577
10519WAT     H131799   6.801   7.975   4.635
10519WAT     H231800   6.644   8.021   4.630
10520WAT      O31801   8.379   4.751   3.555
10520WAT     H131802   8.384   4.803   3.470
10520WAT     H231803   8.434   4.796   3.625
10521WAT      O31804   4.159   4.929   1.027
10521WAT     H131805   4.133   5.021   0.998
10521WAT     H231806   4.181   4.930   1.125
10522WAT      O31807   7.974   6.948   2.069
10522WAT     H131808   7.989   7.044   2.048
10522WAT     H231809   8.022   6.923   2.153
10523WAT      O31810   6.468   8.678   2.166
10523WAT     H131811   6.492   8.621   2.087
10523WAT     H231812   6.551   8.701   2.217
10524WAT      O31813   0.035   7.180   6.329
10524WAT     H131814   0.013   7.144   6.239
10524WAT     H231815  -0.042   7.233   6.364
10525WAT      O31816   8.437   6.384   6.376
10525WAT     H131817   8.415   6.308   6.314
10525WAT     H231818   8.353   6.429   6.404
10526WAT      O31819   7.523   0.711   8.706
10526WAT     H131820   7.425   0.715   8.689
10526WAT     H231821   7.556   0.802   8.733
10527WAT      O31822   7.535   3.470   2.290
10527WAT     H131823   7.546   3.531   2.368
10527WAT     H231824   7.452   3.494   2.240
10528WAT      O31825   2.178   8.781   3.787
10528WAT     H131826   2.209   8.770   3.881
10528WAT     H231827   2.225   8.715   3.728
10529WAT      O31828   1.921   2.712   6.158
10529WAT     H131829   1.922   2.792   6.097
10529WAT     H231830   1.975   2.732   6.239
10530WAT      O31831   6.324   1.510   6.319
10530WAT     H131832   6.302   1.448   6.394
10530WAT     H231833   6.387   1.581   6.351
10531WAT      O31834   9.382   5.763   4.910
10531WAT     H131835   9.433   5.832   4.858
10531WAT     H231836   9.284   5.772   4.890
10532WAT      O31837   0.073   6.700   7.318
10532WAT     H131838   0.099   6.756   7.239
10532WAT     H231839   0.005   6.632   7.289
10533WAT      O31840   8.599   4.361   9.190
10533WAT     H131841   8.555   4.440   9.234
10533WAT     H231842   8.698   4.367   9.202
10534WAT      O31843   6.598   9.410   5.959
10534WAT     H131844   6.640   9.386   5.872
10534WAT     H231845   6.515   9.465   5.941
10535WAT      O31846   5.103   3.134   8.060
10535WAT     H131847   5.155   3.213   8.092
10535WAT     H231848   5.085   3.073   8.137
10536WAT      O31849   5.493   3.070   1.903
10536WAT     H131850   5.423   2.999   1.899
10536WAT     H231851   5.468   3.146   1.843
10537WAT      O31852   3.439   7.279   3.037
10537WAT     H131853   3.532   7.315   3.029
10537WAT     H231854   3.435   7.188   2.996
10538WAT      O31855   3.514   9.271   2.078
10538WAT     H131856   3.548   9.365   2.080
10538WAT     H231857   3.553   9.222   2.000
10539WAT      O31858   8.265   0.822   6.799
10539WAT     H131859   8.185   0.877   6.774
10539WAT     H231860   8.235   0.739   6.846
10540WAT      O31861   2.153   7.379   6.226
10540WAT     H131862   2.132   7.363   6.129
10540WAT     H231863   2.251   7.393   6.237
10541WAT      O31864   2.048   8.735   5.424
10541WAT     H131865   2.088   8.731   5.332
10541WAT     H231866   1.979   8.664   5.433
10542WAT      O31867   5.213   0.213   6.231
10542WAT     H131868   5.217   0.270   6.313
10542WAT     H231869   5.249   0.263   6.153
10543WAT      O31870   4.412   6.332   3.828
10543WAT     H131871   4.343   6.379   3.773
10543WAT     H231872   4.367   6.282   3.902
10544WAT      O31873   6.196   6.213   7.865
10544WAT     H131874   6.183   6.120   7.899
10544WAT     H231875   6.262   6.211   7.790
10545WAT      O31876   6.967   7.243   1.414
10545WAT     H131877   6.942   7.188   1.494
10545WAT     H231878   6.961   7.187   1.332
10546WAT      O31879   7.178   9.563   1.752
10546WAT     H131880   7.114   9.621   1.802
10546WAT     H231881   7.268   9.566   1.795
10547WAT      O31882   6.073   0.826   5.748
10547WAT     H131883   6.109   0.870   5.666
10547WAT     H231884   6.050   0.731   5.728
10548WAT      O31885   2.234   5.680   2.398
10548WAT     H131886   2.203   5.726   2.480
10548WAT     H231887   2.166   5.690   2.325
10549WAT      O31888   4.600   8.719   4.977
10549WAT     H131889   4.552   8.638   5.011
10549WAT     H231890   4.668   8.692   4.909
10550WAT      O31891   4.786   1.488   3.774
10550WAT     H131892   4.692   1.461   3.793
10550WAT     H231893   4.785   1.575   3.724
10551WAT      O31894   0.628   7.859   6.648
10551WAT     H131895   0.655   7.778   6.597
10551WAT     H231896   0.700   7.883   6.714
10552WAT      O31897   0.285   1.693   0.390
10552WAT     H131898   0.361   1.628   0.387
10552WAT     H231899   0.214   1.659   0.452
10553WAT      O31900   7.769   9.207   9.138
10553WAT     H131901   7.723   9.201   9.050
10553WAT     H231902   7.720   9.272   9.197
10554WAT      O31903   8.445   1.116   1.388
10554WAT     H131904   8.412   1.039   1.443
10554WAT     H231905   8.545   1.115   1.385
10555WAT      O31906   9.191   0.157   6.046
10555WAT     H131907   9.126   0.093   6.087
10555WAT     H231908   9.197   0.240   6.101
10556WAT      O31909   5.312   7.540   4.030
10556WAT     H131910   5.244   7.586   4.087
10556WAT     H231911   5.360   7.607   3.974
10557WAT      O31912   1.107   6.624   8.233
10557WAT     H131913   1.117   6.572   8.148
10557WAT     H231914   1.186   6.606   8.292
10558WAT      O31915   9.564   3.058   1.061
10558WAT     H131916   9.490   3.072   1.128
10558WAT     H231917   9.652   3.078   1.104
10559WAT      O31918   3.571   7.883   3.981
10559WAT     H131919   3.502   7.853   3.916
10559WAT     H231920   3.537   7.871   4.074
10560WAT      O31921   3.125   1.288   7.244
10560WAT     H131922   3.151   1.317   7.152
10560WAT     H231923   3.028   1.309   7.259
10561WAT      O31924   5.985   0.742   6.573
10561WAT     H131925   6.002   0.773   6.480
10561WAT     H231926   6.061   0.685   6.604
10562WAT      O31927   9.425   7.652   2.137
10562WAT     H131928   9.366   7.693   2.068
10562WAT     H231929   9.425   7.553   2.127
10563WAT      O31930   8.566   6.266   9.623
10563WAT     H131931   8.666   6.260   9.628
10563WAT     H231932   8.525   6.210   9.695
10564WAT      O31933   0.551   7.507   4.906
10564WAT     H131934   0.647   7.534   4.907
10564WAT     H231935   0.507   7.539   4.990
10565WAT      O31936   8.634   5.102   5.805
10565WAT     H131937   8.630   5.148   5.893
10565WAT     H231938   8.703   5.030   5.807
10566WAT      O31939   9.102   7.285   3.284
10566WAT     H131940   9.005   7.278   3.259
10566WAT     H231941   9.159   7.264   3.205
10567WAT      O31942   0.307   8.848   1.212
10567WAT     H131943   0.383   8.904   1.179
10567WAT     H231944   0.325   8.752   1.193
10568WAT      O31945   6.802   8.680   4.468
10568WAT     H131946   6.820   8.690   4.370
10568WAT     H231947   6.705   8.693   4.486
10569WAT      O31948   5.228   0.933   2.726
10569WAT     H131949   5.158   0.978   2.671
10569WAT     H231950   5.318   0.969   2.702
10570WAT      O31951   6.878   1.865   7.392
10570WAT     H131952   6.838   1.793   7.335
10570WAT     H231953   6.817   1.944   7.394
10571WAT      O31954   0.723   6.701   7.226
10571WAT     H131955   0.763   6.625   7.175
10571WAT     H231956   0.794   6.745   7.282
10572WAT      O31957   8.955   7.078   9.371
10572WAT     H131958   9.033   7.085   9.309
10572WAT     H231959   8.871   7.064   9.317
10573WAT      O31960   4.811   5.832   9.613
10573WAT     H131961   4.906   5.833   9.579
10573WAT     H231962   4.803   5.767   9.688
10574WAT      O31963   1.707   8.795   0.674
10574WAT     H131964   1.785   8.757   0.625
10574WAT     H231965   1.623   8.752   0.642
10575WAT      O31966   3.287   2.217   4.883
10575WAT     H131967   3.289   2.315   4.902
10575WAT     H231968   3.193   2.189   4.863
10576WAT      O31969   8.570   3.217   9.468
10576WAT     H131970   8.518   3.295   9.435
10576WAT     H231971   8.632   3.185   9.396
10577WAT      O31972   3.926   4.636   3.656
10577WAT     H131973   4.007   4.685   3.626
10577WAT     H231974   3.900   4.667   3.748
10578WAT      O31975   6.399   0.048   9.558
10578WAT     H131976   6.303   0.029   9.576
10578WAT     H231977   6.443   0.081   9.642
10579WAT      O31978   2.920   0.942   1.070
10579WAT     H131979   3.000   0.968   1.125
10579WAT     H231980   2.851   1.014   1.074
10580WAT      O31981   1.704   5.227   2.442
10580WAT     H131982   1.618   5.244   2.490
10580WAT     H231983   1.707   5.132   2.412
10581WAT      O31984   7.312   6.876   8.731
10581WAT     H131985   7.300   6.952   8.794
10581WAT     H231986   7.402   6.835   8.745
10582WAT      O31987   3.596   1.134   2.575
10582WAT     H131988   3.551   1.067   2.634
10582WAT     H231989   3.689   1.103   2.554
10583WAT      O31990   9.644   2.094   7.879
10583WAT     H131991   9.620   2.066   7.786
10583WAT     H231992   9.706   2.027   7.919
10584WAT      O31993   1.476   2.299   9.699
10584WAT     H131994   1.436   2.353   9.625
10584WAT     H231995   1.411   2.229   9.728
10585WAT      O31996   3.076   6.202   5.932
10585WAT     H131997   3.017   6.250   5.997
10585WAT     H231998   3.024   6.178   5.850
10586WAT      O31999   1.518   1.437   4.983
10586WAT     H132000   1.501   1.436   4.885
10586WAT     H232001   1.461   1.368   5.027
10587WAT      O32002   9.700   2.015   2.366
10587WAT     H132003   9.662   2.092   2.313
10587WAT     H232004   9.783   1.983   2.321
10588WAT      O32005   8.886   1.922   6.084
10588WAT     H132006   8.818   1.904   6.155
10588WAT     H232007   8.977   1.918   6.123
10589WAT      O32008   6.611   4.418   7.454
10589WAT     H132009   6.608   4.480   7.533
10589WAT     H232010   6.621   4.472   7.370
10590WAT      O32011   0.135   6.702   6.268
10590WAT     H132012   0.217   6.665   6.224
10590WAT     H232013   0.054   6.656   6.232
10591WAT      O32014   5.985   6.812   8.210
10591WAT     H132015   5.948   6.725   8.242
10591WAT     H232016   5.982   6.879   8.284
10592WAT      O32017   2.429   8.798   0.036
10592WAT     H132018   2.438   8.792  -0.064
10592WAT     H232019   2.483   8.875   0.070
10593WAT      O32020   5.750   1.645   3.312
10593WAT     H132021   5.823   1.595   3.358
10593WAT     H232022   5.666   1.590   3.312
10594WAT      O32023   7.995   0.329   9.285
10594WAT     H132024   7.926   0.325   9.213
10594WAT     H232025   8.026   0.237   9.306
10595WAT      O32026   8.190   3.795   8.497
10595WAT     H132027   8.236   3.840   8.574
10595WAT     H232028   8.258   3.771   8.427
10596WAT      O32029   4.815   4.506   7.775
10596WAT     H132030   4.774   4.436   7.833
10596WAT     H232031   4.811   4.477   7.679
10597WAT      O32032   0.156   5.433   6.161
10597WAT     H132033   0.221   5.416   6.088
10597WAT     H232034   0.160   5.359   6.228
10598WAT      O32035   8.749   1.120   7.537
10598WAT     H132036   8.816   1.083   7.473
10598WAT     H232037   8.780   1.106   7.630
10599WAT      O32038   3.316   2.325   0.778
10599WAT     H132039   3.403   2.298   0.819
10599WAT     H232040   3.243   2.311   0.845
10600WAT      O32041   6.981   2.316   4.424
10600WAT     H132042   7.039   2.365   4.360
10600WAT     H232043   7.033   2.296   4.507
10601WAT      O32044   9.717   5.069   8.475
10601WAT     H132045   9.761   5.098   8.560
10601WAT     H232046   9.767   4.993   8.435
10602WAT      O32047   0.939   8.857   9.866
10602WAT     H132048   1.033   8.890   9.875
10602WAT     H232049   0.926   8.817   9.775
10603WAT      O32050   5.450   8.423   5.824
10603WAT     H132051   5.549   8.419   5.808
10603WAT     H232052   5.420   8.518   5.820
10604WAT      O32053   4.262   5.041   7.203
10604WAT     H132054   4.343   5.003   7.247
10604WAT     H232055   4.180   5.013   7.254
10605WAT      O32056   0.587   5.818   1.513
10605WAT     H132057   0.488   5.833   1.508
10605WAT     H232058   0.610   5.729   1.473
10606WAT      O32059   1.407   3.566   6.364
10606WAT     H132060   1.449   3.490   6.314
10606WAT     H232061   1.409   3.648   6.307
10607WAT      O32062   8.268   1.799   3.582
10607WAT     H132063   8.353   1.794   3.529
10607WAT     H232064   8.215   1.715   3.568
10608WAT      O32065   2.858   4.688   6.835
10608WAT     H132066   2.898   4.672   6.745
10608WAT     H232067   2.883   4.613   6.897
10609WAT      O32068   7.172   6.340   2.816
10609WAT     H132069   7.231   6.266   2.784
10609WAT     H232070   7.218   6.427   2.803
10610WAT      O32071   0.549   7.712   0.637
10610WAT     H132072   0.525   7.702   0.734
10610WAT     H232073   0.606   7.793   0.625
10611WAT      O32074   0.806   2.593   0.826
10611WAT     H132075   0.750   2.585   0.744
10611WAT     H232076   0.793   2.684   0.867
10612WAT      O32077   2.918   3.573   8.501
10612WAT     H132078   2.888   3.666   8.523
10612WAT     H232079   2.895   3.512   8.577
10613WAT      O32080   7.327   3.917   4.747
10613WAT     H132081   7.283   3.930   4.658
10613WAT     H232082   7.422   3.949   4.743
10614WAT      O32083   7.051   5.586   5.375
10614WAT     H132084   7.122   5.533   5.420
10614WAT     H232085   7.079   5.682   5.370
10615WAT      O32086   2.180   2.005   2.852
10615WAT     H132087   2.254   1.939   2.842
10615WAT     H232088   2.200   2.069   2.926
10616WAT      O32089   9.803   3.233   4.584
10616WAT     H132090   9.837   3.195   4.670
10616WAT     H232091   9.803   3.162   4.513
10617WAT      O32092   0.855   2.436   2.011
10617WAT     H132093   0.909   2.518   2.026
10617WAT     H232094   0.779   2.456   1.948
10618WAT      O32095   2.151   9.158   2.233
10618WAT     H132096   2.165   9.071   2.281
10618WAT     H232097   2.207   9.229   2.276
10619WAT      O32098   1.271   7.777   1.666
10619WAT     H132099   1.368   7.755   1.660
10619WAT     H232100   1.259   7.876   1.671
10620WAT      O32101   5.737   5.818   6.156
10620WAT     H132102   5.778   5.727   6.147
10620WAT     H232103   5.667   5.830   6.085
10621WAT      O32104   3.556   2.317   6.464
10621WAT     H132105   3.582   2.221   6.459
10621WAT     H232106   3.461   2.327   6.434
10622WAT      O32107   4.757   9.702   6.255
10622WAT     H132108   4.850   9.704   6.293
10622WAT     H232109   4.723   9.608   6.258
10623WAT      O32110   3.964   9.019   7.383
10623WAT     H132111   4.025   8.980   7.452
10623WAT     H232112   4.018   9.052   7.305
10624WAT      O32113   4.041   1.864   2.898
10624WAT     H132114   3.949   1.901   2.907
10624WAT     H232115   4.068   1.821   2.984
10625WAT      O32116   9.410   3.294   8.968
10625WAT     H132117   9.327   3.243   8.943
10625WAT     H232118   9.388   3.359   9.041
10626WAT      O32119   7.821   8.947   9.088
10626WAT     H132120   7.813   9.044   9.113
10626WAT     H232121   7.846   8.939   8.992
10627WAT      O32122   0.922   0.919   3.317
10627WAT     H132123   0.929   0.887   3.411
10627WAT     H232124   0.827   0.943   3.297
10628WAT      O32125   3.328   7.596   4.921
10628WAT     H132126   3.397   7.528   4.947
10628WAT     H232127   3.303   7.650   5.001
10629WAT      O32128   8.918   6.143   3.529
10629WAT     H132129   8.819   6.139   3.524
10629WAT     H232130   8.958   6.096   3.451
10630WAT      O32131   1.153   2.354   1.219
10630WAT     H132132   1.182   2.393   1.132
10630WAT     H232133   1.193   2.406   1.294
10631WAT      O32134   1.831   5.460   5.914
10631WAT     H132135   1.801   5.365   5.904
10631WAT     H232136   1.931   5.464   5.906
10632WAT      O32137   1.336   0.263   1.358
10632WAT     H132138   1.367   0.234   1.449
10632WAT     H232139   1.413   0.256   1.294
10633WAT      O32140   6.051   0.067   2.489
10633WAT     H132141   5.952   0.058   2.504
10633WAT     H232142   6.074   0.163   2.474
10634WAT      O32143   3.708   2.398   9.237
10634WAT     H132144   3.630   2.459   9.247
10634WAT     H232145   3.792   2.452   9.232
10635WAT      O32146   9.846   2.776   5.793
10635WAT     H132147   9.939   2.812   5.791
10635WAT     H232148   9.781   2.850   5.810
10636WAT      O32149   5.378   7.749   1.245
10636WAT     H132150   5.394   7.656   1.211
10636WAT     H232151   5.466   7.793   1.262
10637WAT      O32152   9.432   4.106   0.289
10637WAT     H132153   9.435   4.149   0.379
10637WAT     H232154   9.521   4.118   0.244
10638WAT      O32155   3.091   7.731   8.944
10638WAT     H132156   3.108   7.663   9.015
10638WAT     H232157   3.040   7.689   8.869
10639WAT      O32158   2.473   1.526   0.233
10639WAT     H132159   2.557   1.575   0.252
10639WAT     H232160   2.475   1.491   0.139
10640WAT      O32161   5.360   1.018   4.130
10640WAT     H132162   5.291   0.946   4.119
10640WAT     H232163   5.368   1.069   4.044
10641WAT      O32164   1.275   3.841   9.039
10641WAT     H132165   1.198   3.880   8.988
10641WAT     H232166   1.305   3.757   8.994
10642WAT      O32167   5.156   9.756   5.942
10642WAT     H132168   5.215   9.817   5.889
10642WAT     H232169   5.211   9.686   5.987
10643WAT      O32170   0.025   0.561   0.287
10643WAT     H132171  -0.050   0.494   0.289
10643WAT     H232172   0.108   0.519   0.323
10644WAT      O32173   4.514   7.329   4.252
10644WAT     H132174   4.505   7.323   4.351
10644WAT     H232175   4.455   7.260   4.209
10645WAT      O32176   5.410   4.643   3.758
10645WAT     H132177   5.480   4.715   3.755
10645WAT     H232178   5.319   4.685   3.756
10646WAT      O32179   3.309   4.479   7.135
10646WAT     H132180   3.239   4.495   7.205
10646WAT     H232181   3.394   4.526   7.161
10647WAT      O32182   4.415   1.153   4.942
10647WAT     H132183   4.402   1.251   4.960
10647WAT     H232184   4.511   1.129   4.955
10648WAT      O32185   1.946   1.657   2.235
10648WAT     H132186   2.003   1.714   2.295
10648WAT     H232187   1.941   1.565   2.273
10649WAT      O32188   2.017   5.303   0.969
10649WAT     H132189   2.072   5.320   1.051
10649WAT     H232190   1.994   5.390   0.926
10650WAT      O32191   2.205   4.612   5.505
10650WAT     H132192   2.197   4.597   5.604
10650WAT     H232193   2.301   4.607   5.478
10651WAT      O32194   0.929   5.475   3.204
10651WAT     H132195   0.841   5.429   3.196
10651WAT     H232196   0.920   5.569   3.170
10652WAT      O32197   2.690   1.196   0.321
10652WAT     H132198   2.706   1.242   0.233
10652WAT     H232199   2.774   1.197   0.375
10653WAT      O32200   1.302   8.182   8.871
10653WAT     H132201   1.305   8.093   8.918
10653WAT     H232202   1.286   8.254   8.938
10654WAT      O32203   6.693   4.261   6.279
10654WAT     H132204   6.779   4.233   6.320
10654WAT     H232205   6.693   4.239   6.181
10655WAT      O32206   1.491   3.276   2.177
10655WAT     H132207   1.463   3.208   2.110
10655WAT     H232208   1.425   3.281   2.251
10656WAT      O32209   5.481   1.807   2.896
10656WAT     H132210   5.432   1.736   2.846
10656WAT     H232211   5.576   1.781   2.907
10657WAT      O32212   7.353   5.644   5.029
10657WAT     H132213   7.453   5.653   5.038
10657WAT     H232214   7.321   5.567   5.083
10658WAT      O32215   2.935   5.617   0.466
10658WAT     H132216   2.837   5.625   0.451
10658WAT     H232217   2.952   5.547   0.536
10659WAT      O32218   2.805   6.662   1.518
10659WAT     H132219   2.903   6.677   1.528
10659WAT     H232220   2.768   6.624   1.603
10660WAT      O32221   5.888   7.056   0.546
10660WAT     H132222   5.907   7.135   0.605
10660WAT     H232223   5.883   7.086   0.451
10661WAT      O32224   8.572   5.838   9.115
10661WAT     H132225   8.579   5.937   9.122
10661WAT     H232226   8.632   5.806   9.042
10662WAT      O32227   3.993   2.098   1.046
10662WAT     H132228   4.031   2.087   0.954
10662WAT     H232229   3.982   2.007   1.088
10663WAT      O32230   6.154   7.332   7.326
10663WAT     H132231   6.228   7.363   7.265
10663WAT     H232232   6.080   7.398   7.324
10664WAT      O32233   2.299   9.762   9.832
10664WAT     H132234   2.260   9.671   9.846
10664WAT     H232235   2.337   9.796   9.918
10665WAT      O32236   8.845   0.760   8.692
10665WAT     H132237   8.918   0.769   8.625
10665WAT     H232238   8.799   0.848   8.703
10666WAT      O32239   5.966   0.013   6.523
10666WAT     H132240   5.959  -0.008   6.425
10666WAT     H232241   6.053  -0.021   6.558
10667WAT      O32242   9.538   6.447   9.250
10667WAT     H132243   9.601   6.506   9.300
10667WAT     H232244   9.535   6.475   9.154
10668WAT      O32245   7.056   5.140   5.564
10668WAT     H132246   7.068   5.118   5.661
10668WAT     H232247   7.110   5.076   5.509
10669WAT      O32248   1.576   7.495   4.160
10669WAT     H132249   1.518   7.507   4.241
10669WAT     H232250   1.609   7.401   4.158
10670WAT      O32251   3.163   8.925   1.684
10670WAT     H132252   3.191   9.006   1.735
10670WAT     H232253   3.192   8.933   1.589
10671WAT      O32254   0.589   2.301   0.317
10671WAT     H132255   0.687   2.316   0.329
10671WAT     H232256   0.548   2.382   0.274
10672WAT      O32257   7.614   8.060   6.750
10672WAT     H132258   7.543   8.128   6.730
10672WAT     H232259   7.654   8.080   6.840
10673WAT      O32260   3.802   8.353   6.660
10673WAT     H132261   3.739   8.276   6.650
10673WAT     H232262   3.872   8.348   6.589
10674WAT      O32263   7.803   9.329   1.644
10674WAT     H132264   7.793   9.375   1.732
10674WAT     H232265   7.748   9.245   1.645
10675WAT      O32266   4.613   7.520   9.539
10675WAT     H132267   4.679   7.445   9.536
10675WAT     H232268   4.650   7.595   9.594
10676WAT      O32269   6.709   6.044   1.253
10676WAT     H132270   6.736   6.014   1.162
10676WAT     H232271   6.722   5.969   1.318
10677WAT      O32272   8.242   8.562   1.316
10677WAT     H132273   8.219   8.604   1.228
10677WAT     H232274   8.297   8.625   1.370
10678WAT      O32275   0.315   7.439   4.645
10678WAT     H132276   0.309   7.416   4.742
10678WAT     H232277   0.405   7.477   4.624
10679WAT      O32278   8.786   4.926   4.982
10679WAT     H132279   8.693   4.909   5.015
10679WAT     H232280   8.784   4.936   4.883
10680WAT      O32281   7.323   1.095   8.687
10680WAT     H132282   7.243   1.069   8.633
10680WAT     H232283   7.396   1.028   8.674
10681WAT      O32284   6.815   0.957   2.726
10681WAT     H132285   6.901   0.963   2.776
10681WAT     H232286   6.823   1.008   2.640
10682WAT      O32287   1.591   0.851   6.735
10682WAT     H132288   1.687   0.876   6.746
10682WAT     H232289   1.560   0.800   6.815
10683WAT      O32290   5.893   0.298   2.706
10683WAT     H132291   5.896   0.217   2.764
10683WAT     H232292   5.861   0.376   2.760
10684WAT      O32293   1.394   5.602   1.210
10684WAT     H132294   1.393   5.504   1.226
10684WAT     H232295   1.339   5.623   1.129
10685WAT      O32296   2.865   6.111   1.795
10685WAT     H132297   2.942   6.174   1.797
10685WAT     H232298   2.780   6.163   1.802
10686WAT      O32299   1.287   1.158   8.390
10686WAT     H132300   1.371   1.104   8.382
10686WAT     H232301   1.221   1.109   8.447
10687WAT      O32302   5.932   5.707   9.034
10687WAT     H132303   5.966   5.749   9.118
10687WAT     H232304   6.007   5.697   8.969
10688WAT      O32305   5.839   1.909   1.421
10688WAT     H132306   5.932   1.894   1.387
10688WAT     H232307   5.805   1.997   1.387
10689WAT      O32308   9.303   5.771   0.460
10689WAT     H132309   9.247   5.772   0.377
10689WAT     H232310   9.244   5.776   0.540
10690WAT      O32311   8.658   6.589   0.606
10690WAT     H132312   8.667   6.645   0.689
10690WAT     H232313   8.683   6.495   0.627
10691WAT      O32314   8.742   8.412   3.489
10691WAT     H132315   8.653   8.405   3.532
10691WAT     H232316   8.796   8.484   3.534
10692WAT      O32317   9.748   0.611   0.006
10692WAT     H132318   9.701   0.607   0.095
10692WAT     H232319   9.802   0.695   0.001
10693WAT      O32320   1.088   2.211   1.677
10693WAT     H132321   1.040   2.201   1.764
10693WAT     H232322   1.183   2.239   1.694
10694WAT      O32323   1.463   3.500   9.260
10694WAT     H132324   1.501   3.541   9.177
10694WAT     H232325   1.410   3.419   9.236
10695WAT      O32326   2.168   7.607   5.004
10695WAT     H132327   2.221   7.691   5.020
10695WAT     H232328   2.071   7.630   5.002
10696WAT      O32329   1.289   7.160   1.030
10696WAT     H132330   1.217   7.225   1.008
10696WAT     H232331   1.343   7.195   1.106
10697WAT      O32332   1.782   4.420   8.241
10697WAT     H132333   1.797   4.518   8.256
10697WAT     H232334   1.696   4.407   8.191
10698WAT      O32335   4.502   0.931   0.215
10698WAT     H132336   4.434   0.860   0.233
10698WAT     H232337   4.479   0.979   0.131
10699WAT      O32338   3.026   4.533   7.985
10699WAT     H132339   2.972   4.528   8.069
10699WAT     H232340   3.044   4.440   7.951
10700WAT      O32341   7.080   1.731   3.735
10700WAT     H132342   7.001   1.676   3.762
10700WAT     H232343   7.163   1.676   3.742
10701WAT      O32344   3.201   1.519   7.371
10701WAT     H132345   3.164   1.524   7.464
10701WAT     H232346   3.202   1.424   7.341
10702WAT      O32347   8.650   2.596   3.231
10702WAT     H132348   8.604   2.664   3.288
10702WAT     H232349   8.737   2.571   3.273
10703WAT      O32350   6.979   8.290   2.343
10703WAT     H132351   6.969   8.220   2.414
10703WAT     H232352   6.969   8.381   2.384
10704WAT      O32353   6.051   3.523   9.612
10704WAT     H132354   6.077   3.434   9.649
10704WAT     H232355   5.994   3.571   9.679
10705WAT      O32356   8.841   2.440   4.463
10705WAT     H132357   8.907   2.511   4.485
10705WAT     H232358   8.857   2.360   4.521
10706WAT      O32359   7.161   6.420   6.831
10706WAT     H132360   7.146   6.354   6.757
10706WAT     H232361   7.206   6.375   6.907
10707WAT      O32362   7.669   8.347   8.691
10707WAT     H132363   7.750   8.335   8.634
10707WAT     H232364   7.646   8.260   8.735
10708WAT      O32365   7.849   2.930   9.549
10708WAT     H132366   7.807   2.915   9.459
10708WAT     H232367   7.779   2.929   9.620
10709WAT      O32368   6.636   2.734   7.518
10709WAT     H132369   6.671   2.644   7.545
10709WAT     H232370   6.606   2.784   7.599
10710WAT      O32371   3.144   0.892   8.664
10710WAT     H132372   3.193   0.901   8.750
10710WAT     H232373   3.182   0.956   8.597
10711WAT      O32374   3.193   4.445   0.834
10711WAT     H132375   3.270   4.509   0.836
10711WAT     H232376   3.108   4.493   0.854
10712WAT      O32377   2.014   1.183   5.721
10712WAT     H132378   1.928   1.234   5.725
10712WAT     H232379   2.082   1.229   5.778
10713WAT      O32380   1.679   2.087   1.824
10713WAT     H132381   1.595   2.095   1.769
10713WAT     H232382   1.659   2.114   1.918
10714WAT      O32383   0.892   0.483   5.335
10714WAT     H132384   0.970   0.542   5.318
10714WAT     H232385   0.901   0.399   5.282
10715WAT      O32386   5.943   9.808   5.070
10715WAT     H132387   6.030   9.781   5.029
10715WAT     H232388   5.901   9.728   5.114
10716WAT      O32389   4.380   2.653   8.517
10716WAT     H132390   4.290   2.609   8.513
10716WAT     H232391   4.400   2.696   8.430
10717WAT      O32392   3.948   6.524   8.605
10717WAT     H132393   3.947   6.427   8.627
10717WAT     H232394   3.860   6.565   8.628
10718WAT      O32395   9.615   2.900   2.149
10718WAT     H132396   9.654   2.910   2.241
10718WAT     H232397   9.663   2.960   2.086
10719WAT      O32398   5.048   4.379   0.608
10719WAT     H132399   4.993   4.404   0.529
10719WAT     H232400   4.988   4.362   0.687
10720WAT      O32401   6.761   9.236   3.094
10720WAT     H132402   6.665   9.222   3.070
10720WAT     H232403   6.802   9.299   3.028
10721WAT      O32404   2.415   3.807   8.370
10721WAT     H132405   2.427   3.708   8.362
10721WAT     H232406   2.322   3.827   8.400
10722WAT      O32407   4.693   6.220   6.484
10722WAT     H132408   4.609   6.215   6.429
10722WAT     H232409   4.773   6.209   6.424
10723WAT      O32410   2.804   9.613   0.992
10723WAT     H132411   2.890   9.583   1.034
10723WAT     H232412   2.824   9.680   0.921
10724WAT      O32413   7.814   2.673   7.488
10724WAT     H132414   7.833   2.766   7.520
10724WAT     H232415   7.893   2.637   7.440
10725WAT      O32416   8.642   8.103   2.565
10725WAT     H132417   8.602   8.194   2.558
10725WAT     H232418   8.582   8.044   2.619
10726WAT      O32419   6.305   2.696   8.838
10726WAT     H132420   6.370   2.621   8.823
10726WAT     H232421   6.351   2.783   8.822
10727WAT      O32422   0.978   5.047   2.125
10727WAT     H132423   1.037   5.117   2.085
10727WAT     H232424   0.882   5.071   2.110
10728WAT      O32425   4.081   3.765   8.466
10728WAT     H132426   4.095   3.808   8.554
10728WAT     H232427   4.158   3.705   8.445
10729WAT      O32428   6.000   7.882   3.597
10729WAT     H132429   6.080   7.907   3.544
10729WAT     H232430   5.948   7.964   3.621
10730WAT      O32431   6.113   7.227   3.096
10730WAT     H132432   6.207   7.248   3.126
10730WAT     H232433   6.070   7.166   3.161
10731WAT      O32434   4.986   1.095   0.515
10731WAT     H132435   5.086   1.087   0.506
10731WAT     H232436   4.948   1.005   0.536
10732WAT      O32437   5.862   6.914   3.099
10732WAT     H132438   5.934   6.969   3.141
10732WAT     H232439   5.812   6.968   3.032
10733WAT      O32440   7.822   0.104   1.323
10733WAT     H132441   7.867   0.044   1.390
10733WAT     H232442   7.860   0.086   1.232
10734WAT      O32443   3.939   3.903   6.339
10734WAT     H132444   3.923   3.910   6.240
10734WAT     H232445   3.858   3.935   6.388
10735WAT      O32446   8.722   3.969   0.290
10735WAT     H132447   8.674   4.026   0.356
10735WAT     H232448   8.674   3.973   0.202
10736WAT      O32449   4.225   0.008   7.474
10736WAT     H132450   4.290   0.078   7.506
10736WAT     H232451   4.203   0.025   7.378
10737WAT      O32452   7.922   2.243   4.232
10737WAT     H132453   7.986   2.277   4.163
10737WAT     H232454   7.971   2.227   4.317
10738WAT      O32455   6.809   5.145   4.983
10738WAT     H132456   6.720   5.163   5.024
10738WAT     H232457   6.881   5.185   5.039
10739WAT      O32458   6.943   5.612   0.411
10739WAT     H132459   7.013   5.659   0.465
10739WAT     H232460   6.909   5.674   0.340
10740WAT      O32461   8.602   4.708   2.307
10740WAT     H132462   8.600   4.672   2.214
10740WAT     H232463   8.652   4.645   2.367
10741WAT      O32464   6.449   3.103   8.164
10741WAT     H132465   6.372   3.098   8.228
10741WAT     H232466   6.420   3.066   8.076
10742WAT      O32467   2.787   3.880   3.612
10742WAT     H132468   2.723   3.918   3.545
10742WAT     H232469   2.876   3.926   3.603
10743WAT      O32470   4.344   2.780   4.347
10743WAT     H132471   4.337   2.844   4.271
10743WAT     H232472   4.422   2.804   4.405
10744WAT      O32473   4.233   7.713   0.007
10744WAT     H132474   4.163   7.751   0.067
10744WAT     H232475   4.265   7.626   0.044
10745WAT      O32476   3.771   0.477   8.609
10745WAT     H132477   3.690   0.422   8.589
10745WAT     H232478   3.751   0.540   8.684
10746WAT      O32479   9.055   3.352   8.555
10746WAT     H132480   8.972   3.310   8.592
10746WAT     H232481   9.117   3.375   8.630
10747WAT      O32482   8.762   3.512   9.276
10747WAT     H132483   8.708   3.594   9.254
10747WAT     H232484   8.709   3.431   9.250
10748WAT      O32485   6.345   1.244   9.707
10748WAT     H132486   6.421   1.305   9.730
10748WAT     H232487   6.286   1.288   9.639
10749WAT      O32488   9.264   0.329   0.981
10749WAT     H132489   9.327   0.252   0.980
10749WAT     H232490   9.308   0.407   1.025
10750WAT      O32491   3.197   8.362   5.738
10750WAT     H132492   3.246   8.447   5.719
10750WAT     H232493   3.113   8.360   5.684
10751WAT      O32494   3.703   5.702   4.680
10751WAT     H132495   3.622   5.709   4.738
10751WAT     H232496   3.752   5.617   4.701
10752WAT      O32497   2.364   9.062   6.091
10752WAT     H132498   2.366   9.122   6.012
10752WAT     H232499   2.298   9.096   6.158
10753WAT      O32500   0.696   4.287   4.202
10753WAT     H132501   0.756   4.306   4.280
10753WAT     H232502   0.622   4.354   4.200
10754WAT      O32503   4.002   5.805   9.319
10754WAT     H132504   3.984   5.709   9.297
10754WAT     H232505   4.098   5.825   9.299
10755WAT      O32506   6.031   5.036   3.791
10755WAT     H132507   5.944   5.046   3.840
10755WAT     H232508   6.050   5.120   3.740
10756WAT      O32509   3.304   8.422   0.797
10756WAT     H132510   3.357   8.384   0.872
10756WAT     H232511   3.259   8.348   0.747
10757WAT      O32512   8.951   9.773   1.070
10757WAT     H132513   8.909   9.847   1.017
10757WAT     H232514   8.886   9.737   1.137
10758WAT      O32515   6.865   9.524   4.197
10758WAT     H132516   6.919   9.607   4.216
10758WAT     H232517   6.803   9.542   4.121
10759WAT      O32518   6.916   8.416   6.357
10759WAT     H132519   6.916   8.476   6.277
10759WAT     H232520   6.835   8.358   6.356
10760WAT      O32521   4.395   1.327   8.920
10760WAT     H132522   4.422   1.423   8.916
10760WAT     H232523   4.309   1.319   8.972
10761WAT      O32524   3.175   5.006   4.357
10761WAT     H132525   3.105   5.022   4.427
10761WAT     H232526   3.240   5.082   4.357
10762WAT      O32527   2.989   5.494   7.857
10762WAT     H132528   2.967   5.437   7.777
10762WAT     H232529   2.918   5.483   7.926
10763WAT      O32530   9.840   0.240   2.482
10763WAT     H132531   9.841   0.142   2.504
10763WAT     H232532   9.783   0.288   2.549
10764WAT      O32533   1.514   3.541   7.835
10764WAT     H132534   1.475   3.587   7.914
10764WAT     H232535   1.613   3.536   7.845
10765WAT      O32536   1.590   4.634   2.990
10765WAT     H132537   1.614   4.613   3.084
10765WAT     H232538   1.645   4.711   2.957
10766WAT      O32539   3.641   5.442   5.538
10766WAT     H132540   3.709   5.428   5.609
10766WAT     H232541   3.687   5.453   5.450
10767WAT      O32542   7.758   3.582   8.128
10767WAT     H132543   7.815   3.579   8.209
10767WAT     H232544   7.811   3.552   8.049
10768WAT      O32545   1.434   1.405   3.304
10768WAT     H132546   1.521   1.415   3.256
10768WAT     H232547   1.402   1.495   3.335
10769WAT      O32548   8.550   3.273   1.387
10769WAT     H132549   8.523   3.227   1.303
10769WAT     H232550   8.522   3.218   1.466
10770WAT      O32551   3.898   1.316   1.884
10770WAT     H132552   3.945   1.335   1.970
10770WAT     H232553   3.931   1.380   1.814
10771WAT      O32554   2.080   3.218   2.261
10771WAT     H132555   2.013   3.151   2.229
10771WAT     H232556   2.150   3.232   2.191
10772WAT      O32557   3.248   8.250   8.985
10772WAT     H132558   3.209   8.204   9.065
10772WAT     H232559   3.334   8.294   9.011
10773WAT      O32560   1.433   6.903   9.886
10773WAT     H132561   1.403   6.985   9.934
10773WAT     H232562   1.491   6.928   9.809
10774WAT      O32563   5.578   3.881   7.981
10774WAT     H132564   5.557   3.921   7.892
10774WAT     H232565   5.516   3.804   7.998
10775WAT      O32566   0.822   4.078   5.278
10775WAT     H132567   0.746   4.035   5.229
10775WAT     H232568   0.887   4.009   5.306
10776WAT      O32569   3.646   4.083   4.043
10776WAT     H132570   3.638   4.120   4.136
10776WAT     H232571   3.596   3.997   4.037
10777WAT      O32572   2.849   4.641   7.520
10777WAT     H132573   2.837   4.733   7.482
10777WAT     H232574   2.833   4.573   7.449
10778WAT      O32575   1.078   6.644   8.543
10778WAT     H132576   1.006   6.604   8.486
10778WAT     H232577   1.045   6.652   8.637
10779WAT      O32578   9.071   2.738   3.251
10779WAT     H132579   9.151   2.679   3.241
10779WAT     H232580   9.093   2.812   3.315
10780WAT      O32581   3.631   6.597   0.990
10780WAT     H132582   3.542   6.640   1.002
10780WAT     H232583   3.701   6.651   1.037
10781WAT      O32584   4.337   1.224   9.621
10781WAT     H132585   4.243   1.193   9.609
10781WAT     H232586   4.337   1.314   9.664
10782WAT      O32587   4.232   3.665   3.082
10782WAT     H132588   4.311   3.674   3.022
10782WAT     H232589   4.185   3.578   3.063
10783WAT      O32590   2.400   4.002   9.041
10783WAT     H132591   2.496   3.974   9.034
10783WAT     H232592   2.342   3.930   9.003
10784WAT      O32593   1.489   5.472   5.723
10784WAT     H132594   1.477   5.374   5.742
10784WAT     H232595   1.437   5.525   5.789
10785WAT      O32596   3.157   2.219   8.226
10785WAT     H132597   3.241   2.264   8.197
10785WAT     H232598   3.080   2.281   8.217
10786WAT      O32599   1.050   4.467   9.683
10786WAT     H132600   1.131   4.408   9.680
10786WAT     H232601   1.036   4.509   9.593
10787WAT      O32602   3.357   7.109   1.483
10787WAT     H132603   3.391   7.202   1.469
10787WAT     H232604   3.433   7.044   1.471
10788WAT      O32605   4.729   0.225   4.759
10788WAT     H132606   4.713   0.156   4.688
10788WAT     H232607   4.827   0.242   4.767
10789WAT      O32608   9.768   0.385   1.961
10789WAT     H132609   9.814   0.467   1.929
10789WAT     H232610   9.834   0.322   2.002
10790WAT      O32611   7.973   6.359   1.010
10790WAT     H132612   7.970   6.260   1.023
10790WAT     H232613   7.906   6.403   1.069
10791WAT      O32614   6.892   0.272   6.574
10791WAT     H132615   6.934   0.273   6.484
10791WAT     H232616   6.859   0.180   6.595
10792WAT      O32617   1.348   6.333   3.394
10792WAT     H132618   1.354   6.263   3.465
10792WAT     H232619   1.418   6.316   3.325
10793WAT      O32620   6.815   7.794   0.931
10793WAT     H132621   6.768   7.833   0.851
10793WAT     H232622   6.773   7.706   0.954
10794WAT      O32623   4.459   2.308   7.879
10794WAT     H132624   4.427   2.214   7.889
10794WAT     H232625   4.399   2.358   7.816
10795WAT      O32626   9.801   2.506   6.516
10795WAT     H132627   9.891   2.535   6.484
10795WAT     H232628   9.806   2.412   6.550
10796WAT      O32629   9.736   3.574   9.699
10796WAT     H132630   9.697   3.582   9.791
10796WAT     H232631   9.724   3.660   9.650
10797WAT      O32632   2.246   5.050   1.603
10797WAT     H132633   2.179   5.038   1.530
10797WAT     H232634   2.206   5.024   1.691
10798WAT      O32635   5.586   0.856   7.521
10798WAT     H132636   5.594   0.923   7.447
10798WAT     H232637   5.633   0.891   7.603
10799WAT      O32638   0.696   7.114   8.385
10799WAT     H132639   0.698   7.021   8.423
10799WAT     H232640   0.757   7.173   8.437
10800WAT      O32641   5.941   0.393   0.797
10800WAT     H132642   5.995   0.359   0.873
10800WAT     H232643   5.929   0.321   0.729
10801WAT      O32644   7.868   5.563   9.205
10801WAT     H132645   7.957   5.560   9.251
10801WAT     H232646   7.857   5.651   9.160
10802WAT      O32647   4.351   1.124   3.890
10802WAT     H132648   4.450   1.129   3.906
10802WAT     H232649   4.315   1.215   3.871
10803WAT      O32650   6.788   2.808   1.992
10803WAT     H132651   6.884   2.798   2.015
10803WAT     H232652   6.735   2.829   2.074
10804WAT      O32653   3.611   3.920   2.052
10804WAT     H132654   3.676   3.874   2.113
10804WAT     H232655   3.593   3.863   1.973
10805WAT      O32656   3.240   6.662   4.017
10805WAT     H132657   3.194   6.746   3.989
10805WAT     H232658   3.185   6.615   4.086
10806WAT      O32659   6.673   6.105   9.891
10806WAT     H132660   6.709   6.011   9.888
10806WAT     H232661   6.577   6.103   9.917
10807WAT      O32662   7.757   2.291   9.818
10807WAT     H132663   7.799   2.341   9.742
10807WAT     H232664   7.820   2.288   9.895
10808WAT      O32665   5.193   7.510   1.661
10808WAT     H132666   5.263   7.580   1.669
10808WAT     H232667   5.120   7.527   1.727
10809WAT      O32668   2.407   7.107   9.088
10809WAT     H132669   2.437   7.165   9.164
10809WAT     H232670   2.319   7.139   9.054
10810WAT      O32671   0.543   4.312   6.171
10810WAT     H132672   0.499   4.230   6.207
10810WAT     H232673   0.641   4.297   6.164
10811WAT      O32674   4.692   4.087   6.174
10811WAT     H132675   4.689   4.182   6.143
10811WAT     H232676   4.787   4.062   6.196
10812WAT      O32677   0.910   0.494   9.843
10812WAT     H132678   0.911   0.436   9.925
10812WAT     H232679   0.982   0.563   9.851
10813WAT      O32680   1.389   3.317   7.142
10813WAT     H132681   1.474   3.333   7.092
10813WAT     H232682   1.385   3.377   7.222
10814WAT      O32683   0.167   6.242   9.802
10814WAT     H132684   0.126   6.163   9.757
10814WAT     H232685   0.109   6.322   9.788
10815WAT      O32686   2.044   0.923   9.772
10815WAT     H132687   2.101   0.846   9.742
10815WAT     H232688   1.965   0.889   9.822
10816WAT      O32689   2.470   5.014   2.679
10816WAT     H132690   2.385   4.970   2.707
10816WAT     H232691   2.546   4.977   2.734
10817WAT      O32692   6.863   1.745   3.452
10817WAT     H132693   6.889   1.678   3.382
10817WAT     H232694   6.863   1.700   3.541
10818WAT      O32695   8.340   1.615   9.165
10818WAT     H132696   8.312   1.520   9.149
10818WAT     H232697   8.259   1.674   9.163
10819WAT      O32698   5.898   9.681   7.795
10819WAT     H132699   5.924   9.777   7.787
10819WAT     H232700   5.810   9.666   7.749
10820WAT      O32701   5.065   8.402   1.569
10820WAT     H132702   5.152   8.450   1.579
10820WAT     H232703   5.041   8.357   1.656
10821WAT      O32704   1.304   6.032   2.574
10821WAT     H132705   1.206   6.039   2.560
10821WAT     H232706   1.330   6.080   2.657
10822WAT      O32707   7.389   7.665   0.210
10822WAT     H132708   7.306   7.636   0.259
10822WAT     H232709   7.467   7.611   0.241
10823WAT      O32710   3.493   7.706   5.909
10823WAT     H132711   3.505   7.779   5.842
10823WAT     H232712   3.413   7.725   5.967
10824WAT      O32713   8.915   4.896   7.534
10824WAT     H132714   9.014   4.905   7.530
10824WAT     H232715   8.877   4.902   7.441
10825WAT      O32716   0.919   0.088   9.223
10825WAT     H132717   0.954   0.087   9.316
10825WAT     H232718   0.842   0.024   9.216
10826WAT      O32719   0.459   6.176   3.310
10826WAT     H132720   0.359   6.184   3.313
10826WAT     H232721   0.500   6.267   3.302
10827WAT      O32722   7.348   8.166   7.871
10827WAT     H132723   7.277   8.159   7.802
10827WAT     H232724   7.400   8.081   7.875
10828WAT      O32725   7.778   9.614   2.574
10828WAT     H132726   7.872   9.596   2.546
10828WAT     H232727   7.720   9.537   2.546
10829WAT      O32728   3.653   2.451   7.483
10829WAT     H132729   3.626   2.458   7.579
10829WAT     H232730   3.666   2.542   7.445
10830WAT      O32731   0.965   4.038   5.620
10830WAT     H132732   0.919   4.053   5.708
10830WAT     H232733   0.986   4.126   5.578
10831WAT      O32734   7.294   6.653   1.098
10831WAT     H132735   7.330   6.743   1.121
10831WAT     H232736   7.261   6.654   1.003
10832WAT      O32737   4.730   7.570   3.555
10832WAT     H132738   4.829   7.561   3.561
10832WAT     H232739   4.703   7.665   3.568
10833WAT      O32740   9.382   2.384   7.921
10833WAT     H132741   9.324   2.457   7.955
10833WAT     H232742   9.358   2.298   7.966
10834WAT      O32743   3.998   8.089   7.952
10834WAT     H132744   3.909   8.077   7.909
10834WAT     H232745   4.016   8.187   7.963
10835WAT      O32746   1.849   3.301   7.955
10835WAT     H132747   1.868   3.376   8.017
10835WAT     H232748   1.910   3.307   7.875
10836WAT      O32749   7.266   6.900   5.350
10836WAT     H132750   7.296   6.805   5.349
10836WAT     H232751   7.300   6.946   5.268
10837WAT      O32752   0.172   5.878   9.313
10837WAT     H132753   0.214   5.965   9.339
10837WAT     H232754   0.132   5.835   9.394
10838WAT      O32755   0.575   8.030   0.314
10838WAT     H132756   0.628   8.112   0.295
10838WAT     H232757   0.614   7.982   0.393
10839WAT      O32758   1.750   3.771   0.214
10839WAT     H132759   1.653   3.773   0.237
10839WAT     H232760   1.766   3.825   0.130
10840WAT      O32761   4.183   9.762   3.127
10840WAT     H132762   4.219   9.823   3.197
10840WAT     H232763   4.083   9.772   3.122
10841WAT      O32764   8.313   7.045   5.911
10841WAT     H132765   8.346   7.057   5.817
10841WAT     H232766   8.316   6.948   5.935
10842WAT      O32767   2.762   5.651   1.463
10842WAT     H132768   2.690   5.721   1.457
10842WAT     H232769   2.749   5.584   1.390
10843WAT      O32770   7.455   8.654   4.656
10843WAT     H132771   7.413   8.690   4.573
10843WAT     H232772   7.430   8.557   4.666
10844WAT      O32773   3.975   1.650   1.928
10844WAT     H132774   4.065   1.663   1.970
10844WAT     H232775   3.984   1.594   1.845
10845WAT      O32776   1.442   9.222   4.270
10845WAT     H132777   1.432   9.123   4.272
10845WAT     H232778   1.527   9.245   4.223
10846WAT      O32779   9.130   4.582   5.598
10846WAT     H132780   9.136   4.527   5.681
10846WAT     H232781   9.053   4.551   5.542
10847WAT      O32782   9.465   8.194   5.935
10847WAT     H132783   9.432   8.170   5.843
10847WAT     H232784   9.538   8.261   5.927
10848WAT      O32785   6.778   7.714   8.475
10848WAT     H132786   6.828   7.712   8.388
10848WAT     H232787   6.699   7.652   8.470
10849WAT      O32788   4.477   3.515   9.595
10849WAT     H132789   4.442   3.456   9.669
10849WAT     H232790   4.529   3.590   9.635
10850WAT      O32791   3.325   9.766   7.561
10850WAT     H132792   3.378   9.797   7.482
10850WAT     H232793   3.229   9.789   7.548
10851WAT      O32794   9.123   9.069   1.140
10851WAT     H132795   9.133   9.132   1.063
10851WAT     H232796   9.047   9.099   1.198
10852WAT      O32797   8.791   4.682   2.664
10852WAT     H132798   8.830   4.747   2.729
10852WAT     H232799   8.696   4.664   2.688
10853WAT      O32800   1.455   2.419   2.237
10853WAT     H132801   1.509   2.358   2.295
10853WAT     H232802   1.392   2.365   2.182
10854WAT      O32803   6.458   6.686   0.665
10854WAT     H132804   6.532   6.753   0.661
10854WAT     H232805   6.412   6.681   0.576
10855WAT      O32806   9.802   8.885   0.776
10855WAT     H132807   9.880   8.947   0.776
10855WAT     H232808   9.828   8.798   0.735
10856WAT      O32809   6.569   2.280   2.875
10856WAT     H132810   6.544   2.212   2.944
10856WAT     H232811   6.594   2.234   2.790
10857WAT      O32812   6.137   6.298   7.235
10857WAT     H132813   6.099   6.361   7.303
10857WAT     H232814   6.237   6.297   7.243
10858WAT      O32815   8.125   3.108   6.000
10858WAT     H132816   8.185   3.036   6.034
10858WAT     H232817   8.029   3.084   6.018
10859WAT      O32818   1.737   7.104   0.868
10859WAT     H132819   1.704   7.196   0.845
10859WAT     H232820   1.836   7.099   0.850
10860WAT      O32821   8.430   8.052   4.270
10860WAT     H132822   8.512   8.009   4.233
10860WAT     H232823   8.412   8.017   4.362
10861WAT      O32824   9.604   1.483   2.339
10861WAT     H132825   9.583   1.437   2.253
10861WAT     H232826   9.689   1.445   2.377
10862WAT      O32827   6.978   8.351   9.184
10862WAT     H132828   6.897   8.294   9.200
10862WAT     H232829   7.034   8.311   9.112
10863WAT      O32830   1.889   4.303   0.951
10863WAT     H132831   1.960   4.249   0.907
10863WAT     H232832   1.805   4.298   0.898
10864WAT      O32833   0.709   4.595   1.359
10864WAT     H132834   0.719   4.510   1.411
10864WAT     H232835   0.614   4.605   1.330
10865WAT      O32836   1.074   9.230   7.301
10865WAT     H132837   1.053   9.322   7.268
10865WAT     H232838   1.096   9.233   7.398
10866WAT      O32839   4.457   3.995   9.547
10866WAT     H132840   4.472   3.967   9.641
10866WAT     H232841   4.360   3.986   9.525
10867WAT      O32842   0.166   7.325   2.072
10867WAT     H132843   0.167   7.306   2.170
10867WAT     H232844   0.072   7.328   2.039
10868WAT      O32845   7.578   4.825   4.600
10868WAT     H132846   7.641   4.895   4.568
10868WAT     H232847   7.629   4.742   4.622
10869WAT      O32848   9.787   8.383   5.286
10869WAT     H132849   9.784   8.288   5.317
10869WAT     H232850   9.798   8.386   5.187
10870WAT      O32851   0.565   9.153   8.671
10870WAT     H132852   0.624   9.109   8.604
10870WAT     H232853   0.588   9.121   8.763
10871WAT      O32854   2.948   8.771   7.594
10871WAT     H132855   3.037   8.810   7.570
10871WAT     H232856   2.898   8.746   7.511
10872WAT      O32857   1.438   4.957   1.241
10872WAT     H132858   1.364   5.018   1.215
10872WAT     H232859   1.479   4.917   1.158
10873WAT      O32860   9.622   9.124   9.492
10873WAT     H132861   9.527   9.117   9.522
10873WAT     H232862   9.626   9.178   9.408
10874WAT      O32863   5.213   5.256   3.633
10874WAT     H132864   5.186   5.277   3.727
10874WAT     H232865   5.136   5.215   3.584
10875WAT      O32866   2.533   8.649   4.209
10875WAT     H132867   2.593   8.725   4.187
10875WAT     H232868   2.484   8.669   4.294
10876WAT      O32869   1.826   4.094   3.916
10876WAT     H132870   1.862   4.002   3.930
10876WAT     H232871   1.896   4.161   3.943
10877WAT      O32872   2.392   9.721   5.677
10877WAT     H132873   2.307   9.760   5.643
10877WAT     H232874   2.470   9.775   5.644
10878WAT      O32875   2.918   0.689   4.319
10878WAT     H132876   3.007   0.645   4.312
10878WAT     H232877   2.925   0.784   4.289
10879WAT      O32878   7.067   5.611   5.976
10879WAT     H132879   6.992   5.677   5.976
10879WAT     H232880   7.151   5.655   6.007
10880WAT      O32881   6.869   3.223   5.716
10880WAT     H132882   6.827   3.173   5.640
10880WAT     H232883   6.839   3.183   5.803
10881WAT      O32884   0.595   1.017   4.535
10881WAT     H132885   0.544   0.972   4.463
10881WAT     H232886   0.533   1.047   4.607
10882WAT      O32887   3.914   2.285   0.468
10882WAT     H132888   3.852   2.217   0.507
10882WAT     H232889   3.871   2.375   0.471
10883WAT      O32890   8.196   5.114   2.599
10883WAT     H132891   8.247   5.090   2.517
10883WAT     H232892   8.109   5.064   2.601
10884WAT      O32893   3.772   2.286   7.045
10884WAT     H132894   3.699   2.347   7.076
10884WAT     H232895   3.746   2.191   7.062
10885WAT      O32896   6.059   1.402   0.849
10885WAT     H132897   6.141   1.368   0.895
10885WAT     H232898   6.070   1.395   0.750
10886WAT      O32899   5.815   3.857   2.073
10886WAT     H132900   5.836   3.929   2.007
10886WAT     H232901   5.819   3.894   2.166
10887WAT      O32902   4.394   4.747   1.411
10887WAT     H132903   4.441   4.782   1.329
10887WAT     H232904   4.442   4.665   1.443
10888WAT      O32905   9.382   9.384   1.414
10888WAT     H132906   9.350   9.295   1.447
10888WAT     H232907   9.361   9.393   1.317
10889WAT      O32908   0.713   6.428   4.691
10889WAT     H132909   0.657   6.511   4.686
10889WAT     H232910   0.742   6.401   4.599
10890WAT      O32911   6.287   3.298   6.281
10890WAT     H132912   6.254   3.210   6.245
10890WAT     H232913   6.381   3.313   6.249
10891WAT      O32914   8.198   5.781   5.322
10891WAT     H132915   8.175   5.753   5.415
10891WAT     H232916   8.224   5.878   5.322
10892WAT      O32917   3.276   9.587   9.598
10892WAT     H132918   3.242   9.669   9.645
10892WAT     H232919   3.213   9.562   9.525
10893WAT      O32920   9.420   9.763   8.671
10893WAT     H132921   9.515   9.757   8.639
10893WAT     H232922   9.374   9.839   8.625
10894WAT      O32923   6.481   9.206   3.061
10894WAT     H132924   6.406   9.224   3.124
10894WAT     H232925   6.466   9.257   2.976
10895WAT      O32926   4.549   4.350   5.081
10895WAT     H132927   4.606   4.296   5.019
10895WAT     H232928   4.541   4.443   5.046
10896WAT      O32929   8.074   9.354   5.718
10896WAT     H132930   8.066   9.394   5.809
10896WAT     H232931   7.999   9.386   5.661
10897WAT      O32932   7.755   4.701   5.683
10897WAT     H132933   7.817   4.760   5.631
10897WAT     H232934   7.779   4.704   5.780
10898WAT      O32935   1.989   2.302   0.886
10898WAT     H132936   1.925   2.244   0.835
10898WAT     H232937   2.075   2.253   0.899
10899WAT      O32938   1.219   2.941   3.268
10899WAT     H132939   1.133   2.938   3.318
10899WAT     H232940   1.251   3.036   3.263
10900WAT      O32941   2.455   2.702   0.405
10900WAT     H132942   2.532   2.649   0.370
10900WAT     H232943   2.410   2.651   0.478
10901WAT      O32944   5.934   9.241   8.353
10901WAT     H132945   5.887   9.158   8.384
10901WAT     H232946   5.881   9.283   8.279
10902WAT      O32947   8.836   6.776   7.840
10902WAT     H132948   8.743   6.739   7.842
10902WAT     H232949   8.901   6.700   7.848
10903WAT      O32950   0.263   3.465   4.574
10903WAT     H132951   0.171   3.461   4.614
10903WAT     H232952   0.314   3.540   4.614
10904WAT      O32953   7.694   7.310   7.205
10904WAT     H132954   7.654   7.304   7.113
10904WAT     H232955   7.679   7.225   7.254
10905WAT      O32956   5.960   1.375   8.011
10905WAT     H132957   5.959   1.464   8.057
10905WAT     H232958   5.901   1.311   8.062
10906WAT      O32959   3.464   9.340   5.224
10906WAT     H132960   3.491   9.429   5.186
10906WAT     H232961   3.506   9.328   5.314
10907WAT      O32962   2.105   4.481   6.524
10907WAT     H132963   2.156   4.514   6.604
10907WAT     H232964   2.009   4.510   6.532
10908WAT      O32965   5.526   6.339   6.468
10908WAT     H132966   5.593   6.297   6.529
10908WAT     H232967   5.534   6.299   6.377
10909WAT      O32968   7.884   7.912   3.746
10909WAT     H132969   7.796   7.898   3.791
10909WAT     H232970   7.958   7.890   3.810
10910WAT      O32971   2.372   7.953   8.544
10910WAT     H132972   2.408   7.937   8.452
10910WAT     H232973   2.363   7.865   8.591
10911WAT      O32974   5.392   6.982   8.398
10911WAT     H132975   5.388   7.058   8.334
10911WAT     H232976   5.303   6.937   8.401
10912WAT      O32977   0.596   9.708   4.383
10912WAT     H132978   0.516   9.651   4.403
10912WAT     H232979   0.653   9.662   4.315
10913WAT      O32980   0.715   7.038   9.864
10913WAT     H132981   0.747   7.098   9.791
10913WAT     H232982   0.615   7.034   9.863
10914WAT      O32983   6.080   6.412   8.518
10914WAT     H132984   6.071   6.461   8.605
10914WAT     H232985   6.168   6.435   8.476
10915WAT      O32986   3.125   8.421   2.619
10915WAT     H132987   3.101   8.326   2.600
10915WAT     H232988   3.142   8.470   2.533
10916WAT      O32989   0.424   2.447   2.676
10916WAT     H132990   0.459   2.353   2.670
10916WAT     H232991   0.382   2.473   2.590
10917WAT      O32992   6.762   2.535   1.717
10917WAT     H132993   6.782   2.572   1.627
10917WAT     H232994   6.821   2.579   1.785
10918WAT      O32995   1.815   8.180   6.461
10918WAT     H132996   1.908   8.209   6.438
10918WAT     H232997   1.761   8.260   6.488
10919WAT      O32998   5.782   7.058   4.181
10919WAT     H132999   5.801   6.960   4.185
10919WAT     H233000   5.684   7.073   4.193
10920WAT      O33001   3.302   4.357   8.101
10920WAT     H133002   3.335   4.378   8.193
10920WAT     H233003   3.376   4.371   8.035
10921WAT      O33004   9.662   1.700   0.864
10921WAT     H133005   9.584   1.656   0.909
10921WAT     H233006   9.741   1.638   0.865
10922WAT      O33007   4.464   7.593   8.321
10922WAT     H133008   4.417   7.646   8.392
10922WAT     H233009   4.424   7.501   8.316
10923WAT      O33010   8.781   7.113   4.222
10923WAT     H133011   8.878   7.097   4.205
10923WAT     H233012   8.770   7.195   4.279
10924WAT      O33013   8.795   7.451   3.961
10924WAT     H133014   8.709   7.424   4.005
10924WAT     H233015   8.790   7.548   3.936
10925WAT      O33016   6.280   8.640   6.815
10925WAT     H133017   6.250   8.546   6.804
10925WAT     H233018   6.380   8.644   6.806
10926WAT      O33019   8.255   8.433   9.083
10926WAT     H133020   8.284   8.401   8.993
10926WAT     H233021   8.280   8.364   9.152
10927WAT      O33022   4.474   5.111   8.346
10927WAT     H133023   4.383   5.099   8.386
10927WAT     H233024   4.516   5.193   8.383
10928WAT      O33025   9.142   7.502   3.456
10928WAT     H133026   9.132   7.561   3.376
10928WAT     H233027   9.127   7.407   3.429
10929WAT      O33028   8.500   7.871   4.481
10929WAT     H133029   8.468   7.778   4.464
10929WAT     H233030   8.579   7.868   4.543
10930WAT      O33031   9.597   4.241   6.914
10930WAT     H133032   9.558   4.294   6.989
10930WAT     H233033   9.603   4.299   6.832
10931WAT      O33034   6.603   8.453   3.359
10931WAT     H133035   6.540   8.472   3.435
10931WAT     H233036   6.639   8.539   3.323
10932WAT      O33037   5.057   5.738   3.625
10932WAT     H133038   5.050   5.652   3.675
10932WAT     H233039   5.140   5.787   3.654
10933WAT      O33040   4.228   8.003   1.758
10933WAT     H133041   4.257   8.057   1.679
10933WAT     H233042   4.129   8.010   1.769
10934WAT      O33043   7.858   8.168   6.264
10934WAT     H133044   7.825   8.092   6.208
10934WAT     H233045   7.953   8.187   6.241
10935WAT      O33046   4.661   7.291   1.241
10935WAT     H133047   4.650   7.390   1.243
10935WAT     H233048   4.571   7.248   1.229
10936WAT      O33049   4.493   7.461   3.998
10936WAT     H133050   4.514   7.447   4.095
10936WAT     H233051   4.396   7.443   3.982
10937WAT      O33052   9.513   4.444   2.727
10937WAT     H133053   9.445   4.509   2.694
10937WAT     H233054   9.480   4.400   2.810
10938WAT      O33055   5.861   8.320   6.376
10938WAT     H133056   5.903   8.343   6.289
10938WAT     H233057   5.861   8.400   6.436
10939WAT      O33058   6.497   7.507   4.174
10939WAT     H133059   6.459   7.531   4.085
10939WAT     H233060   6.459   7.568   4.244
10940WAT      O33061   2.407   0.099   8.141
10940WAT     H133062   2.469   0.130   8.213
10940WAT     H233063   2.315   0.134   8.157
10941WAT      O33064   5.902   4.143   4.262
10941WAT     H133065   5.961   4.082   4.316
10941WAT     H233066   5.836   4.188   4.322
10942WAT      O33067   1.619   0.094   8.816
10942WAT     H133068   1.692   0.096   8.748
10942WAT     H233069   1.591  -0.001   8.832
10943WAT      O33070   1.104   0.032   9.017
10943WAT     H133071   1.031   0.039   9.085
10943WAT     H233072   1.069   0.061   8.928
10944WAT      O33073   2.253   2.149   1.157
10944WAT     H133074   2.246   2.080   1.229
10944WAT     H233075   2.296   2.231   1.194
10945WAT      O33076   1.497   9.221   2.814
10945WAT     H133077   1.545   9.306   2.791
10945WAT     H233078   1.407   9.221   2.770
10946WAT      O33079   5.320   7.716   0.776
10946WAT     H133080   5.222   7.700   0.791
10946WAT     H233081   5.354   7.779   0.846
10947WAT      O33082   5.149   9.191   9.506
10947WAT     H133083   5.052   9.169   9.507
10947WAT     H233084   5.186   9.182   9.598
10948WAT      O33085   3.501   9.761   3.746
10948WAT     H133086   3.529   9.666   3.730
10948WAT     H233087   3.402   9.765   3.753
10949WAT      O33088   9.332   3.067   1.213
10949WAT     H133089   9.289   2.983   1.243
10949WAT     H233090   9.273   3.145   1.234
10950WAT      O33091   6.333   4.936   1.376
10950WAT     H133092   6.412   4.908   1.323
10950WAT     H233093   6.306   4.862   1.438
10951WAT      O33094   9.768   2.373   3.085
10951WAT     H133095   9.836   2.443   3.063
10951WAT     H233096   9.742   2.324   3.002
10952WAT      O33097   0.748   7.629   5.737
10952WAT     H133098   0.706   7.581   5.814
10952WAT     H233099   0.809   7.567   5.688
10953WAT      O33100   7.872   5.531   4.461
10953WAT     H133101   7.867   5.580   4.374
10953WAT     H233102   7.962   5.489   4.470
10954WAT      O33103   3.687   5.719   6.507
10954WAT     H133104   3.708   5.683   6.415
10954WAT     H233105   3.637   5.649   6.559
10955WAT      O33106   7.500   5.066   6.727
10955WAT     H133107   7.576   5.074   6.791
10955WAT     H233108   7.499   5.146   6.667
10956WAT      O33109   6.871   2.455   6.963
10956WAT     H133110   6.885   2.539   7.016
10956WAT     H233111   6.775   2.449   6.936
10957WAT      O33112   1.059   5.552   4.371
10957WAT     H133113   1.107   5.593   4.448
10957WAT     H233114   1.010   5.470   4.402
10958WAT      O33115   6.832   5.330   7.154
10958WAT     H133116   6.860   5.304   7.062
10958WAT     H233117   6.785   5.418   7.151
10959WAT      O33118   4.624   9.737   8.701
10959WAT     H133119   4.700   9.683   8.737
10959WAT     H233120   4.642   9.835   8.716
10960WAT      O33121   5.444   4.016   3.661
10960WAT     H133122   5.529   4.034   3.711
10960WAT     H233123   5.466   4.000   3.565
10961WAT      O33124   2.070   6.123   6.564
10961WAT     H133125   2.058   6.159   6.471
10961WAT     H233126   2.168   6.106   6.580
10962WAT      O33127   6.262   7.837   5.737
10962WAT     H133128   6.215   7.749   5.736
10962WAT     H233129   6.324   7.843   5.658
10963WAT      O33130   1.236   9.204   2.737
10963WAT     H133131   1.221   9.135   2.666
10963WAT     H233132   1.158   9.268   2.738
10964WAT      O33133   6.390   5.715   9.197
10964WAT     H133134   6.456   5.762   9.139
10964WAT     H233135   6.325   5.666   9.140
10965WAT      O33136   0.918   2.392   6.340
10965WAT     H133137   0.858   2.472   6.345
10965WAT     H233138   0.911   2.351   6.250
10966WAT      O33139   3.416   6.785   5.714
10966WAT     H133140   3.453   6.872   5.678
10966WAT     H233141   3.339   6.804   5.775
10967WAT      O33142   4.123   7.603   1.695
10967WAT     H133143   4.187   7.596   1.772
10967WAT     H233144   4.039   7.646   1.727
10968WAT      O33145   6.559   0.061   1.363
10968WAT     H133146   6.493   0.103   1.300
10968WAT     H233147   6.651   0.093   1.343
10969WAT      O33148   8.874   3.424   1.785
10969WAT     H133149   8.900   3.333   1.818
10969WAT     H233150   8.790   3.453   1.831
10970WAT      O33151   7.517   4.581   6.586
10970WAT     H133152   7.591   4.581   6.654
10970WAT     H233153   7.470   4.669   6.587
10971WAT      O33154   2.606   8.001   5.005
10971WAT     H133155   2.597   7.906   5.035
10971WAT     H233156   2.569   8.011   4.913
10972WAT      O33157   6.899   7.370   0.165
10972WAT     H133158   6.994   7.376   0.135
10972WAT     H233159   6.840   7.359   0.085
10973WAT      O33160   5.884   9.154   2.830
10973WAT     H133161   5.873   9.241   2.783
10973WAT     H233162   5.833   9.156   2.916
10974WAT      O33163   3.977   6.441   2.337
10974WAT     H133164   3.946   6.523   2.289
10974WAT     H233165   3.898   6.383   2.358
10975WAT      O33166   1.033   6.927   7.038
10975WAT     H133167   0.967   6.867   6.992
10975WAT     H233168   0.996   7.020   7.042
10976WAT      O33169   0.721   6.933   2.241
10976WAT     H133170   0.800   6.937   2.179
10976WAT     H233171   0.640   6.903   2.189
10977WAT      O33172   1.304   7.102   0.360
10977WAT     H133173   1.347   7.187   0.391
10977WAT     H233174   1.372   7.028   0.362
10978WAT      O33175   9.422   7.874   4.821
10978WAT     H133176   9.365   7.817   4.762
10978WAT     H233177   9.388   7.969   4.817
10979WAT      O33178   9.146   4.608   0.078
10979WAT     H133179   9.207   4.529   0.085
10979WAT     H233180   9.053   4.577   0.059
10980WAT      O33181   6.284   5.737   9.443
10980WAT     H133182   6.257   5.641   9.456
10980WAT     H233183   6.350   5.743   9.368
10981WAT      O33184   1.082   4.283   6.781
10981WAT     H133185   1.088   4.333   6.694
10981WAT     H233186   1.143   4.325   6.848
10982WAT      O33187   1.484   9.033   1.818
10982WAT     H133188   1.568   8.992   1.784
10982WAT     H233189   1.460   9.113   1.762
10983WAT      O33190   9.016   0.500   7.676
10983WAT     H133191   9.021   0.495   7.576
10983WAT     H233192   8.953   0.573   7.703
10984WAT      O33193   9.542   4.487   6.242
10984WAT     H133194   9.625   4.478   6.297
10984WAT     H233195   9.464   4.448   6.292
10985WAT      O33196   0.609   5.516   4.187
10985WAT     H133197   0.670   5.594   4.172
10985WAT     H233198   0.645   5.458   4.260
10986WAT      O33199   6.579   1.263   8.008
10986WAT     H133200   6.619   1.208   7.935
10986WAT     H233201   6.536   1.344   7.968
10987WAT      O33202   7.938   6.296   2.804
10987WAT     H133203   7.962   6.340   2.718
10987WAT     H233204   7.845   6.258   2.797
10988WAT      O33205   5.952   3.658   3.018
10988WAT     H133206   5.983   3.581   2.961
10988WAT     H233207   5.852   3.660   3.020
10989WAT      O33208   7.442   4.864   7.617
10989WAT     H133209   7.537   4.888   7.595
10989WAT     H233210   7.406   4.803   7.546
10990WAT      O33211   2.949   6.749   7.663
10990WAT     H133212   2.866   6.804   7.647
10990WAT     H233213   2.951   6.673   7.598
10991WAT      O33214   7.545   6.614   7.220
10991WAT     H133215   7.566   6.707   7.192
10991WAT     H233216   7.617   6.552   7.188
10992WAT      O33217   6.177   7.810   2.682
10992WAT     H133218   6.087   7.808   2.725
10992WAT     H233219   6.247   7.796   2.752
10993WAT      O33220   5.411   7.125   8.663
10993WAT     H133221   5.318   7.148   8.690
10993WAT     H233222   5.413   7.097   8.567
10994WAT      O33223   2.869   0.135   4.694
10994WAT     H133224   2.933   0.155   4.620
10994WAT     H233225   2.874   0.207   4.763
10995WAT      O33226   0.071   1.532   6.053
10995WAT     H133227   0.056   1.527   5.954
10995WAT     H233228  -0.017   1.542   6.100
10996WAT      O33229   1.129   9.622   3.252
10996WAT     H133230   1.150   9.638   3.156
10996WAT     H233231   1.042   9.573   3.260
10997WAT      O33232   1.043   4.167   6.145
10997WAT     H133233   0.981   4.223   6.201
10997WAT     H233234   1.048   4.204   6.053
10998WAT      O33235   6.498   0.524   6.212
10998WAT     H133236   6.561   0.508   6.288
10998WAT     H233237   6.482   0.623   6.202
10999WAT      O33238   6.666   4.289   1.386
10999WAT     H133239   6.585   4.247   1.426
10999WAT     H233240   6.745   4.273   1.446
11000WAT      O33241   4.466   5.995   5.078
11000WAT     H133242   4.527   6.075   5.085
11000WAT     H233243   4.400   5.998   5.152
11001WAT      O33244   7.934   8.863   7.849
11001WAT     H133245   7.836   8.861   7.863
11001WAT     H233246   7.954   8.842   7.753
11002WAT      O33247   4.176   5.492   6.254
11002WAT     H133248   4.113   5.414   6.248
11002WAT     H233249   4.239   5.489   6.177
11003WAT      O33250   7.260   9.107   5.684
11003WAT     H133251   7.329   9.048   5.726
11003WAT     H233252   7.176   9.055   5.668
11004WAT      O33253   5.740   7.409   0.449
11004WAT     H133254   5.683   7.353   0.389
11004WAT     H233255   5.716   7.506   0.437
11005WAT      O33256   4.877   6.498   7.948
11005WAT     H133257   4.917   6.414   7.984
11005WAT     H233258   4.781   6.483   7.928
11006WAT      O33259   7.354   7.470   4.912
11006WAT     H133260   7.414   7.441   4.837
11006WAT     H233261   7.276   7.520   4.875
11007WAT      O33262   1.413   3.128   6.469
11007WAT     H133263   1.434   3.045   6.522
11007WAT     H233264   1.314   3.141   6.466
11008WAT      O33265   3.495   9.388   1.316
11008WAT     H133266   3.560   9.336   1.260
11008WAT     H233267   3.525   9.386   1.411
11009WAT      O33268   5.782   4.793   3.139
11009WAT     H133269   5.755   4.872   3.084
11009WAT     H233270   5.700   4.747   3.174
11010WAT      O33271   4.229   8.334   3.018
11010WAT     H133272   4.277   8.334   2.930
11010WAT     H233273   4.272   8.400   3.080
11011WAT      O33274   2.679   6.396   2.485
11011WAT     H133275   2.733   6.478   2.504
11011WAT     H233276   2.651   6.396   2.389
11012WAT      O33277   2.482   5.265   4.763
11012WAT     H133278   2.392   5.230   4.791
11012WAT     H233279   2.545   5.260   4.841
11013WAT      O33280   7.507   3.464   6.854
11013WAT     H133281   7.526   3.561   6.843
11013WAT     H233282   7.408   3.448   6.849
11014WAT      O33283   4.292   8.442   9.228
11014WAT     H133284   4.380   8.488   9.242
11014WAT     H233285   4.304   8.344   9.240
11015WAT      O33286   8.778   5.726   7.892
11015WAT     H133287   8.733   5.765   7.972
11015WAT     H233288   8.854   5.786   7.864
11016WAT      O33289   9.646   2.282   2.825
11016WAT     H133290   9.566   2.240   2.867
11016WAT     H233291   9.691   2.216   2.765
11017WAT      O33292   7.450   8.999   0.124
11017WAT     H133293   7.516   9.039   0.187
11017WAT     H233294   7.424   9.067   0.055
11018WAT      O33295   3.454   7.731   1.987
11018WAT     H133296   3.434   7.793   2.063
11018WAT     H233297   3.534   7.676   2.009
11019WAT      O33298   5.627   4.671   4.485
11019WAT     H133299   5.567   4.599   4.519
11019WAT     H233300   5.594   4.704   4.397
11020WAT      O33301   3.591   1.176   0.892
11020WAT     H133302   3.578   1.251   0.826
11020WAT     H233303   3.686   1.173   0.921
11021WAT      O33304   6.144   6.953   0.549
11021WAT     H133305   6.060   7.008   0.545
11021WAT     H233306   6.121   6.857   0.535
11022WAT      O33307   6.861   6.130   4.103
11022WAT     H133308   6.857   6.191   4.182
11022WAT     H233309   6.856   6.035   4.133
11023WAT      O33310   8.894   7.724   5.459
11023WAT     H133311   8.828   7.718   5.385
11023WAT     H233312   8.986   7.735   5.422
11024WAT      O33313   4.001   9.586   2.452
11024WAT     H133314   3.975   9.526   2.376
11024WAT     H233315   3.922   9.641   2.480
11025WAT      O33316   6.606   9.276   1.322
11025WAT     H133317   6.610   9.376   1.315
11025WAT     H233318   6.699   9.240   1.331
11026WAT      O33319   4.101   1.410   5.945
11026WAT     H133320   4.196   1.423   5.918
11026WAT     H233321   4.047   1.490   5.918
11027WAT      O33322   0.082   7.569   6.149
11027WAT     H133323   0.118   7.650   6.102
11027WAT     H233324  -0.017   7.566   6.140
11028WAT      O33325   7.260   4.173   3.781
11028WAT     H133326   7.339   4.223   3.815
11028WAT     H233327   7.189   4.238   3.753
11029WAT      O33328   1.964   4.703   9.215
11029WAT     H133329   1.969   4.703   9.115
11029WAT     H233330   1.977   4.796   9.249
11030WAT      O33331   3.588   7.294   7.734
11030WAT     H133332   3.639   7.241   7.802
11030WAT     H233333   3.491   7.298   7.761
11031WAT      O33334   5.101   3.170   9.423
11031WAT     H133335   5.193   3.153   9.387
11031WAT     H233336   5.067   3.257   9.386
11032WAT      O33337   2.310   7.669   7.481
11032WAT     H133338   2.400   7.630   7.462
11032WAT     H233339   2.321   7.751   7.537
11033WAT      O33340   7.396   0.423   9.212
11033WAT     H133341   7.429   0.345   9.264
11033WAT     H233342   7.311   0.457   9.254
11034WAT      O33343   5.742   7.800   5.067
11034WAT     H133344   5.664   7.775   5.009
11034WAT     H233345   5.773   7.719   5.118
11035WAT      O33346   2.948   0.502   2.638
11035WAT     H133347   2.946   0.536   2.732
11035WAT     H233348   2.894   0.418   2.631
11036WAT      O33349   2.019   9.158   0.284
11036WAT     H133350   2.065   9.129   0.368
11036WAT     H233351   1.925   9.126   0.284
11037WAT      O33352   4.812   7.333   0.572
11037WAT     H133353   4.825   7.298   0.665
11037WAT     H233354   4.901   7.350   0.530
11038WAT      O33355   3.623   3.382   9.415
11038WAT     H133356   3.600   3.473   9.450
11038WAT     H233357   3.682   3.335   9.480
11039WAT      O33358   9.737   3.589   0.343
11039WAT     H133359   9.638   3.594   0.329
11039WAT     H233360   9.772   3.504   0.303
11040WAT      O33361   5.239   7.022   6.228
11040WAT     H133362   5.250   6.924   6.208
11040WAT     H233363   5.154   7.055   6.189
11041WAT      O33364   3.033   1.925   6.699
11041WAT     H133365   2.948   1.895   6.657
11041WAT     H233366   3.032   2.025   6.709
11042WAT      O33367   8.401   8.604   1.554
11042WAT     H133368   8.354   8.565   1.633
11042WAT     H233369   8.367   8.697   1.539
11043WAT      O33370   1.668   5.016   5.992
11043WAT     H133371   1.671   4.919   5.969
11043WAT     H233372   1.587   5.034   6.048
11044WAT      O33373   6.479   0.296   7.644
11044WAT     H133374   6.396   0.352   7.643
11044WAT     H233375   6.454   0.199   7.644
11045WAT      O33376   1.571   3.643   7.580
11045WAT     H133377   1.645   3.592   7.538
11045WAT     H233378   1.532   3.589   7.656
11046WAT      O33379   8.755   5.701   6.976
11046WAT     H133380   8.686   5.656   6.920
11046WAT     H233381   8.823   5.744   6.917
11047WAT      O33382   1.685   1.735   1.447
11047WAT     H133383   1.725   1.735   1.539
11047WAT     H233384   1.693   1.826   1.407
11048WAT      O33385   5.054   7.581   9.646
11048WAT     H133386   5.018   7.491   9.670
11048WAT     H233387   4.983   7.650   9.661
11049WAT      O33388   7.327   4.708   7.417
11049WAT     H133389   7.234   4.691   7.451
11049WAT     H233390   7.323   4.775   7.343
11050WAT      O33391   7.762   6.581   6.096
11050WAT     H133392   7.692   6.652   6.106
11050WAT     H233393   7.735   6.518   6.024
11051WAT      O33394   0.103   9.752   1.087
11051WAT     H133395   0.051   9.799   1.159
11051WAT     H233396   0.178   9.811   1.056
11052WAT      O33397   1.308   6.996   4.470
11052WAT     H133398   1.348   6.989   4.561
11052WAT     H233399   1.326   7.087   4.432
11053WAT      O33400   4.984   4.026   0.278
11053WAT     H133401   4.945   3.990   0.193
11053WAT     H233402   5.076   4.061   0.261
11054WAT      O33403   5.766   7.469   4.408
11054WAT     H133404   5.806   7.378   4.421
11054WAT     H233405   5.715   7.471   4.322
11055WAT      O33406   4.334   3.993   1.100
11055WAT     H133407   4.303   4.059   1.032
11055WAT     H233408   4.256   3.937   1.129
11056WAT      O33409   8.386   6.740   3.879
11056WAT     H133410   8.305   6.682   3.881
11056WAT     H233411   8.406   6.773   3.971
11057WAT      O33412   1.146   5.180   4.317
11057WAT     H133413   1.112   5.180   4.223
11057WAT     H233414   1.194   5.094   4.335
11058WAT      O33415   4.811   3.189   4.051
11058WAT     H133416   4.901   3.202   4.093
11058WAT     H233417   4.808   3.101   4.005
11059WAT      O33418   2.491   7.701   6.546
11059WAT     H133419   2.555   7.741   6.612
11059WAT     H233420   2.415   7.659   6.594
11060WAT      O33421   0.569   7.168   4.355
11060WAT     H133422   0.541   7.263   4.341
11060WAT     H233423   0.654   7.150   4.305
11061WAT      O33424   2.162   3.422   0.144
11061WAT     H133425   2.255   3.418   0.180
11061WAT     H233426   2.097   3.392   0.214
11062WAT      O33427   1.309   9.487   4.769
11062WAT     H133428   1.211   9.474   4.756
11062WAT     H233429   1.340   9.434   4.848
11063WAT      O33430   0.519   7.166   3.649
11063WAT     H133431   0.527   7.164   3.550
11063WAT     H233432   0.605   7.201   3.689
11064WAT      O33433   0.033   5.181   1.306
11064WAT     H133434   0.088   5.097   1.310
11064WAT     H233435  -0.001   5.194   1.213
11065WAT      O33436   5.403   5.875   2.188
11065WAT     H133437   5.486   5.841   2.144
11065WAT     H233438   5.347   5.922   2.120
11066WAT      O33439   3.511   3.183   2.483
11066WAT     H133440   3.480   3.232   2.401
11066WAT     H233441   3.453   3.209   2.560
11067WAT      O33442   2.751   1.444   0.886
11067WAT     H133443   2.755   1.357   0.836
11067WAT     H233444   2.808   1.511   0.839
11068WAT      O33445   4.506   2.555   0.191
11068WAT     H133446   4.436   2.484   0.189
11068WAT     H233447   4.517   2.588   0.284
11069WAT      O33448   5.701   1.159   8.769
11069WAT     H133449   5.797   1.164   8.795
11069WAT     H233450   5.694   1.134   8.673
11070WAT      O33451   4.961   0.012   8.359
11070WAT     H133452   4.910  -0.072   8.343
11070WAT     H233453   4.957   0.036   8.456
11071WAT      O33454   4.827   9.626   8.294
11071WAT     H133455   4.738   9.652   8.330
11071WAT     H233456   4.822   9.620   8.195
11072WAT      O33457   3.636   2.843   8.132
11072WAT     H133458   3.570   2.768   8.136
11072WAT     H233459   3.728   2.807   8.115
11073WAT      O33460   1.837   3.008   2.172
11073WAT     H133461   1.772   2.936   2.148
11073WAT     H233462   1.809   3.094   2.128
11074WAT      O33463   2.320   6.348   9.092
11074WAT     H133464   2.243   6.285   9.094
11074WAT     H233465   2.326   6.392   9.002
11075WAT      O33466   4.544   8.612   0.899
11075WAT     H133467   4.600   8.530   0.910
11075WAT     H233468   4.464   8.591   0.843
11076WAT      O33469   5.083   6.752   6.007
11076WAT     H133470   5.141   6.786   6.081
11076WAT     H233471   5.134   6.756   5.921
11077WAT      O33472   1.778   1.807   1.712
11077WAT     H133473   1.862   1.860   1.720
11077WAT     H233474   1.708   1.848   1.771
11078WAT      O33475   9.863   6.979   9.449
11078WAT     H133476   9.923   6.973   9.368
11078WAT     H233477   9.821   7.070   9.453
11079WAT      O33478   5.726   3.266   5.802
11079WAT     H133479   5.717   3.243   5.899
11079WAT     H233480   5.744   3.183   5.749
11080WAT      O33481   8.472   3.163   2.223
11080WAT     H133482   8.374   3.173   2.239
11080WAT     H233483   8.518   3.250   2.239
11081WAT      O33484   1.063   7.514   9.661
11081WAT     H133485   1.072   7.495   9.759
11081WAT     H233486   1.107   7.602   9.641
11082WAT      O33487   3.765   5.309   9.746
11082WAT     H133488   3.761   5.314   9.646
11082WAT     H233489   3.859   5.325   9.777
11083WAT      O33490   8.376   4.294   6.464
11083WAT     H133491   8.475   4.285   6.451
11083WAT     H233492   8.350   4.260   6.554
11084WAT      O33493   6.950   1.725   0.845
11084WAT     H133494   7.047   1.727   0.867
11084WAT     H233495   6.904   1.801   0.892
11085WAT      O33496   4.018   8.906   9.685
11085WAT     H133497   3.966   8.891   9.601
11085WAT     H233498   3.970   8.971   9.743
11086WAT      O33499   9.551   0.620   9.046
11086WAT     H133500   9.542   0.642   9.143
11086WAT     H233501   9.647   0.611   9.022
11087WAT      O33502   7.501   8.862   6.349
11087WAT     H133503   7.432   8.802   6.390
11087WAT     H233504   7.560   8.898   6.420
11088WAT      O33505   7.841   0.344   3.680
11088WAT     H133506   7.817   0.434   3.716
11088WAT     H233507   7.775   0.276   3.713
11089WAT      O33508   1.088   4.060   7.795
11089WAT     H133509   1.108   4.117   7.875
11089WAT     H233510   0.990   4.037   7.795
11090WAT      O33511   2.529   0.081   2.745
11090WAT     H133512   2.598   0.136   2.792
11090WAT     H233513   2.478   0.026   2.811
11091WAT      O33514   3.833   9.824   0.531
11091WAT     H133515   3.858   9.921   0.528
11091WAT     H233516   3.900   9.775   0.587
11092WAT      O33517   6.576   2.544   8.753
11092WAT     H133518   6.496   2.488   8.735
11092WAT     H233519   6.655   2.507   8.703
11093WAT      O33520   6.524   2.519   0.512
11093WAT     H133521   6.440   2.558   0.474
11093WAT     H233522   6.503   2.432   0.557
11094WAT      O33523   0.591   5.450   2.186
11094WAT     H133524   0.679   5.480   2.148
11094WAT     H233525   0.594   5.351   2.202
11095WAT      O33526   0.088   5.989   5.789
11095WAT     H133527  -0.005   6.009   5.759
11095WAT     H233528   0.110   6.043   5.869
11096WAT      O33529   7.289   0.414   5.808
11096WAT     H133530   7.376   0.369   5.827
11096WAT     H233531   7.284   0.434   5.710
11097WAT      O33532   9.101   1.794   6.470
11097WAT     H133533   9.045   1.715   6.496
11097WAT     H233534   9.084   1.868   6.535
11098WAT      O33535   5.337   1.553   7.466
11098WAT     H133536   5.360   1.467   7.511
11098WAT     H233537   5.268   1.602   7.519
11099WAT      O33538   4.444   6.784   3.121
11099WAT     H133539   4.448   6.687   3.144
11099WAT     H233540   4.349   6.812   3.109
11100WAT      O33541   3.644   6.681   7.638
11100WAT     H133542   3.655   6.584   7.657
11100WAT     H233543   3.657   6.734   7.721
11101WAT      O33544   4.258   6.923   5.026
11101WAT     H133545   4.266   6.878   5.115
11101WAT     H233546   4.339   6.901   4.971
11102WAT      O33547   4.064   9.843   0.264
11102WAT     H133548   4.092   9.830   0.359
11102WAT     H233549   3.965   9.850   0.259
11103WAT      O33550   1.253   9.210   6.878
11103WAT     H133551   1.270   9.207   6.977
11103WAT     H233552   1.291   9.295   6.841
11104WAT      O33553   8.801   8.128   1.373
11104WAT     H133554   8.750   8.210   1.346
11104WAT     H233555   8.744   8.071   1.431
11105WAT      O33556   7.312   7.294   4.440
11105WAT     H133557   7.313   7.244   4.527
11105WAT     H233558   7.242   7.255   4.380
11106WAT      O33559   0.102   0.135   7.128
11106WAT     H133560   0.060   0.161   7.041
11106WAT     H233561   0.074   0.042   7.152
11107WAT      O33562   2.837   5.047   8.312
11107WAT     H133563   2.896   5.123   8.339
11107WAT     H233564   2.864   5.014   8.222
11108WAT      O33565   3.138   7.261   1.888
11108WAT     H133566   3.097   7.213   1.965
11108WAT     H233567   3.174   7.349   1.919
11109WAT      O33568   1.038   4.946   5.940
11109WAT     H133569   0.997   5.025   5.986
11109WAT     H233570   0.975   4.912   5.870
11110WAT      O33571   8.119   2.493   2.563
11110WAT     H133572   8.151   2.580   2.603
11110WAT     H233573   8.191   2.455   2.505
11111WAT      O33574   0.395   6.576   3.810
11111WAT     H133575   0.370   6.515   3.734
11111WAT     H233576   0.388   6.671   3.780
11112WAT      O33577   9.317   5.103   0.022
11112WAT     H133578   9.233   5.157   0.012
11112WAT     H233579   9.392   5.150  -0.024
11113WAT      O33580   4.608   9.047   3.331
11113WAT     H133581   4.614   8.948   3.340
11113WAT     H233582   4.540   9.083   3.394
11114WAT      O33583   4.955   5.120   3.087
11114WAT     H133584   4.921   5.104   2.995
11114WAT     H233585   4.960   5.034   3.137
11115WAT      O33586   9.696   2.973   1.519
11115WAT     H133587   9.655   3.031   1.588
11115WAT     H233588   9.729   3.029   1.443
11116WAT      O33589   4.256   0.091   4.571
11116WAT     H133590   4.176   0.085   4.511
11116WAT     H233591   4.242   0.034   4.652
11117WAT      O33592   5.360   6.182   8.701
11117WAT     H133593   5.445   6.147   8.740
11117WAT     H233594   5.292   6.108   8.701
11118WAT      O33595   9.403   5.192   6.343
11118WAT     H133596   9.411   5.235   6.252
11118WAT     H233597   9.307   5.188   6.369
11119WAT      O33598   2.416   0.845   8.973
11119WAT     H133599   2.413   0.929   8.918
11119WAT     H233600   2.329   0.797   8.964
11120WAT      O33601   7.203   2.288   2.175
11120WAT     H133602   7.171   2.243   2.092
11120WAT     H233603   7.265   2.363   2.151
11121WAT      O33604   9.606   5.891   8.708
11121WAT     H133605   9.655   5.816   8.662
11121WAT     H233606   9.592   5.966   8.643
11122WAT      O33607   5.726   3.862   4.843
11122WAT     H133608   5.678   3.787   4.888
11122WAT     H233609   5.820   3.866   4.876
11123WAT      O33610   9.025   1.123   6.539
11123WAT     H133611   9.045   1.184   6.462
11123WAT     H233612   9.108   1.074   6.565
11124WAT      O33613   5.943   9.425   7.703
11124WAT     H133614   6.037   9.391   7.701
11124WAT     H233615   5.941   9.517   7.741
11125WAT      O33616   4.764   9.108   9.296
11125WAT     H133617   4.739   9.153   9.210
11125WAT     H233618   4.844   9.155   9.335
11126WAT      O33619   8.894   6.204   5.310
11126WAT     H133620   8.814   6.177   5.363
11126WAT     H233621   8.975   6.155   5.343
11127WAT      O33622   1.691   8.199   2.555
11127WAT     H133623   1.597   8.187   2.521
11127WAT     H233624   1.688   8.230   2.650
11128WAT      O33625   2.916   6.978   4.529
11128WAT     H133626   2.866   7.057   4.493
11128WAT     H233627   3.002   7.009   4.569
11129WAT      O33628   7.368   8.319   4.794
11129WAT     H133629   7.377   8.296   4.697
11129WAT     H233630   7.429   8.262   4.848
11130WAT      O33631   3.089   2.574   8.059
11130WAT     H133632   3.178   2.529   8.051
11130WAT     H233633   3.053   2.591   7.968
11131WAT      O33634   8.909   1.852   2.179
11131WAT     H133635   8.921   1.951   2.167
11131WAT     H233636   8.954   1.824   2.264
11132WAT      O33637   9.117   9.190   5.515
11132WAT     H133638   9.191   9.147   5.566
11132WAT     H233639   9.064   9.119   5.468
11133WAT      O33640   5.609   6.227   5.861
11133WAT     H133641   5.513   6.206   5.879
11133WAT     H233642   5.663   6.211   5.944
11134WAT      O33643   2.135   8.738   6.546
11134WAT     H133644   2.042   8.760   6.516
11134WAT     H233645   2.130   8.673   6.622
11135WAT      O33646   8.090   5.271   8.961
11135WAT     H133647   7.999   5.303   8.987
11135WAT     H233648   8.156   5.345   8.973
11136WAT      O33649   5.824   4.143   7.871
11136WAT     H133650   5.832   4.138   7.772
11136WAT     H233651   5.779   4.228   7.897
11137WAT      O33652   1.659   9.049   4.428
11137WAT     H133653   1.636   9.095   4.513
11137WAT     H233654   1.678   9.117   4.357
11138WAT      O33655   0.468   2.768   0.578
11138WAT     H133656   0.552   2.716   0.592
11138WAT     H233657   0.454   2.782   0.480
11139WAT      O33658   0.739   9.834   9.547
11139WAT     H133659   0.688   9.851   9.631
11139WAT     H233660   0.691   9.876   9.470
11140WAT      O33661   0.720   6.996   5.450
11140WAT     H133662   0.728   7.064   5.523
11140WAT     H233663   0.811   6.976   5.413
11141WAT      O33664   2.211   1.244   4.364
11141WAT     H133665   2.305   1.214   4.381
11141WAT     H233666   2.178   1.203   4.278
11142WAT      O33667   4.472   9.632   8.133
11142WAT     H133668   4.522   9.678   8.059
11142WAT     H233669   4.467   9.534   8.114
11143WAT      O33670   1.922   2.012   6.099
11143WAT     H133671   1.894   1.958   6.020
11143WAT     H233672   1.978   2.089   6.069
11144WAT      O33673   1.689   4.046   5.649
11144WAT     H133674   1.783   4.062   5.680
11144WAT     H233675   1.638   4.001   5.722
11145WAT      O33676   2.181   4.199   5.584
11145WAT     H133677   2.275   4.217   5.613
11145WAT     H233678   2.167   4.101   5.573
11146WAT      O33679   1.397   9.232   1.604
11146WAT     H133680   1.411   9.154   1.544
11146WAT     H233681   1.343   9.301   1.556
11147WAT      O33682   0.251   4.673   6.206
11147WAT     H133683   0.307   4.627   6.138
11147WAT     H233684   0.220   4.607   6.274
11148WAT      O33685   0.045   8.470   5.668
11148WAT     H133686  -0.012   8.498   5.590
11148WAT     H233687   0.012   8.515   5.751
11149WAT      O33688   1.047   2.466   1.637
11149WAT     H133689   1.093   2.492   1.552
11149WAT     H233690   1.051   2.367   1.648
11150WAT      O33691   4.216   1.070   5.812
11150WAT     H133692   4.283   1.128   5.765
11150WAT     H233693   4.191   0.993   5.753
11151WAT      O33694   3.503   0.613   8.728
11151WAT     H133695   3.497   0.563   8.815
11151WAT     H233696   3.566   0.691   8.739
11152WAT      O33697   5.415   1.496   4.685
11152WAT     H133698   5.332   1.442   4.667
11152WAT     H233699   5.410   1.535   4.776
11153WAT      O33700   7.235   0.473   8.457
11153WAT     H133701   7.319   0.429   8.425
11153WAT     H233702   7.170   0.404   8.488
11154WAT      O33703   5.351   0.556   6.267
11154WAT     H133704   5.396   0.635   6.308
11154WAT     H233705   5.419   0.486   6.244
11155WAT      O33706   9.414   6.384   8.644
11155WAT     H133707   9.414   6.461   8.708
11155WAT     H233708   9.432   6.417   8.551
11156WAT      O33709   2.871   8.655   3.448
11156WAT     H133710   2.924   8.653   3.533
11156WAT     H233711   2.892   8.573   3.394
11157WAT      O33712   1.319   9.717   5.352
11157WAT     H133713   1.390   9.763   5.299
11157WAT     H233714   1.244   9.781   5.371
11158WAT      O33715   4.108   4.374   2.763
11158WAT     H133716   4.146   4.465   2.746
11158WAT     H233717   4.011   4.383   2.788
11159WAT      O33718   0.920   9.257   3.002
11159WAT     H133719   0.895   9.272   3.097
11159WAT     H233720   0.976   9.175   2.994
11160WAT      O33721   0.721   1.514   7.180
11160WAT     H133722   0.801   1.469   7.221
11160WAT     H233723   0.749   1.603   7.142
11161WAT      O33724   3.670   0.038   2.258
11161WAT     H133725   3.712   0.092   2.331
11161WAT     H233726   3.706   0.068   2.170
11162WAT      O33727   6.010   4.474   4.514
11162WAT     H133728   6.105   4.447   4.500
11162WAT     H233729   5.981   4.446   4.606
11163WAT      O33730   1.344   4.780   6.222
11163WAT     H133731   1.388   4.705   6.174
11163WAT     H233732   1.364   4.774   6.320
11164WAT      O33733   0.060   3.058   2.197
11164WAT     H133734   0.037   3.149   2.162
11164WAT     H233735   0.107   3.006   2.126
11165WAT      O33736   8.359   7.245   9.256
11165WAT     H133737   8.342   7.301   9.175
11165WAT     H233738   8.340   7.149   9.235
11166WAT      O33739   2.239   0.538   3.140
11166WAT     H133740   2.252   0.609   3.210
11166WAT     H233741   2.307   0.466   3.153
11167WAT      O33742   5.032   0.460   5.066
11167WAT     H133743   5.061   0.367   5.088
11167WAT     H233744   5.102   0.525   5.099
11168WAT      O33745   2.846   6.915   1.889
11168WAT     H133746   2.811   6.824   1.911
11168WAT     H233747   2.851   6.925   1.790
11169WAT      O33748   7.916   4.322   1.608
11169WAT     H133749   7.925   4.232   1.650
11169WAT     H233750   7.950   4.392   1.671
11170WAT      O33751   7.000   9.505   0.384
11170WAT     H133752   7.089   9.467   0.358
11170WAT     H233753   6.962   9.452   0.460
11171WAT      O33754   1.229   1.738   4.649
11171WAT     H133755   1.321   1.772   4.668
11171WAT     H233756   1.162   1.793   4.699
11172WAT      O33757   3.254   7.383   8.508
11172WAT     H133758   3.190   7.394   8.433
11172WAT     H233759   3.229   7.445   8.583
11173WAT      O33760   1.253   5.054   7.129
11173WAT     H133761   1.247   4.968   7.078
11173WAT     H233762   1.267   5.034   7.226
11174WAT      O33763   3.323   3.475   5.754
11174WAT     H133764   3.393   3.505   5.689
11174WAT     H233765   3.233   3.478   5.710
11175WAT      O33766   5.325   2.302   0.443
11175WAT     H133767   5.314   2.371   0.372
11175WAT     H233768   5.405   2.246   0.423
11176WAT      O33769   3.627   3.647   3.429
11176WAT     H133770   3.643   3.549   3.446
11176WAT     H233771   3.590   3.689   3.512
11177WAT      O33772   0.258   0.144   9.071
11177WAT     H133773   0.295   0.065   9.022
11177WAT     H233774   0.231   0.214   9.005
11178WAT      O33775   5.443   6.329   0.777
11178WAT     H133776   5.497   6.406   0.811
11178WAT     H233777   5.491   6.287   0.699
11179WAT      O33778   2.345   7.738   9.881
11179WAT     H133779   2.288   7.664   9.847
11179WAT     H233780   2.432   7.701   9.913
11180WAT      O33781   1.107   9.541   9.872
11180WAT     H133782   1.129   9.638   9.882
11180WAT     H233783   1.108   9.497   9.962
11181WAT      O33784   1.186   8.686   3.341
11181WAT     H133785   1.260   8.693   3.274
11181WAT     H233786   1.216   8.726   3.427
11182WAT      O33787   1.250   3.006   2.829
11182WAT     H133788   1.198   3.070   2.885
11182WAT     H233789   1.305   2.947   2.888
11183WAT      O33790   7.823   4.844   0.965
11183WAT     H133791   7.880   4.798   1.033
11183WAT     H233792   7.873   4.922   0.927
11184WAT      O33793   5.301   0.745   9.306
11184WAT     H133794   5.387   0.703   9.277
11184WAT     H233795   5.230   0.728   9.238
11185WAT      O33796   2.910   6.996   5.932
11185WAT     H133797   2.928   6.907   5.890
11185WAT     H233798   2.982   7.061   5.906
11186WAT      O33799   7.957   1.231   0.487
11186WAT     H133800   8.027   1.169   0.521
11186WAT     H233801   7.910   1.274   0.565
11187WAT      O33802   4.680   9.743   9.044
11187WAT     H133803   4.667   9.832   9.001
11187WAT     H233804   4.623   9.675   8.998
11188WAT      O33805   8.010   4.543   5.632
11188WAT     H133806   8.035   4.450   5.607
11188WAT     H233807   7.917   4.562   5.602
11189WAT      O33808   3.375   0.606   4.402
11189WAT     H133809   3.400   0.668   4.476
11189WAT     H233810   3.414   0.641   4.316
11190WAT      O33811   9.209   7.724   6.712
11190WAT     H133812   9.248   7.802   6.761
11190WAT     H233813   9.272   7.696   6.640
11191WAT      O33814   2.165   4.475   6.244
11191WAT     H133815   2.137   4.481   6.340
11191WAT     H233816   2.262   4.498   6.236
11192WAT      O33817   7.453   8.255   2.348
11192WAT     H133818   7.508   8.315   2.406
11192WAT     H233819   7.511   8.186   2.307
11193WAT      O33820   5.682   5.864   2.470
11193WAT     H133821   5.758   5.859   2.534
11193WAT     H233822   5.642   5.773   2.458
11194WAT      O33823   4.788   0.162   2.301
11194WAT     H133824   4.731   0.205   2.371
11194WAT     H233825   4.856   0.104   2.344
11195WAT      O33826   5.963   2.378   3.682
11195WAT     H133827   6.021   2.459   3.678
11195WAT     H233828   5.960   2.335   3.592
11196WAT      O33829   1.328   3.085   6.139
11196WAT     H133830   1.400   3.139   6.097
11196WAT     H233831   1.305   3.123   6.229
11197WAT      O33832   8.171   6.896   1.070
11197WAT     H133833   8.195   6.873   0.975
11197WAT     H233834   8.227   6.973   1.101
11198WAT      O33835   6.501   5.929   0.179
11198WAT     H133836   6.448   5.970   0.105
11198WAT     H233837   6.520   5.833   0.157
11199WAT      O33838   0.242   0.212   1.598
11199WAT     H133839   0.253   0.121   1.559
11199WAT     H233840   0.315   0.272   1.565
11200WAT      O33841   9.870   4.666   7.097
11200WAT     H133842   9.873   4.605   7.176
11200WAT     H233843   9.903   4.757   7.124
11201WAT      O33844   8.924   8.951   9.439
11201WAT     H133845   8.909   9.024   9.372
11201WAT     H233846   8.860   8.876   9.423
11202WAT      O33847   4.524   0.968   7.753
11202WAT     H133848   4.451   1.007   7.808
11202WAT     H233849   4.611   1.012   7.777
11203WAT      O33850   3.959   5.535   1.681
11203WAT     H133851   3.899   5.536   1.761
11203WAT     H233852   4.043   5.585   1.702
11204WAT      O33853   6.016   3.873   3.967
11204WAT     H133854   6.061   3.873   4.056
11204WAT     H233855   6.071   3.818   3.903
11205WAT      O33856   2.989   5.502   5.130
11205WAT     H133857   3.066   5.515   5.192
11205WAT     H233858   2.942   5.417   5.151
11206WAT      O33859   0.806   5.592   9.674
11206WAT     H133860   0.806   5.692   9.672
11206WAT     H233861   0.886   5.560   9.725
11207WAT      O33862   6.369   2.650   8.273
11207WAT     H133863   6.274   2.623   8.286
11207WAT     H233864   6.429   2.572   8.292
11208WAT      O33865   3.495   2.640   3.282
11208WAT     H133866   3.409   2.629   3.331
11208WAT     H233867   3.552   2.559   3.295
11209WAT      O33868   7.555   3.081   9.027
11209WAT     H133869   7.513   3.107   9.114
11209WAT     H233870   7.523   2.990   9.000
11210WAT      O33871   9.366   0.730   2.092
11210WAT     H133872   9.409   0.820   2.096
11210WAT     H233873   9.433   0.662   2.062
11211WAT      O33874   0.071   4.910   7.188
11211WAT     H133875   0.119   4.987   7.146
11211WAT     H233876  -0.023   4.938   7.210
11212WAT      O33877   8.457   4.892   1.001
11212WAT     H133878   8.476   4.986   1.028
11212WAT     H233879   8.412   4.891   0.911
11213WAT      O33880   4.740   2.027   2.667
11213WAT     H133881   4.825   1.993   2.708
11213WAT     H233882   4.683   2.069   2.738
11214WAT      O33883   1.297   5.986   5.813
11214WAT     H133884   1.396   5.987   5.829
11214WAT     H233885   1.272   6.066   5.759
11215WAT      O33886   0.055   0.554   7.227
11215WAT     H133887   0.138   0.499   7.240
11215WAT     H233888  -0.020   0.495   7.197
11216WAT      O33889   9.186   0.294   2.678
11216WAT     H133890   9.163   0.261   2.586
11216WAT     H233891   9.282   0.275   2.697
11217WAT      O33892   9.575   2.005   1.791
11217WAT     H133893   9.666   1.990   1.830
11217WAT     H233894   9.511   1.938   1.828
11218WAT      O33895   3.136   3.161   9.705
11218WAT     H133896   3.142   3.184   9.608
11218WAT     H233897   3.072   3.084   9.717
11219WAT      O33898   8.961   7.857   5.684
11219WAT     H133899   8.934   7.813   5.599
11219WAT     H233900   8.882   7.904   5.724
11220WAT      O33901   6.470   3.881   2.933
11220WAT     H133902   6.381   3.836   2.927
11220WAT     H233903   6.536   3.831   2.878
11221WAT      O33904   9.456   9.143   0.173
11221WAT     H133905   9.552   9.142   0.145
11221WAT     H233906   9.400   9.099   0.102
11222WAT      O33907   8.479   2.874   4.118
11222WAT     H133908   8.502   2.948   4.181
11222WAT     H233909   8.450   2.794   4.170
11223WAT      O33910   0.206   5.677   4.033
11223WAT     H133911   0.161   5.764   4.052
11223WAT     H233912   0.279   5.662   4.101
11224WAT      O33913   9.211   5.029   6.616
11224WAT     H133914   9.292   5.000   6.667
11224WAT     H233915   9.131   4.980   6.650
11225WAT      O33916   7.895   1.832   3.540
11225WAT     H133917   7.912   1.904   3.607
11225WAT     H233918   7.982   1.806   3.497
11226WAT      O33919   7.858   2.405   8.852
11226WAT     H133920   7.777   2.411   8.909
11226WAT     H233921   7.844   2.339   8.779
11227WAT      O33922   7.801   6.064   5.899
11227WAT     H133923   7.782   5.966   5.903
11227WAT     H233924   7.849   6.086   5.814
11228WAT      O33925   8.936   0.842   0.108
11228WAT     H133926   8.853   0.889   0.078
11228WAT     H233927   8.959   0.770   0.042
11229WAT      O33928   4.179   6.638   8.527
11229WAT     H133929   4.096   6.592   8.558
11229WAT     H233930   4.195   6.616   8.430
11230WAT      O33931   9.051   7.396   4.524
11230WAT     H133932   9.130   7.345   4.489
11230WAT     H233933   9.056   7.491   4.493
11231WAT      O33934   1.940   6.184   3.759
11231WAT     H133935   1.900   6.237   3.684
11231WAT     H233936   1.927   6.087   3.741
11232WAT      O33937   7.707   0.119   6.965
11232WAT     H133938   7.712   0.138   6.867
11232WAT     H233939   7.662   0.196   7.011
11233WAT      O33940   8.953   9.748   0.571
11233WAT     H133941   9.017   9.688   0.619
11233WAT     H233942   8.952   9.838   0.615
11234WAT      O33943   8.195   6.320   5.881
11234WAT     H133944   8.173   6.231   5.921
11234WAT     H233945   8.229   6.382   5.952
11235WAT      O33946   0.451   5.401   4.845
11235WAT     H133947   0.398   5.338   4.901
11235WAT     H233948   0.414   5.402   4.752
11236WAT      O33949   3.553   7.945   4.660
11236WAT     H133950   3.498   7.988   4.589
11236WAT     H233951   3.600   7.865   4.623
11237WAT      O33952   6.314   0.656   3.155
11237WAT     H133953   6.354   0.673   3.245
11237WAT     H233954   6.378   0.687   3.084
11238WAT      O33955   5.093   8.280   6.012
11238WAT     H133956   5.181   8.238   5.991
11238WAT     H233957   5.066   8.255   6.105
11239WAT      O33958   1.514   8.947   7.011
11239WAT     H133959   1.466   8.880   6.954
11239WAT     H233960   1.467   8.955   7.099
11240WAT      O33961   7.441   8.319   2.848
11240WAT     H133962   7.427   8.235   2.798
11240WAT     H233963   7.368   8.331   2.916
11241WAT      O33964   5.704   5.693   8.903
11241WAT     H133965   5.628   5.753   8.928
11241WAT     H233966   5.784   5.716   8.958
11242WAT      O33967   2.830   5.405   4.034
11242WAT     H133968   2.870   5.369   3.949
11242WAT     H233969   2.825   5.505   4.028
11243WAT      O33970   5.863   9.274   6.053
11243WAT     H133971   5.786   9.317   6.100
11243WAT     H233972   5.948   9.314   6.087
11244WAT      O33973   1.754   0.098   0.908
11244WAT     H133974   1.710   0.187   0.900
11244WAT     H233975   1.686   0.025   0.893
11245WAT      O33976   2.847   3.832   0.634
11245WAT     H133977   2.751   3.832   0.665
11245WAT     H233978   2.906   3.810   0.711
11246WAT      O33979   0.142   3.952   9.323
11246WAT     H133980   0.204   3.895   9.269
11246WAT     H233981   0.191   3.992   9.400
11247WAT      O33982   2.918   6.306   8.767
11247WAT     H133983   2.881   6.295   8.860
11247WAT     H233984   2.944   6.216   8.731
11248WAT      O33985   4.403   9.537   3.195
11248WAT     H133986   4.431   9.564   3.287
11248WAT     H233987   4.328   9.596   3.164
11249WAT      O33988   9.860   3.632   3.155
11249WAT     H133989   9.951   3.638   3.195
11249WAT     H233990   9.852   3.546   3.103
11250WAT      O33991   3.180   8.071   4.864
11250WAT     H133992   3.279   8.054   4.867
11250WAT     H233993   3.143   8.034   4.779
11251WAT      O33994   9.017   7.907   7.997
11251WAT     H133995   8.928   7.950   8.016
11251WAT     H233996   9.049   7.857   8.077
11252WAT      O33997   3.819   5.178   9.125
11252WAT     H133998   3.808   5.198   9.027
11252WAT     H233999   3.734   5.200   9.173
11253WAT      O34000   8.205   0.909   2.924
11253WAT     H134001   8.216   0.926   3.022
11253WAT     H234002   8.208   0.996   2.875
11254WAT      O34003   8.902   9.091   5.011
11254WAT     H134004   8.966   9.133   5.074
11254WAT     H234005   8.859   9.161   4.954
11255WAT      O34006   0.210   6.058   1.181
11255WAT     H134007   0.280   6.112   1.227
11255WAT     H234008   0.184   6.102   1.095
11256WAT      O34009   3.698   8.546   8.027
11256WAT     H134010   3.795   8.543   8.051
11256WAT     H234011   3.685   8.502   7.938
11257WAT      O34012   2.680   9.246   4.860
11257WAT     H134013   2.737   9.328   4.861
11257WAT     H234014   2.731   9.171   4.816
11258WAT      O34015   1.687   9.658   9.652
11258WAT     H134016   1.660   9.588   9.718
11258WAT     H234017   1.606   9.696   9.608
11259WAT      O34018   1.311   3.992   6.911
11259WAT     H134019   1.377   3.979   6.837
11259WAT     H234020   1.240   3.922   6.905
11260WAT      O34021   2.084   1.513   6.840
11260WAT     H134022   2.180   1.525   6.816
11260WAT     H234023   2.071   1.536   6.937
11261WAT      O34024   7.115   2.048   6.179
11261WAT     H134025   7.137   1.976   6.113
11261WAT     H234026   7.016   2.052   6.192
11262WAT      O34027   3.319   8.392   2.841
11262WAT     H134028   3.405   8.359   2.801
11262WAT     H234029   3.244   8.377   2.777
11263WAT      O34030   5.258   4.833   2.937
11263WAT     H134031   5.232   4.788   3.022
11263WAT     H234032   5.341   4.792   2.901
11264WAT      O34033   7.443   2.611   4.751
11264WAT     H134034   7.366   2.598   4.688
11264WAT     H234035   7.493   2.526   4.760
11265WAT      O34036   1.700   4.865   2.874
11265WAT     H134037   1.659   4.956   2.875
11265WAT     H234038   1.747   4.850   2.787
11266WAT      O34039   7.021   7.874   4.101
11266WAT     H134040   6.989   7.833   4.187
11266WAT     H234041   7.035   7.803   4.033
11267WAT      O34042   9.548   6.009   1.745
11267WAT     H134043   9.466   6.040   1.697
11267WAT     H234044   9.534   6.020   1.844
11268WAT      O34045   5.744   1.293   1.102
11268WAT     H134046   5.744   1.315   1.200
11268WAT     H234047   5.771   1.373   1.049
11269WAT      O34048   5.801   5.126   0.699
11269WAT     H134049   5.814   5.044   0.754
11269WAT     H234050   5.889   5.169   0.681
11270WAT      O34051   6.444   5.645   8.772
11270WAT     H134052   6.390   5.635   8.856
11270WAT     H234053   6.384   5.669   8.696
11271WAT      O34054   1.968   3.859   8.994
11271WAT     H134055   1.919   3.853   9.081
11271WAT     H234056   2.061   3.824   9.007
11272WAT      O34057   2.030   9.353   9.299
11272WAT     H134058   2.078   9.428   9.254
11272WAT     H234059   1.947   9.388   9.343
11273WAT      O34060   9.158   5.908   8.060
11273WAT     H134061   9.210   5.889   8.143
11273WAT     H234062   9.204   5.981   8.008
11274WAT      O34063   3.304   2.088   8.405
11274WAT     H134064   3.228   2.132   8.357
11274WAT     H234065   3.339   2.011   8.351
11275WAT      O34066   8.540   6.663   2.608
11275WAT     H134067   8.607   6.673   2.681
11275WAT     H234068   8.556   6.577   2.560
11276WAT      O34069   8.391   7.568   3.179
11276WAT     H134070   8.361   7.488   3.231
11276WAT     H234071   8.312   7.617   3.143
11277WAT      O34072   9.534   8.635   9.852
11277WAT     H134073   9.471   8.682   9.914
11277WAT     H234074   9.620   8.686   9.847
11278WAT      O34075   7.489   2.060   9.458
11278WAT     H134076   7.460   2.153   9.436
11278WAT     H234077   7.561   2.063   9.527
11279WAT      O34078   1.519   9.830   5.214
11279WAT     H134079   1.497   9.853   5.119
11279WAT     H234080   1.552   9.911   5.261
11280WAT      O34081   6.266   8.895   9.255
11280WAT     H134082   6.356   8.902   9.297
11280WAT     H234083   6.198   8.940   9.313
11281WAT      O34084   8.648   5.935   5.711
11281WAT     H134085   8.583   5.882   5.657
11281WAT     H234086   8.623   5.931   5.808
11282WAT      O34087   3.761   8.956   5.425
11282WAT     H134088   3.667   8.937   5.453
11282WAT     H234089   3.825   8.919   5.493
11283WAT      O34090   2.793   6.562   6.405
11283WAT     H134091   2.717   6.627   6.409
11283WAT     H234092   2.762   6.474   6.441
11284WAT      O34093   6.220   0.137   9.282
11284WAT     H134094   6.133   0.178   9.258
11284WAT     H234095   6.288   0.208   9.299
11285WAT      O34096   2.677   2.809   8.189
11285WAT     H134097   2.645   2.850   8.275
11285WAT     H234098   2.649   2.866   8.112
11286WAT      O34099   3.826   9.817   9.182
11286WAT     H134100   3.727   9.816   9.198
11286WAT     H234101   3.873   9.777   9.260
11287WAT      O34102   3.427   3.993   0.481
11287WAT     H134103   3.416   3.915   0.419
11287WAT     H234104   3.393   3.968   0.571
11288WAT      O34105   6.191   5.121   4.427
11288WAT     H134106   6.204   5.074   4.340
11288WAT     H234107   6.127   5.197   4.415
11289WAT      O34108   8.093   2.187   6.900
11289WAT     H134109   8.046   2.275   6.908
11289WAT     H234110   8.036   2.116   6.942
11290WAT      O34111   2.200   2.699   0.011
11290WAT     H134112   2.128   2.740   0.067
11290WAT     H234113   2.284   2.693   0.066
11291WAT      O34114   0.454   2.100   3.048
11291WAT     H134115   0.361   2.138   3.049
11291WAT     H234116   0.513   2.156   3.106
11292WAT      O34117   3.951   7.200   8.711
11292WAT     H134118   4.016   7.207   8.635
11292WAT     H234119   3.886   7.276   8.706
11293WAT      O34120   9.569   7.078   6.510
11293WAT     H134121   9.603   7.148   6.446
11293WAT     H234122   9.469   7.078   6.510
11294WAT      O34123   5.520   5.515   4.264
11294WAT     H134124   5.565   5.518   4.175
11294WAT     H234125   5.588   5.496   4.335
11295WAT      O34126   6.733   2.902   4.469
11295WAT     H134127   6.710   2.881   4.564
11295WAT     H234128   6.831   2.920   4.461
11296WAT      O34129   4.045   6.753   7.336
11296WAT     H134130   3.970   6.719   7.280
11296WAT     H234131   4.077   6.681   7.398
11297WAT      O34132   3.433   1.959   3.755
11297WAT     H134133   3.401   1.944   3.662
11297WAT     H234134   3.530   1.983   3.753
11298WAT      O34135   0.187   6.867   2.900
11298WAT     H134136   0.265   6.810   2.872
11298WAT     H234137   0.128   6.883   2.820
11299WAT      O34138   0.764   4.803   5.041
11299WAT     H134139   0.689   4.809   5.107
11299WAT     H234140   0.809   4.714   5.050
11300WAT      O34141   9.071   7.948   9.588
11300WAT     H134142   9.036   8.038   9.613
11300WAT     H234143   9.048   7.929   9.493
11301WAT      O34144   9.331   9.696   4.878
11301WAT     H134145   9.319   9.757   4.957
11301WAT     H234146   9.273   9.615   4.890
11302WAT      O34147   2.598   4.937   0.162
11302WAT     H134148   2.653   4.972   0.087
11302WAT     H234149   2.591   5.007   0.234
11303WAT      O34150   0.685   8.323   6.132
11303WAT     H134151   0.710   8.370   6.217
11303WAT     H234152   0.593   8.284   6.142
11304WAT      O34153   9.492   7.426   3.741
11304WAT     H134154   9.588   7.439   3.767
11304WAT     H234155   9.481   7.439   3.643
11305WAT      O34156   6.585   1.683   6.105
11305WAT     H134157   6.661   1.725   6.055
11305WAT     H234158   6.529   1.755   6.146
11306WAT      O34159   9.842   9.366   7.545
11306WAT     H134160   9.808   9.405   7.460
11306WAT     H234161   9.921   9.307   7.525
11307WAT      O34162   7.483   0.131   6.559
11307WAT     H134163   7.568   0.140   6.612
11307WAT     H234164   7.423   0.208   6.579
11308WAT      O34165   1.899   3.765   1.516
11308WAT     H134166   1.869   3.838   1.455
11308WAT     H234167   1.911   3.801   1.608
11309WAT      O34168   3.768   8.749   0.606
11309WAT     H134169   3.830   8.758   0.528
11309WAT     H234170   3.676   8.778   0.579
11310WAT      O34171   6.837   9.576   1.249
11310WAT     H134172   6.902   9.643   1.212
11310WAT     H234173   6.866   9.484   1.222
11311WAT      O34174   0.222   6.230   7.149
11311WAT     H134175   0.258   6.232   7.055
11311WAT     H234176   0.267   6.301   7.203
11312WAT      O34177   5.614   6.231   0.601
11312WAT     H134178   5.669   6.149   0.616
11312WAT     H234179   5.605   6.247   0.503
11313WAT      O34180   0.711   5.055   9.264
11313WAT     H134181   0.639   5.056   9.195
11313WAT     H234182   0.674   5.023   9.351
11314WAT      O34183   5.882   3.560   9.833
11314WAT     H134184   5.873   3.509   9.918
11314WAT     H234185   5.794   3.564   9.786
11315WAT      O34186   3.334   6.316   5.634
11315WAT     H134187   3.333   6.218   5.615
11315WAT     H234188   3.244   6.355   5.614
11316WAT      O34189   2.748   1.016   9.153
11316WAT     H134190   2.833   0.971   9.180
11316WAT     H234191   2.670   0.964   9.189
11317WAT      O34192   8.543   0.841   7.060
11317WAT     H134193   8.550   0.745   7.088
11317WAT     H234194   8.528   0.846   6.961
11318WAT      O34195   5.222   3.253   2.769
11318WAT     H134196   5.142   3.307   2.746
11318WAT     H234197   5.218   3.164   2.723
11319WAT      O34198   2.701   6.775   3.197
11319WAT     H134199   2.611   6.782   3.241
11319WAT     H234200   2.708   6.844   3.125
11320WAT      O34201   4.404   1.687   4.243
11320WAT     H134202   4.384   1.743   4.323
11320WAT     H234203   4.417   1.592   4.271
11321WAT      O34204   0.670   7.565   2.018
11321WAT     H134205   0.658   7.466   2.031
11321WAT     H234206   0.582   7.610   2.028
11322WAT      O34207   9.453   6.507   8.992
11322WAT     H134208   9.448   6.411   8.966
11322WAT     H234209   9.457   6.564   8.909
11323WAT      O34210   4.086   6.711   4.941
11323WAT     H134211   3.993   6.726   4.906
11323WAT     H234212   4.098   6.762   5.026
11324WAT      O34213   9.181   4.649   7.917
11324WAT     H134214   9.208   4.578   7.982
11324WAT     H234215   9.219   4.737   7.947
11325WAT      O34216   9.480   4.254   2.511
11325WAT     H134217   9.452   4.315   2.437
11325WAT     H234218   9.510   4.308   2.589
11326WAT      O34219   1.340   5.083   0.692
11326WAT     H134220   1.333   5.024   0.611
11326WAT     H234221   1.434   5.081   0.726
11327WAT      O34222   7.789   4.663   6.352
11327WAT     H134223   7.754   4.724   6.423
11327WAT     H234224   7.828   4.719   6.278
11328WAT      O34225   1.933   0.049   3.928
11328WAT     H134226   1.855  -0.010   3.907
11328WAT     H234227   1.905   0.118   3.994
11329WAT      O34228  -0.001   8.918   0.288
11329WAT     H134229  -0.023   8.974   0.367
11329WAT     H234230   0.056   8.840   0.317
11330WAT      O34231   6.789   4.170   9.297
11330WAT     H134232   6.755   4.264   9.287
11330WAT     H234233   6.719   4.106   9.267
11331WAT      O34234   2.044   7.958   5.749
11331WAT     H134235   2.011   7.877   5.798
11331WAT     H234236   1.973   8.029   5.751
11332WAT      O34237   6.574   0.611   6.897
11332WAT     H134238   6.499   0.675   6.878
11332WAT     H234239   6.555   0.562   6.982
11333WAT      O34240   8.531   5.414   8.383
11333WAT     H134241   8.535   5.473   8.464
11333WAT     H234242   8.519   5.471   8.302
11334WAT      O34243   0.672   0.303   2.669
11334WAT     H134244   0.699   0.400   2.669
11334WAT     H234245   0.598   0.290   2.603
11335WAT      O34246   2.698   5.502   6.012
11335WAT     H134247   2.675   5.439   6.087
11335WAT     H234248   2.623   5.567   6.001
11336WAT      O34249   0.380   5.218   6.486
11336WAT     H134250   0.296   5.230   6.434
11336WAT     H234251   0.367   5.144   6.553
11337WAT      O34252   8.355   3.316   7.266
11337WAT     H134253   8.345   3.345   7.361
11337WAT     H234254   8.419   3.378   7.219
11338WAT      O34255   4.546   4.729   0.541
11338WAT     H134256   4.511   4.758   0.630
11338WAT     H234257   4.624   4.668   0.553
11339WAT      O34258   3.978   8.694   3.259
11339WAT     H134259   3.994   8.758   3.335
11339WAT     H234260   4.022   8.730   3.176
11340WAT      O34261   7.035   0.666   9.733
11340WAT     H134262   6.984   0.651   9.818
11340WAT     H234263   7.061   0.578   9.694
11341WAT      O34264   8.417   7.967   3.016
11341WAT     H134265   8.373   7.996   2.931
11341WAT     H234266   8.501   7.918   2.995
11342WAT      O34267   2.245   8.121   7.441
11342WAT     H134268   2.161   8.170   7.466
11342WAT     H234269   2.310   8.186   7.402
11343WAT      O34270   6.910   9.780   8.827
11343WAT     H134271   6.980   9.773   8.756
11343WAT     H234272   6.826   9.817   8.788
11344WAT      O34273   6.466   4.829   8.062
11344WAT     H134274   6.497   4.844   8.155
11344WAT     H234275   6.370   4.798   8.063
11345WAT      O34276   3.523   8.094   8.955
11345WAT     H134277   3.496   8.072   9.048
11345WAT     H234278   3.447   8.075   8.892
11346WAT      O34279   1.379   5.622   3.903
11346WAT     H134280   1.414   5.529   3.897
11346WAT     H234281   1.440   5.677   3.960
11347WAT      O34282   2.700   7.831   0.891
11347WAT     H134283   2.709   7.740   0.930
11347WAT     H234284   2.629   7.882   0.940
11348WAT      O34285   0.630   3.223   3.575
11348WAT     H134286   0.656   3.201   3.481
11348WAT     H234287   0.674   3.308   3.603
11349WAT      O34288   1.263   4.353   3.476
11349WAT     H134289   1.237   4.440   3.435
11349WAT     H234290   1.361   4.353   3.494
11350WAT      O34291   5.739   4.647   5.644
11350WAT     H134292   5.805   4.687   5.708
11350WAT     H234293   5.650   4.690   5.656
11351WAT      O34294   3.215   5.484   8.028
11351WAT     H134295   3.209   5.563   8.089
11351WAT     H234296   3.153   5.496   7.951
11352WAT      O34297   6.456   4.520   0.262
11352WAT     H134298   6.451   4.423   0.239
11352WAT     H234299   6.385   4.543   0.329
11353WAT      O34300   0.923   1.218   2.234
11353WAT     H134301   0.955   1.126   2.211
11353WAT     H234302   0.827   1.214   2.264
11354WAT      O34303   5.969   9.793   6.242
11354WAT     H134304   5.885   9.792   6.189
11354WAT     H234305   6.028   9.867   6.208
11355WAT      O34306   1.112   2.561   9.597
11355WAT     H134307   1.147   2.532   9.508
11355WAT     H234308   1.036   2.503   9.625
11356WAT      O34309   8.377   0.855   4.418
11356WAT     H134310   8.414   0.845   4.326
11356WAT     H234311   8.368   0.952   4.440
11357WAT      O34312   1.028   4.784   8.431
11357WAT     H134313   1.102   4.728   8.392
11357WAT     H234314   0.989   4.737   8.510
11358WAT      O34315   2.772   5.037   9.895
11358WAT     H134316   2.843   5.008   9.831
11358WAT     H234317   2.771   5.137   9.901
11359WAT      O34318   3.915   5.927   6.540
11359WAT     H134319   3.897   6.013   6.493
11359WAT     H234320   3.865   5.853   6.494
11360WAT      O34321   0.108   6.434   1.425
11360WAT     H134322   0.169   6.427   1.504
11360WAT     H234323   0.014   6.443   1.456
11361WAT      O34324   3.244   8.984   3.389
11361WAT     H134325   3.239   9.070   3.441
11361WAT     H234326   3.222   8.908   3.449
11362WAT      O34327   8.679   8.328   6.515
11362WAT     H134328   8.635   8.244   6.482
11362WAT     H234329   8.764   8.344   6.464
11363WAT      O34330   2.100   4.805   6.874
11363WAT     H134331   2.133   4.874   6.938
11363WAT     H234332   2.009   4.775   6.901
11364WAT      O34333   6.890   4.261   2.861
11364WAT     H134334   6.848   4.175   2.832
11364WAT     H234335   6.977   4.273   2.813
11365WAT      O34336   4.654   6.110   1.515
11365WAT     H134337   4.601   6.092   1.433
11365WAT     H234338   4.629   6.199   1.552
11366WAT      O34339   6.891   5.805   7.173
11366WAT     H134340   6.841   5.726   7.138
11366WAT     H234341   6.935   5.853   7.097
11367WAT      O34342   9.371   2.204   0.552
11367WAT     H134343   9.414   2.125   0.508
11367WAT     H234344   9.284   2.176   0.592
11368WAT      O34345   4.335   3.794   9.155
11368WAT     H134346   4.421   3.821   9.198
11368WAT     H234347   4.293   3.720   9.207
11369WAT      O34348   4.418   6.371   6.746
11369WAT     H134349   4.370   6.431   6.810
11369WAT     H234350   4.351   6.313   6.698
11370WAT      O34351   5.152   0.257   3.113
11370WAT     H134352   5.196   0.346   3.123
11370WAT     H234353   5.091   0.240   3.191
11371WAT      O34354   9.357   0.402   7.166
11371WAT     H134355   9.368   0.321   7.223
11371WAT     H234356   9.277   0.454   7.196
11372WAT      O34357   0.179   4.374   6.640
11372WAT     H134358   0.232   4.364   6.723
11372WAT     H234359   0.118   4.295   6.629
11373WAT      O34360   3.140   8.537   6.975
11373WAT     H134361   3.234   8.519   7.005
11373WAT     H234362   3.085   8.567   7.054
11374WAT      O34363   8.607   2.567   4.583
11374WAT     H134364   8.686   2.518   4.546
11374WAT     H234365   8.538   2.501   4.614
11375WAT      O34366   8.988   6.538   0.465
11375WAT     H134367   8.921   6.464   0.475
11375WAT     H234368   8.941   6.623   0.445
11376WAT      O34369   0.050   5.753   0.821
11376WAT     H134370   0.050   5.738   0.920
11376WAT     H234371   0.073   5.668   0.775
11377WAT      O34372   3.576   4.824   7.328
11377WAT     H134373   3.647   4.873   7.379
11377WAT     H234374   3.493   4.880   7.324
11378WAT      O34375   4.401   3.171   6.386
11378WAT     H134376   4.316   3.155   6.334
11378WAT     H234377   4.469   3.103   6.359
11379WAT      O34378   2.014   0.484   4.167
11379WAT     H134379   2.066   0.442   4.092
11379WAT     H234380   1.916   0.477   4.149
11380WAT      O34381   4.798   4.447   5.271
11380WAT     H134382   4.835   4.457   5.179
11380WAT     H234383   4.768   4.536   5.305
11381WAT      O34384   6.675   6.983   5.089
11381WAT     H134385   6.737   7.062   5.091
11381WAT     H234386   6.621   6.986   5.005
11382WAT      O34387   9.093   1.734   1.332
11382WAT     H134388   9.128   1.820   1.296
11382WAT     H234389   9.015   1.752   1.392
11383WAT      O34390   7.979   2.582   7.303
11383WAT     H134391   8.018   2.635   7.227
11383WAT     H234392   7.935   2.500   7.268
11384WAT      O34393   1.392   3.600   0.229
11384WAT     H134394   1.338   3.540   0.289
11384WAT     H234395   1.487   3.569   0.230
11385WAT      O34396   4.440   8.715   2.582
11385WAT     H134397   4.390   8.800   2.566
11385WAT     H234398   4.504   8.728   2.658
11386WAT      O34399   1.598   8.153   9.746
11386WAT     H134400   1.527   8.212   9.785
11386WAT     H234401   1.592   8.154   9.646
11387WAT      O34402   2.005   7.400   9.062
11387WAT     H134403   1.922   7.382   9.114
11387WAT     H234404   2.071   7.448   9.120
11388WAT      O34405   9.801   9.747   9.362
11388WAT     H134406   9.785   9.696   9.278
11388WAT     H234407   9.885   9.800   9.353
11389WAT      O34408   2.378   9.685   4.809
11389WAT     H134409   2.473   9.666   4.784
11389WAT     H234410   2.316   9.636   4.747
11390WAT      O34411   8.791   7.126   8.652
11390WAT     H134412   8.854   7.072   8.596
11390WAT     H234413   8.762   7.072   8.731
11391WAT      O34414   9.776   0.007   1.249
11391WAT     H134415   9.805   0.100   1.272
11391WAT     H234416   9.694  -0.016   1.303
11392WAT      O34417   8.162   6.871   5.187
11392WAT     H134418   8.091   6.815   5.229
11392WAT     H234419   8.190   6.942   5.251
11393WAT      O34420   9.221   7.460   1.803
11393WAT     H134421   9.262   7.512   1.728
11393WAT     H234422   9.289   7.400   1.843
11394WAT      O34423   3.274   6.030   7.508
11394WAT     H134424   3.271   5.942   7.461
11394WAT     H234425   3.262   6.016   7.607
11395WAT      O34426   8.533   2.756   3.440
11395WAT     H134427   8.446   2.779   3.397
11395WAT     H234428   8.517   2.722   3.533
11396WAT      O34429   8.631   8.463   9.213
11396WAT     H134430   8.584   8.551   9.205
11396WAT     H234431   8.569   8.395   9.251
11397WAT      O34432   5.732   3.285   5.461
11397WAT     H134433   5.805   3.244   5.407
11397WAT     H234434   5.765   3.370   5.503
11398WAT      O34435   1.785   6.472   9.430
11398WAT     H134436   1.782   6.379   9.392
11398WAT     H234437   1.729   6.476   9.512
11399WAT      O34438   4.722   0.150   8.677
11399WAT     H134439   4.819   0.146   8.651
11399WAT     H234440   4.674   0.213   8.616
11400WAT      O34441   7.141   9.594   9.669
11400WAT     H134442   7.171   9.507   9.631
11400WAT     H234443   7.155   9.594   9.768
11401WAT      O34444   5.051   4.159   3.806
11401WAT     H134445   5.044   4.085   3.874
11401WAT     H234446   5.145   4.192   3.802
11402WAT      O34447   1.157   4.462   6.315
11402WAT     H134448   1.106   4.547   6.315
11402WAT     H234449   1.255   4.481   6.326
11403WAT      O34450   4.242   3.411   5.102
11403WAT     H134451   4.149   3.376   5.099
11403WAT     H234452   4.262   3.460   5.018
11404WAT      O34453   7.009   3.380   7.988
11404WAT     H134454   7.064   3.342   7.913
11404WAT     H234455   6.947   3.449   7.952
11405WAT      O34456   9.622   5.858   6.588
11405WAT     H134457   9.575   5.903   6.665
11405WAT     H234458   9.694   5.798   6.624
11406WAT      O34459   6.084   9.372   6.130
11406WAT     H134460   6.076   9.438   6.205
11406WAT     H234461   6.168   9.319   6.141
11407WAT      O34462   0.356   1.184   1.921
11407WAT     H134463   0.430   1.233   1.967
11407WAT     H234464   0.269   1.229   1.940
11408WAT      O34465   5.613   5.136   7.550
11408WAT     H134466   5.615   5.047   7.594
11408WAT     H234467   5.679   5.138   7.474
11409WAT      O34468   9.245   1.001   9.468
11409WAT     H134469   9.327   1.046   9.503
11409WAT     H234470   9.269   0.944   9.389
11410WAT      O34471   2.511   1.686   5.752
11410WAT     H134472   2.513   1.662   5.654
11410WAT     H234473   2.560   1.616   5.804
11411WAT      O34474   5.060   2.131   4.119
11411WAT     H134475   5.134   2.095   4.176
11411WAT     H234476   4.974   2.129   4.170
11412WAT      O34477   7.892   0.935   1.803
11412WAT     H134478   7.947   0.863   1.759
11412WAT     H234479   7.851   0.992   1.732
11413WAT      O34480   1.335   1.614   5.609
11413WAT     H134481   1.422   1.628   5.560
11413WAT     H234482   1.286   1.700   5.616
11414WAT      O34483   0.305   7.939   5.621
11414WAT     H134484   0.351   7.948   5.533
11414WAT     H234485   0.373   7.948   5.694
11415WAT      O34486   4.040   5.631   5.718
11415WAT     H134487   4.111   5.574   5.759
11415WAT     H234488   4.073   5.668   5.630
11416WAT      O34489   6.601   7.796   8.797
11416WAT     H134490   6.644   7.710   8.825
11416WAT     H234491   6.579   7.850   8.879
11417WAT      O34492   4.249   6.151   1.175
11417WAT     H134493   4.183   6.093   1.127
11417WAT     H234494   4.269   6.231   1.119
11418WAT      O34495   3.953   0.925   8.345
11418WAT     H134496   3.998   0.956   8.261
11418WAT     H234497   3.959   0.997   8.414
11419WAT      O34498   6.960   8.271   8.236
11419WAT     H134499   7.025   8.280   8.160
11419WAT     H234500   7.000   8.215   8.308
11420WAT      O34501   3.797   9.042   8.757
11420WAT     H134502   3.813   9.139   8.741
11420WAT     H234503   3.864   8.989   8.704
11421WAT      O34504   9.234   0.240   0.511
11421WAT     H134505   9.150   0.215   0.558
11421WAT     H234506   9.312   0.202   0.560
11422WAT      O34507   8.286   6.034   2.638
11422WAT     H134508   8.211   6.052   2.702
11422WAT     H234509   8.272   5.945   2.594
11423WAT      O34510   9.041   6.205   5.693
11423WAT     H134511   9.022   6.178   5.788
11423WAT     H234512   9.101   6.285   5.693
11424WAT      O34513   0.480   6.462   6.926
11424WAT     H134514   0.434   6.503   7.004
11424WAT     H234515   0.475   6.362   6.933
11425WAT      O34516   4.700   1.006   0.570
11425WAT     H134517   4.673   1.052   0.655
11425WAT     H234518   4.675   0.909   0.576
11426WAT      O34519   7.946   3.606   9.119
11426WAT     H134520   7.850   3.609   9.148
11426WAT     H234521   8.002   3.570   9.194
11427WAT      O34522   3.326   9.402   0.678
11427WAT     H134523   3.417   9.384   0.640
11427WAT     H234524   3.333   9.410   0.778
11428WAT      O34525   0.922   5.993   8.714
11428WAT     H134526   0.942   5.916   8.773
11428WAT     H234527   0.823   6.000   8.700
11429WAT      O34528   7.453   1.683   7.550
11429WAT     H134529   7.398   1.747   7.497
11429WAT     H234530   7.396   1.607   7.581
11430WAT      O34531   8.478   5.911   1.802
11430WAT     H134532   8.464   5.928   1.705
11430WAT     H234533   8.458   5.815   1.822
11431WAT      O34534   0.843   9.050   6.227
11431WAT     H134535   0.779   9.060   6.302
11431WAT     H234536   0.838   9.130   6.167
11432WAT      O34537   4.604   0.801   3.896
11432WAT     H134538   4.615   0.705   3.921
11432WAT     H234539   4.509   0.817   3.870
11433WAT      O34540   4.375   1.503   9.753
11433WAT     H134541   4.376   1.595   9.714
11433WAT     H234542   4.300   1.495   9.818
11434WAT      O34543   7.020   3.741   3.861
11434WAT     H134544   7.056   3.814   3.919
11434WAT     H234545   6.932   3.770   3.823
11435WAT      O34546   6.708   8.207   8.485
11435WAT     H134547   6.706   8.138   8.557
11435WAT     H234548   6.742   8.166   8.401
11436WAT      O34549   5.670   4.112   7.216
11436WAT     H134550   5.582   4.066   7.217
11436WAT     H234551   5.686   4.151   7.125
11437WAT      O34552   6.352   1.981   2.352
11437WAT     H134553   6.391   2.067   2.317
11437WAT     H234554   6.255   1.978   2.330
11438WAT      O34555   3.542   8.721   3.349
11438WAT     H134556   3.481   8.752   3.277
11438WAT     H234557   3.511   8.631   3.382
11439WAT      O34558   0.364   7.564   3.082
11439WAT     H134559   0.314   7.484   3.050
11439WAT     H234560   0.350   7.640   3.019
11440WAT      O34561   5.160   4.487   2.629
11440WAT     H134562   5.091   4.450   2.566
11440WAT     H234563   5.219   4.551   2.580
11441WAT      O34564   1.251   2.949   3.593
11441WAT     H134565   1.276   2.861   3.552
11441WAT     H234566   1.158   2.973   3.564
11442WAT      O34567   0.702   4.610   3.636
11442WAT     H134568   0.736   4.594   3.729
11442WAT     H234569   0.746   4.692   3.599
11443WAT      O34570   0.920   0.391   7.320
11443WAT     H134571   1.017   0.417   7.326
11443WAT     H234572   0.871   0.459   7.265
11444WAT      O34573   1.246   2.161   5.062
11444WAT     H134574   1.198   2.167   5.150
11444WAT     H234575   1.343   2.145   5.078
11445WAT      O34576   9.811   7.022   3.977
11445WAT     H134577   9.793   6.964   4.056
11445WAT     H234578   9.859   6.969   3.907
11446WAT      O34579   2.737   8.629   1.775
11446WAT     H134580   2.646   8.667   1.762
11446WAT     H234581   2.806   8.696   1.748
11447WAT      O34582   1.210   6.153   0.285
11447WAT     H134583   1.155   6.106   0.215
11447WAT     H234584   1.153   6.219   0.333
11448WAT      O34585   6.961   2.147   5.478
11448WAT     H134586   6.917   2.074   5.531
11448WAT     H234587   6.917   2.234   5.499
11449WAT      O34588   3.449   3.307   9.672
11449WAT     H134589   3.485   3.215   9.692
11449WAT     H234590   3.403   3.306   9.583
11450WAT      O34591   7.970   5.675   0.098
11450WAT     H134592   7.998   5.689   0.003
11450WAT     H234593   7.901   5.743   0.123
11451WAT      O34594   5.697   6.761   0.495
11451WAT     H134595   5.767   6.825   0.525
11451WAT     H234596   5.705   6.676   0.548
11452WAT      O34597   6.880   2.344   1.370
11452WAT     H134598   6.870   2.443   1.378
11452WAT     H234599   6.945   2.310   1.438
11453WAT      O34600   6.126   7.332   3.371
11453WAT     H134601   6.036   7.344   3.413
11453WAT     H234602   6.166   7.246   3.403
11454WAT      O34603   1.891   0.516   2.490
11454WAT     H134604   1.810   0.545   2.440
11454WAT     H234605   1.969   0.512   2.427
11455WAT      O34606   6.528   6.468   2.469
11455WAT     H134607   6.558   6.539   2.405
11455WAT     H234608   6.607   6.432   2.517
11456WAT      O34609   9.473   2.360   8.732
11456WAT     H134610   9.427   2.448   8.726
11456WAT     H234611   9.475   2.317   8.641
11457WAT      O34612   2.472   3.152   5.653
11457WAT     H134613   2.409   3.189   5.585
11457WAT     H234614   2.543   3.099   5.607
11458WAT      O34615   4.496   6.523   9.263
11458WAT     H134616   4.536   6.614   9.265
11458WAT     H234617   4.396   6.530   9.269
11459WAT      O34618   6.587   0.611   9.525
11459WAT     H134619   6.525   0.689   9.534
11459WAT     H234620   6.661   0.634   9.462
11460WAT      O34621   6.039   3.635   3.626
11460WAT     H134622   6.084   3.664   3.711
11460WAT     H234623   5.958   3.690   3.611
11461WAT      O34624   6.826   7.753   4.983
11461WAT     H134625   6.847   7.813   4.906
11461WAT     H234626   6.904   7.751   5.046
11462WAT      O34627   0.538   4.995   0.428
11462WAT     H134628   0.439   4.990   0.411
11462WAT     H234629   0.557   5.067   0.494
11463WAT      O34630   0.845   7.812   7.199
11463WAT     H134631   0.793   7.897   7.191
11463WAT     H234632   0.935   7.825   7.157
11464WAT      O34633   6.816   6.598   8.688
11464WAT     H134634   6.734   6.628   8.640
11464WAT     H234635   6.798   6.593   8.786
11465WAT      O34636   5.193   7.156   9.028
11465WAT     H134637   5.160   7.107   8.948
11465WAT     H234638   5.239   7.092   9.090
11466WAT      O34639   9.079   2.148   5.048
11466WAT     H134640   9.104   2.054   5.071
11466WAT     H234641   9.110   2.209   5.121
11467WAT      O34642   1.772   8.819   0.226
11467WAT     H134643   1.826   8.825   0.142
11467WAT     H234644   1.678   8.794   0.203
11468WAT      O34645   5.760   1.148   0.266
11468WAT     H134646   5.822   1.171   0.191
11468WAT     H234647   5.674   1.114   0.228
11469WAT      O34648   6.210   8.830   0.690
11469WAT     H134649   6.263   8.913   0.707
11469WAT     H234650   6.127   8.832   0.745
11470WAT      O34651   4.834   2.610   4.754
11470WAT     H134652   4.902   2.537   4.754
11470WAT     H234653   4.743   2.571   4.765
11471WAT      O34654   2.365   4.464   0.600
11471WAT     H134655   2.377   4.415   0.514
11471WAT     H234656   2.270   4.494   0.609
11472WAT      O34657   6.819   5.327   1.525
11472WAT     H134658   6.730   5.301   1.487
11472WAT     H234659   6.892   5.302   1.462
11473WAT      O34660   2.264   0.306   6.168
11473WAT     H134661   2.186   0.274   6.222
11473WAT     H234662   2.346   0.308   6.226
11474WAT      O34663   0.590   0.629   1.981
11474WAT     H134664   0.505   0.577   1.970
11474WAT     H234665   0.569   0.722   2.012
11475WAT      O34666   1.282   2.891   1.780
11475WAT     H134667   1.223   2.960   1.738
11475WAT     H234668   1.376   2.924   1.781
11476WAT      O34669   3.773   5.177   3.880
11476WAT     H134670   3.729   5.087   3.880
11476WAT     H234671   3.807   5.197   3.972
11477WAT      O34672   1.638   4.753   5.951
11477WAT     H134673   1.569   4.690   5.985
11477WAT     H234674   1.635   4.754   5.851
11478WAT      O34675   3.010   0.589   7.092
11478WAT     H134676   3.006   0.645   7.175
11478WAT     H234677   2.917   0.570   7.060
11479WAT      O34678   7.905   4.480   2.801
11479WAT     H134679   7.909   4.469   2.702
11479WAT     H234680   7.957   4.407   2.845
11480WAT      O34681   1.555   5.538   2.085
11480WAT     H134682   1.604   5.450   2.084
11480WAT     H234683   1.584   5.591   2.165
11481WAT      O34684   4.801   8.074   1.403
11481WAT     H134685   4.890   8.119   1.411
11481WAT     H234686   4.745   8.097   1.483
11482WAT      O34687   7.704   4.151   2.073
11482WAT     H134688   7.788   4.140   2.125
11482WAT     H234689   7.699   4.244   2.036
11483WAT      O34690   1.040   4.581   2.914
11483WAT     H134691   1.080   4.550   2.828
11483WAT     H234692   1.085   4.535   2.990
11484WAT      O34693   7.979   7.923   9.828
11484WAT     H134694   7.935   7.886   9.746
11484WAT     H234695   7.930   8.004   9.858
11485WAT      O34696   1.693   2.801   2.864
11485WAT     H134697   1.689   2.820   2.766
11485WAT     H234698   1.652   2.711   2.882
11486WAT      O34699   5.801   5.773   7.682
11486WAT     H134700   5.714   5.779   7.634
11486WAT     H234701   5.875   5.799   7.620
11487WAT      O34702   9.697   3.088   5.081
11487WAT     H134703   9.703   3.086   4.981
11487WAT     H234704   9.788   3.086   5.120
11488WAT      O34705   6.562   6.151   2.689
11488WAT     H134706   6.539   6.118   2.598
11488WAT     H234707   6.644   6.209   2.684
11489WAT      O34708   6.122   4.149   2.879
11489WAT     H134709   6.061   4.198   2.817
11489WAT     H234710   6.167   4.213   2.941
11490WAT      O34711   7.762   5.710   1.997
11490WAT     H134712   7.770   5.727   1.899
11490WAT     H234713   7.852   5.683   2.033
11491WAT      O34714   7.991   7.299   7.789
11491WAT     H134715   7.999   7.341   7.879
11491WAT     H234716   7.905   7.248   7.783
11492WAT      O34717   0.164   9.025   0.757
11492WAT     H134718   0.224   9.052   0.832
11492WAT     H234719   0.184   9.081   0.676
11493WAT      O34720   9.210   7.310   1.143
11493WAT     H134721   9.142   7.319   1.070
11493WAT     H234722   9.164   7.311   1.232
11494WAT      O34723   6.832   8.318   3.119
11494WAT     H134724   6.866   8.236   3.071
11494WAT     H234725   6.818   8.297   3.215
11495WAT      O34726   1.308   1.252   1.142
11495WAT     H134727   1.387   1.258   1.081
11495WAT     H234728   1.250   1.333   1.130
11496WAT      O34729   0.577   9.643   7.854
11496WAT     H134730   0.635   9.645   7.773
11496WAT     H234731   0.613   9.575   7.918
11497WAT      O34732   6.547   8.623   7.324
11497WAT     H134733   6.582   8.655   7.412
11497WAT     H234734   6.477   8.553   7.340
11498WAT      O34735   1.651   4.584   8.838
11498WAT     H134736   1.676   4.627   8.751
11498WAT     H234737   1.604   4.651   8.895
11499WAT      O34738   0.590   6.016   2.380
11499WAT     H134739   0.494   6.039   2.362
11499WAT     H234740   0.650   6.077   2.328
11500WAT      O34741   0.285   2.713   4.799
11500WAT     H134742   0.359   2.699   4.733
11500WAT     H234743   0.310   2.673   4.886
11501WAT      O34744   6.150   3.139   6.638
11501WAT     H134745   6.108   3.116   6.550
11501WAT     H234746   6.084   3.191   6.693
11502WAT      O34747   2.692   6.805   7.352
11502WAT     H134748   2.660   6.710   7.344
11502WAT     H234749   2.788   6.810   7.327
11503WAT      O34750   4.610   1.182   2.121
11503WAT     H134751   4.566   1.104   2.166
11503WAT     H234752   4.560   1.206   2.038
11504WAT      O34753   5.625   5.004   8.281
11504WAT     H134754   5.528   4.978   8.287
11504WAT     H234755   5.669   4.992   8.370
11505WAT      O34756   1.875   2.471   2.708
11505WAT     H134757   1.954   2.530   2.692
11505WAT     H234758   1.864   2.456   2.806
11506WAT      O34759   8.236   3.307   0.060
11506WAT     H134760   8.268   3.248   0.134
11506WAT     H234761   8.201   3.393   0.097
11507WAT      O34762   5.832   2.693   4.042
11507WAT     H134763   5.860   2.787   4.026
11507WAT     H234764   5.732   2.687   4.040
11508WAT      O34765   1.529   9.670   3.373
11508WAT     H134766   1.601   9.701   3.435
11508WAT     H234767   1.443   9.716   3.395
11509WAT      O34768   7.780   1.340   0.660
11509WAT     H134769   7.835   1.423   0.664
11509WAT     H234770   7.685   1.364   0.638
11510WAT      O34771   4.831   0.282   7.104
11510WAT     H134772   4.884   0.201   7.131
11510WAT     H234773   4.841   0.297   7.006
11511WAT      O34774   4.401   9.228   0.322
11511WAT     H134775   4.447   9.313   0.297
11511WAT     H234776   4.470   9.160   0.349
11512WAT      O34777   3.006   4.050   8.209
11512WAT     H134778   3.079   4.015   8.267
11512WAT     H234779   2.944   3.975   8.184
11513WAT      O34780   2.421   7.761   1.203
11513WAT     H134781   2.510   7.744   1.246
11513WAT     H234782   2.361   7.683   1.218
11514WAT      O34783   0.440   8.897   2.390
11514WAT     H134784   0.380   8.852   2.456
11514WAT     H234785   0.460   8.835   2.314
11515WAT      O34786   3.188   9.287   5.218
11515WAT     H134787   3.147   9.289   5.127
11515WAT     H234788   3.286   9.269   5.209
11516WAT      O34789   6.547   9.149   8.846
11516WAT     H134790   6.614   9.192   8.905
11516WAT     H234791   6.570   9.167   8.750
11517WAT      O34792   8.530   0.010   5.987
11517WAT     H134793   8.580   0.086   6.026
11517WAT     H234794   8.480  -0.038   6.059
11518WAT      O34795   7.753   1.847   4.298
11518WAT     H134796   7.691   1.805   4.365
11518WAT     H234797   7.713   1.931   4.263
11519WAT      O34798   4.710   0.557   6.374
11519WAT     H134799   4.736   0.478   6.318
11519WAT     H234800   4.688   0.634   6.315
11520WAT      O34801   9.324   1.895   9.835
11520WAT     H134802   9.329   1.991   9.860
11520WAT     H234803   9.336   1.885   9.736
11521WAT      O34804   8.855   4.257   6.066
11521WAT     H134805   8.885   4.192   5.995
11521WAT     H234806   8.757   4.273   6.057
11522WAT      O34807   9.290   7.552   1.322
11522WAT     H134808   9.358   7.546   1.248
11522WAT     H234809   9.246   7.463   1.333
11523WAT      O34810   5.760   0.890   7.265
11523WAT     H134811   5.828   0.845   7.323
11523WAT     H234812   5.764   0.989   7.281
11524WAT      O34813   5.382   5.983   1.750
11524WAT     H134814   5.427   5.893   1.748
11524WAT     H234815   5.380   6.021   1.658
11525WAT      O34816   2.044   7.737   4.703
11525WAT     H134817   2.035   7.775   4.795
11525WAT     H234818   2.140   7.716   4.685
11526WAT      O34819   3.805   1.879   5.756
11526WAT     H134820   3.826   1.963   5.805
11526WAT     H234821   3.722   1.838   5.793
11527WAT      O34822   0.982   5.798   7.165
11527WAT     H134823   1.058   5.801   7.100
11527WAT     H234824   0.934   5.711   7.158
11528WAT      O34825   6.911   1.912   4.862
11528WAT     H134826   6.813   1.919   4.884
11528WAT     H234827   6.963   1.964   4.930
11529WAT      O34828   1.590   3.572   9.488
11529WAT     H134829   1.648   3.652   9.472
11529WAT     H234830   1.538   3.550   9.405
11530WAT      O34831   1.051   4.564   0.930
11530WAT     H134832   1.148   4.565   0.955
11530WAT     H234833   0.997   4.607   1.003
11531WAT      O34834   6.374   9.373   3.602
11531WAT     H134835   6.389   9.424   3.687
11531WAT     H234836   6.461   9.361   3.555
11532WAT      O34837   2.542   6.743   0.400
11532WAT     H134838   2.450   6.717   0.372
11532WAT     H234839   2.571   6.686   0.477
11533WAT      O34840   0.855   8.142   0.332
11533WAT     H134841   0.899   8.213   0.277
11533WAT     H234842   0.875   8.159   0.429
11534WAT      O34843   0.030   9.713   3.196
11534WAT     H134844  -0.064   9.679   3.197
11534WAT     H234845   0.066   9.708   3.103
11535WAT      O34846   9.433   8.310   8.428
11535WAT     H134847   9.519   8.361   8.430
11535WAT     H234848   9.442   8.226   8.481
11536WAT      O34849   3.074   3.370   7.357
11536WAT     H134850   2.996   3.405   7.410
11536WAT     H234851   3.046   3.289   7.306
11537WAT      O34852   6.372   8.560   6.413
11537WAT     H134853   6.446   8.538   6.477
11537WAT     H234854   6.336   8.475   6.374
11538WAT      O34855   1.164   8.355   6.217
11538WAT     H134856   1.170   8.446   6.259
11538WAT     H234857   1.178   8.363   6.118
11539WAT      O34858   2.970   2.454   8.952
11539WAT     H134859   2.995   2.496   9.040
11539WAT     H234860   2.992   2.357   8.955
11540WAT      O34861   2.488   5.375   9.139
11540WAT     H134862   2.394   5.405   9.125
11540WAT     H234863   2.545   5.410   9.065
11541WAT      O34864   5.730   0.798   6.604
11541WAT     H134865   5.826   0.777   6.582
11541WAT     H234866   5.726   0.849   6.690
11542WAT      O34867   1.501   8.110   8.096
11542WAT     H134868   1.592   8.128   8.133
11542WAT     H234869   1.461   8.031   8.143
11543WAT      O34870   7.903   9.077   3.730
11543WAT     H134871   7.918   9.157   3.788
11543WAT     H234872   7.990   9.049   3.690
11544WAT      O34873   8.047   2.871   1.851
11544WAT     H134874   8.044   2.799   1.921
11544WAT     H234875   8.138   2.874   1.809
11545WAT      O34876   5.585   2.056   5.334
11545WAT     H134877   5.638   2.085   5.413
11545WAT     H234878   5.646   2.028   5.260
11546WAT      O34879   0.322   9.391   6.421
11546WAT     H134880   0.335   9.489   6.437
11546WAT     H234881   0.363   9.366   6.334
11547WAT      O34882   5.407   2.175   7.923
11547WAT     H134883   5.430   2.230   7.844
11547WAT     H234884   5.429   2.079   7.905
11548WAT      O34885   5.058   1.243   8.802
11548WAT     H134886   5.131   1.255   8.869
11548WAT     H234887   5.043   1.328   8.752
11549WAT      O34888   4.795   1.585   6.009
11549WAT     H134889   4.813   1.494   6.044
11549WAT     H234890   4.722   1.628   6.064
11550WAT      O34891   5.795   5.197   7.881
11550WAT     H134892   5.794   5.123   7.948
11550WAT     H234893   5.889   5.226   7.864
11551WAT      O34894   8.686   7.509   9.183
11551WAT     H134895   8.622   7.514   9.105
11551WAT     H234896   8.773   7.471   9.151
11552WAT      O34897   9.303   5.988   9.584
11552WAT     H134898   9.317   5.912   9.648
11552WAT     H234899   9.299   5.953   9.491
11553WAT      O34900   9.401   2.921   2.492
11553WAT     H134901   9.466   2.991   2.523
11553WAT     H234902   9.404   2.916   2.392
11554WAT      O34903   8.898   3.424   7.494
11554WAT     H134904   8.833   3.352   7.518
11554WAT     H234905   8.931   3.468   7.578
11555WAT      O34906   7.143   0.056   0.397
11555WAT     H134907   7.222   0.101   0.357
11555WAT     H234908   7.079   0.124   0.432
11556WAT      O34909   3.432   5.891   4.567
11556WAT     H134910   3.430   5.841   4.654
11556WAT     H234911   3.521   5.877   4.523
11557WAT      O34912   3.600   9.521   3.627
11557WAT     H134913   3.686   9.543   3.581
11557WAT     H234914   3.531   9.496   3.559
11558WAT      O34915   1.111   2.954   8.771
11558WAT     H134916   1.057   3.031   8.806
11558WAT     H234917   1.158   2.983   8.687
11559WAT      O34918   1.926   2.189   0.397
11559WAT     H134919   1.917   2.126   0.320
11559WAT     H234920   1.845   2.247   0.402
11560WAT      O34921   5.529   2.201   2.121
11560WAT     H134922   5.474   2.269   2.169
11560WAT     H234923   5.543   2.121   2.180
11561WAT      O34924   3.802   6.358   6.047
11561WAT     H134925   3.838   6.352   5.954
11561WAT     H234926   3.814   6.451   6.081
11562WAT      O34927   7.510   0.145   5.004
11562WAT     H134928   7.469   0.234   5.023
11562WAT     H234929   7.556   0.112   5.086
11563WAT      O34930   3.531   8.461   5.471
11563WAT     H134931   3.436   8.491   5.468
11563WAT     H234932   3.550   8.404   5.391
11564WAT      O34933   4.287   1.011   1.902
11564WAT     H134934   4.247   1.103   1.909
11564WAT     H234935   4.246   0.963   1.825
11565WAT      O34936   8.181   2.842   1.196
11565WAT     H134937   8.173   2.772   1.268
11565WAT     H234938   8.216   2.799   1.113
11566WAT      O34939   8.180   6.368   3.497
11566WAT     H134940   8.185   6.326   3.406
11566WAT     H234941   8.260   6.426   3.511
11567WAT      O34942   0.453   4.511   3.193
11567WAT     H134943   0.355   4.525   3.179
11567WAT     H234944   0.489   4.583   3.251
11568WAT      O34945   3.107   2.962   9.293
11568WAT     H134946   3.050   2.986   9.215
11568WAT     H234947   3.049   2.921   9.364
11569WAT      O34948   6.502   4.321   8.265
11569WAT     H134949   6.558   4.272   8.198
11569WAT     H234950   6.409   4.328   8.231
11570WAT      O34951   3.431   9.244   6.687
11570WAT     H134952   3.408   9.257   6.590
11570WAT     H234953   3.524   9.275   6.703
11571WAT      O34954   7.370   2.231   4.656
11571WAT     H134955   7.367   2.263   4.561
11571WAT     H234956   7.449   2.272   4.702
11572WAT      O34957   4.062   1.727   8.145
11572WAT     H134958   4.128   1.763   8.079
11572WAT     H234959   4.040   1.798   8.212
11573WAT      O34960   3.925   0.723   6.370
11573WAT     H134961   3.910   0.641   6.315
11573WAT     H234962   3.977   0.790   6.317
11574WAT      O34963   2.440   3.571   3.614
11574WAT     H134964   2.496   3.600   3.537
11574WAT     H234965   2.445   3.472   3.624
11575WAT      O34966   0.969   1.367   3.979
11575WAT     H134967   0.902   1.433   4.014
11575WAT     H234968   1.047   1.417   3.941
11576WAT      O34969   4.957   3.407   2.396
11576WAT     H134970   5.032   3.421   2.461
11576WAT     H234971   4.895   3.485   2.399
11577WAT      O34972   0.253   7.034   4.981
11577WAT     H134973   0.257   7.048   4.882
11577WAT     H234974   0.270   7.121   5.027
11578WAT      O34975   2.951   1.528   4.060
11578WAT     H134976   2.861   1.513   4.020
11578WAT     H234977   3.012   1.567   3.991
11579WAT      O34978   8.984   7.814   4.620
11579WAT     H134979   8.944   7.758   4.692
11579WAT     H234980   9.005   7.756   4.541
11580WAT      O34981   5.086   7.792   6.376
11580WAT     H134982   5.168   7.846   6.394
11580WAT     H234983   5.044   7.765   6.463
11581WAT      O34984   4.210   5.875   0.455
11581WAT     H134985   4.291   5.930   0.474
11581WAT     H234986   4.234   5.803   0.390
11582WAT      O34987   9.183   3.887   3.362
11582WAT     H134988   9.159   3.941   3.282
11582WAT     H234989   9.229   3.803   3.334
11583WAT      O34990   8.827   5.153   1.805
11583WAT     H134991   8.786   5.234   1.762
11583WAT     H234992   8.906   5.181   1.859
11584WAT      O34993   5.751   3.679   7.873
11584WAT     H134994   5.704   3.753   7.922
11584WAT     H234995   5.770   3.604   7.936
11585WAT      O34996   4.862   8.482   2.498
11585WAT     H134997   4.914   8.400   2.474
11585WAT     H234998   4.847   8.537   2.416
11586WAT      O34999   7.648   6.225   8.035
11586WAT     H135000   7.587   6.225   7.956
11586WAT     H235001   7.735   6.268   8.011
11587WAT      O35002   5.405   3.593   8.459
11587WAT     H135003   5.484   3.533   8.449
11587WAT     H235004   5.426   3.683   8.421
11588WAT      O35005   6.021   9.552   5.911
11588WAT     H135006   6.015   9.464   5.960
11588WAT     H235007   5.928   9.586   5.894
11589WAT      O35008   2.726   3.727   5.535
11589WAT     H135009   2.673   3.812   5.541
11589WAT     H235010   2.817   3.747   5.499
11590WAT      O35011   3.202   8.161   7.671
11590WAT     H135012   3.246   8.235   7.722
11590WAT     H235013   3.261   8.080   7.673
11591WAT      O35014   0.041   1.036   5.390
11591WAT     H135015   0.077   1.128   5.405
11591WAT     H235016   0.099   0.970   5.438
11592WAT      O35017   6.069   2.879   1.079
11592WAT     H135018   6.144   2.840   1.133
11592WAT     H235019   5.988   2.822   1.088
11593WAT      O35020   6.476   4.417   1.248
11593WAT     H135021   6.391   4.364   1.258
11593WAT     H235022   6.542   4.387   1.316
11594WAT      O35023   8.150   8.026   0.303
11594WAT     H135024   8.163   8.048   0.399
11594WAT     H235025   8.150   7.927   0.290
11595WAT      O35026   6.720   9.668   5.624
11595WAT     H135027   6.706   9.755   5.672
11595WAT     H235028   6.632   9.631   5.596
11596WAT      O35029   7.432   2.548   5.946
11596WAT     H135030   7.400   2.544   5.851
11596WAT     H235031   7.353   2.549   6.007
11597WAT      O35032   0.775   1.682   7.978
11597WAT     H135033   0.725   1.759   8.017
11597WAT     H235034   0.721   1.642   7.903
11598WAT      O35035   1.301   5.304   4.512
11598WAT     H135036   1.250   5.292   4.427
11598WAT     H235037   1.375   5.370   4.498
11599WAT      O35038   5.657   9.056   2.650
11599WAT     H135039   5.703   9.041   2.562
11599WAT     H235040   5.724   9.087   2.718
11600WAT      O35041   8.767   0.898   9.314
11600WAT     H135042   8.730   0.926   9.402
11600WAT     H235043   8.781   0.799   9.314
11601WAT      O35044   2.388   1.132   3.583
11601WAT     H135045   2.411   1.226   3.610
11601WAT     H235046   2.427   1.068   3.649
11602WAT      O35047   8.338   1.997   7.796
11602WAT     H135048   8.254   1.958   7.759
11602WAT     H235049   8.358   2.084   7.752
11603WAT      O35050   4.283   9.458   2.146
11603WAT     H135051   4.364   9.516   2.152
11603WAT     H235052   4.305   9.376   2.094
11604WAT      O35053   3.229   6.832   5.901
11604WAT     H135054   3.250   6.799   5.993
11604WAT     H235055   3.136   6.808   5.877
11605WAT      O35056   9.562   2.605   6.490
11605WAT     H135057   9.535   2.670   6.561
11605WAT     H235058   9.651   2.566   6.512
11606WAT      O35059   7.554   9.698   6.527
11606WAT     H135060   7.486   9.675   6.458
11606WAT     H235061   7.525   9.779   6.577
11607WAT      O35062   7.914   6.492   9.479
11607WAT     H135063   7.925   6.440   9.394
11607WAT     H235064   8.004   6.511   9.518
11608WAT      O35065   0.902   4.970   6.309
11608WAT     H135066   0.951   4.899   6.258
11608WAT     H235067   0.813   4.934   6.338
11609WAT      O35068   1.884   8.599   2.243
11609WAT     H135069   1.916   8.506   2.225
11609WAT     H235070   1.820   8.627   2.171
11610WAT      O35071   0.672   3.349   4.377
11610WAT     H135072   0.720   3.274   4.330
11610WAT     H235073   0.690   3.435   4.329
11611WAT      O35074   0.523   7.432   4.296
11611WAT     H135075   0.430   7.408   4.325
11611WAT     H235076   0.524   7.527   4.266
11612WAT      O35077   0.022   1.733   8.243
11612WAT     H135078  -0.051   1.790   8.280
11612WAT     H235079  -0.018   1.655   8.195
11613WAT      O35080   3.049   5.925   0.940
11613WAT     H135081   3.031   6.010   0.988
11613WAT     H235082   3.068   5.944   0.844
11614WAT      O35083   8.893   0.843   6.771
11614WAT     H135084   8.879   0.825   6.869
11614WAT     H235085   8.990   0.834   6.749
11615WAT      O35086   9.842   0.276   8.945
11615WAT     H135087   9.782   0.198   8.926
11615WAT     H235088   9.925   0.268   8.889
11616WAT      O35089   9.147   8.256   7.849
11616WAT     H135090   9.137   8.231   7.753
11616WAT     H235091   9.090   8.335   7.870
11617WAT      O35092   6.655   3.266   8.133
11617WAT     H135093   6.607   3.178   8.130
11617WAT     H235094   6.624   3.323   8.057
11618WAT      O35095   7.975   2.081   9.712
11618WAT     H135096   7.913   2.139   9.658
11618WAT     H235097   8.050   2.137   9.748
11619WAT      O35098   0.814   1.882   6.767
11619WAT     H135099   0.775   1.902   6.857
11619WAT     H235100   0.897   1.827   6.779
11620WAT      O35101   7.315   6.498   8.115
11620WAT     H135102   7.300   6.435   8.191
11620WAT     H235103   7.413   6.506   8.097
11621WAT      O35104   7.014   5.268   3.551
11621WAT     H135105   6.919   5.300   3.547
11621WAT     H235106   7.031   5.226   3.640
11622WAT      O35107   7.224   3.255   9.541
11622WAT     H135108   7.170   3.339   9.545
11622WAT     H235109   7.256   3.231   9.632
11623WAT      O35110   7.399   6.016   6.698
11623WAT     H135111   7.329   5.945   6.691
11623WAT     H235112   7.444   6.011   6.787
11624WAT      O35113   0.558   4.908   7.567
11624WAT     H135114   0.459   4.907   7.579
11624WAT     H235115   0.603   4.917   7.656
11625WAT      O35116   8.064   0.805   8.012
11625WAT     H135117   7.989   0.869   8.028
11625WAT     H235118   8.052   0.761   7.923
11626WAT      O35119   4.862   4.088   5.842
11626WAT     H135120   4.958   4.108   5.863
11626WAT     H235121   4.851   3.989   5.830
11627WAT      O35122   8.888   4.288   7.749
11627WAT     H135123   8.835   4.306   7.666
11627WAT     H235124   8.947   4.208   7.735
11628WAT      O35125   4.643   0.768   6.241
11628WAT     H135126   4.679   0.857   6.270
11628WAT     H235127   4.547   0.760   6.268
11629WAT      O35128   6.255   6.216   1.172
11629WAT     H135129   6.191   6.165   1.115
11629WAT     H235130   6.204   6.269   1.240
11630WAT      O35131   9.653   4.553   5.734
11630WAT     H135132   9.572   4.522   5.685
11630WAT     H235133   9.661   4.653   5.727
11631WAT      O35134   5.514   0.642   4.129
11631WAT     H135135   5.518   0.543   4.114
11631WAT     H235136   5.420   0.668   4.149
11632WAT      O35137   8.666   4.773   1.270
11632WAT     H135138   8.697   4.805   1.359
11632WAT     H235139   8.738   4.786   1.202
11633WAT      O35140   6.530   4.357   4.007
11633WAT     H135141   6.494   4.270   3.973
11633WAT     H235142   6.565   4.410   3.930
11634WAT      O35143   6.642   2.797   8.576
11634WAT     H135144   6.595   2.853   8.507
11634WAT     H235145   6.604   2.818   8.667
11635WAT      O35146   1.937   4.585   9.863
11635WAT     H135147   1.915   4.566   9.959
11635WAT     H235148   2.005   4.519   9.831
11636WAT      O35149   3.538   5.080   0.099
11636WAT     H135150   3.605   5.006   0.089
11636WAT     H235151   3.581   5.158   0.143
11637WAT      O35152   3.688   2.690   9.431
11637WAT     H135153   3.744   2.679   9.513
11637WAT     H235154   3.733   2.648   9.353
11638WAT      O35155   0.678   8.066   5.605
11638WAT     H135156   0.732   8.138   5.561
11638WAT     H235157   0.738   7.991   5.631
11639WAT      O35158   8.597   2.828   4.437
11639WAT     H135159   8.578   2.915   4.481
11639WAT     H235160   8.618   2.759   4.507
11640WAT      O35161   7.773   1.798   1.721
11640WAT     H135162   7.838   1.726   1.699
11640WAT     H235163   7.745   1.790   1.817
11641WAT      O35164   2.917   3.158   3.075
11641WAT     H135165   2.829   3.153   3.027
11641WAT     H235166   2.900   3.178   3.171
11642WAT      O35167   1.080   1.489   5.461
11642WAT     H135168   1.169   1.505   5.419
11642WAT     H235169   1.089   1.494   5.561
11643WAT      O35170   5.359   5.892   0.079
11643WAT     H135171   5.458   5.889   0.071
11643WAT     H235172   5.321   5.941   0.000
11644WAT      O35173   6.952   9.746   3.849
11644WAT     H135174   6.898   9.829   3.836
11644WAT     H235175   6.896   9.677   3.895
11645WAT      O35176   6.766   1.499   6.232
11645WAT     H135177   6.732   1.408   6.256
11645WAT     H235178   6.692   1.552   6.191
11646WAT      O35179   7.732   5.617   3.545
11646WAT     H135180   7.642   5.593   3.509
11646WAT     H235181   7.725   5.637   3.643
11647WAT      O35182   8.936   7.034   8.089
11647WAT     H135183   8.958   7.101   8.019
11647WAT     H235184   8.837   7.017   8.089
11648WAT      O35185   9.586   8.781   3.137
11648WAT     H135186   9.597   8.750   3.231
11648WAT     H235187   9.667   8.755   3.084
11649WAT      O35188   6.069   6.071   0.381
11649WAT     H135189   6.154   6.078   0.434
11649WAT     H235190   6.010   6.149   0.401
11650WAT      O35191   5.787   7.340   9.616
11650WAT     H135192   5.863   7.293   9.661
11650WAT     H235193   5.748   7.280   9.546
11651WAT      O35194   8.710   3.974   5.667
11651WAT     H135195   8.631   3.918   5.692
11651WAT     H235196   8.680   4.056   5.620
11652WAT      O35197   7.094   0.371   7.789
11652WAT     H135198   7.041   0.287   7.800
11652WAT     H235199   7.070   0.436   7.862
11653WAT      O35200   8.063   2.266   0.487
11653WAT     H135201   8.035   2.339   0.551
11653WAT     H235202   7.981   2.220   0.452
11654WAT      O35203   7.959   5.032   0.823
11654WAT     H135204   7.963   4.976   0.741
11654WAT     H235205   8.026   5.106   0.817
11655WAT      O35206   7.371   3.925   6.617
11655WAT     H135207   7.466   3.932   6.587
11655WAT     H235208   7.355   3.835   6.658
11656WAT      O35209   2.229   1.784   2.020
11656WAT     H135210   2.213   1.862   2.080
11656WAT     H235211   2.237   1.700   2.075
11657WAT      O35212   3.012   6.306   9.198
11657WAT     H135213   3.047   6.281   9.289
11657WAT     H235214   3.032   6.232   9.134
11658WAT      O35215   8.021   9.151   1.549
11658WAT     H135216   8.096   9.181   1.607
11658WAT     H235217   7.937   9.196   1.577
11659WAT      O35218   6.908   3.448   4.460
11659WAT     H135219   6.902   3.433   4.559
11659WAT     H235220   6.886   3.363   4.413
11660WAT      O35221   5.085   4.882   2.707
11660WAT     H135222   5.150   4.853   2.777
11660WAT     H235223   5.031   4.803   2.677
11661WAT      O35224   8.505   5.675   1.578
11661WAT     H135225   8.503   5.772   1.550
11661WAT     H235226   8.446   5.662   1.657
11662WAT      O35227   2.685   4.420   1.714
11662WAT     H135228   2.764   4.469   1.676
11662WAT     H235229   2.648   4.358   1.645
11663WAT      O35230   6.956   9.479   7.472
11663WAT     H135231   6.944   9.561   7.415
11663WAT     H235232   6.870   9.458   7.518
11664WAT      O35233   9.664   9.062   1.700
11664WAT     H135234   9.600   9.000   1.655
11664WAT     H235235   9.734   9.091   1.634
11665WAT      O35236   1.673   0.366   0.982
11665WAT     H135237   1.751   0.428   0.985
11665WAT     H235238   1.603   0.404   0.922
11666WAT      O35239   9.513   5.084   0.750
11666WAT     H135240   9.610   5.092   0.769
11666WAT     H235241   9.490   4.988   0.730
11667WAT      O35242   0.282   6.102   8.185
11667WAT     H135243   0.248   6.031   8.123
11667WAT     H235244   0.379   6.086   8.204
11668WAT      O35245   0.594   9.356   7.747
11668WAT     H135246   0.526   9.379   7.817
11668WAT     H235247   0.645   9.275   7.776
11669WAT      O35248   6.780   6.753   1.999
11669WAT     H135249   6.750   6.698   2.077
11669WAT     H235250   6.734   6.842   2.001
11670WAT      O35251   5.557   1.166   7.073
11670WAT     H135252   5.524   1.144   6.981
11670WAT     H235253   5.651   1.201   7.067
11671WAT      O35254   1.968   7.462   7.641
11671WAT     H135255   1.870   7.442   7.640
11671WAT     H235256   1.982   7.557   7.669
11672WAT      O35257   5.892   0.156   1.216
11672WAT     H135258   5.960   0.083   1.212
11672WAT     H235259   5.826   0.144   1.141
11673WAT      O35260   5.634   6.921   2.810
11673WAT     H135261   5.607   6.971   2.892
11673WAT     H235262   5.727   6.947   2.785
11674WAT      O35263   2.035   4.345   5.779
11674WAT     H135264   2.067   4.430   5.819
11674WAT     H235265   2.094   4.319   5.703
11675WAT      O35266   2.165   2.341   9.458
11675WAT     H135267   2.101   2.348   9.535
11675WAT     H235268   2.114   2.320   9.375
11676WAT      O35269   8.790   7.078   7.437
11676WAT     H135270   8.835   7.052   7.351
11676WAT     H235271   8.742   7.165   7.425
11677WAT      O35272   0.017   4.472   2.949
11677WAT     H135273  -0.060   4.469   3.013
11677WAT     H235274  -0.014   4.505   2.861
11678WAT      O35275   1.636   4.692   7.666
11678WAT     H135276   1.661   4.637   7.745
11678WAT     H235277   1.685   4.658   7.585
11679WAT      O35278   9.887   7.909   9.441
11679WAT     H135279   9.875   7.829   9.382
11679WAT     H235280   9.899   7.880   9.536
11680WAT      O35281   5.989   5.551   8.616
11680WAT     H135282   5.920   5.587   8.554
11680WAT     H235283   5.952   5.471   8.664
11681WAT      O35284   3.730   4.177   9.172
11681WAT     H135285   3.673   4.103   9.138
11681WAT     H235286   3.808   4.190   9.110
11682WAT      O35287   1.098   3.495   6.991
11682WAT     H135288   1.121   3.398   6.980
11682WAT     H235289   1.182   3.547   7.006
11683WAT      O35290   9.750   7.506   8.541
11683WAT     H135291   9.651   7.504   8.527
11683WAT     H235292   9.785   7.595   8.514
11684WAT      O35293   9.842   6.035   2.408
11684WAT     H135294   9.786   6.046   2.325
11684WAT     H235295   9.847   6.122   2.457
11685WAT      O35296   6.316   9.845   3.158
11685WAT     H135297   6.365   9.847   3.245
11685WAT     H235298   6.296   9.750   3.134
11686WAT      O35299   6.130   4.502   7.966
11686WAT     H135300   6.225   4.503   7.933
11686WAT     H235301   6.072   4.460   7.897
11687WAT      O35302   4.453   6.712   1.180
11687WAT     H135303   4.419   6.699   1.087
11687WAT     H235304   4.388   6.767   1.233
11688WAT      O35305   2.484   0.652   2.273
11688WAT     H135306   2.517   0.626   2.364
11688WAT     H235307   2.451   0.570   2.225
11689WAT      O35308   9.454   0.652   4.350
11689WAT     H135309   9.498   0.654   4.261
11689WAT     H235310   9.515   0.692   4.418
11690WAT      O35311   2.441   7.478   2.885
11690WAT     H135312   2.520   7.420   2.867
11690WAT     H235313   2.388   7.438   2.960
11691WAT      O35314   7.201   2.463   5.131
11691WAT     H135315   7.247   2.518   5.062
11691WAT     H235316   7.266   2.437   5.202
11692WAT      O35317   2.267   0.727   3.321
11692WAT     H135318   2.326   0.800   3.355
11692WAT     H235319   2.172   0.746   3.346
11693WAT      O35320   7.624   4.172   4.030
11693WAT     H135321   7.553   4.222   3.980
11693WAT     H235322   7.700   4.152   3.970
11694WAT      O35323   9.552   7.261   9.543
11694WAT     H135324   9.638   7.298   9.580
11694WAT     H235325   9.570   7.216   9.456
11695WAT      O35326   6.177   4.766   8.063
11695WAT     H135327   6.127   4.833   8.118
11695WAT     H235328   6.115   4.692   8.038
11696WAT      O35329   0.570   8.642   6.868
11696WAT     H135330   0.506   8.696   6.814
11696WAT     H235331   0.527   8.612   6.953
11697WAT      O35332   2.539   7.921   0.512
11697WAT     H135333   2.462   7.933   0.449
11697WAT     H235334   2.587   7.836   0.490
11698WAT      O35335   0.251   7.433   4.915
11698WAT     H135336   0.248   7.528   4.946
11698WAT     H235337   0.293   7.376   4.985
11699WAT      O35338   0.502   7.524   5.176
11699WAT     H135339   0.556   7.498   5.256
11699WAT     H235340   0.483   7.622   5.179
11700WAT      O35341   7.788   6.716   0.947
11700WAT     H135342   7.820   6.799   0.992
11700WAT     H235343   7.719   6.739   0.878
11701WAT      O35344   9.021   7.991   2.938
11701WAT     H135345   9.100   7.940   2.971
11701WAT     H235346   8.952   7.927   2.904
11702WAT      O35347   1.198   5.715   2.448
11702WAT     H135348   1.268   5.765   2.498
11702WAT     H235349   1.121   5.694   2.509
11703WAT      O35350   3.428   1.465   6.913
11703WAT     H135351   3.341   1.417   6.901
11703WAT     H235352   3.496   1.428   6.849
11704WAT      O35353   1.653   1.315   2.220
11704WAT     H135354   1.654   1.225   2.177
11704WAT     H235355   1.571   1.323   2.277
11705WAT      O35356   7.613   0.691   5.528
11705WAT     H135357   7.558   0.659   5.450
11705WAT     H235358   7.678   0.760   5.497
11706WAT      O35359   4.392   3.107   8.373
11706WAT     H135360   4.385   3.015   8.411
11706WAT     H235361   4.408   3.102   8.274
11707WAT      O35362   9.582   3.795   6.714
11707WAT     H135363   9.556   3.710   6.667
11707WAT     H235364   9.554   3.790   6.810
11708WAT      O35365   2.235   9.614   9.111
11708WAT     H135366   2.274   9.705   9.125
11708WAT     H235367   2.137   9.622   9.096
11709WAT      O35368   5.109   5.622   2.649
11709WAT     H135369   5.134   5.671   2.566
11709WAT     H235370   5.090   5.526   2.627
11710WAT      O35371   2.997   9.630   2.769
11710WAT     H135372   2.986   9.640   2.867
11710WAT     H235373   2.999   9.533   2.745
11711WAT      O35374   2.887   8.121   6.061
11711WAT     H135375   2.866   8.162   6.150
11711WAT     H235376   2.886   8.021   6.070
11712WAT      O35377   8.798   5.956   3.018
11712WAT     H135378   8.825   5.964   2.922
11712WAT     H235379   8.700   5.976   3.027
11713WAT      O35380   9.099   0.166   3.349
11713WAT     H135381   9.075   0.069   3.352
11713WAT     H235382   9.016   0.221   3.343
11714WAT      O35383   4.234   0.300   5.328
11714WAT     H135384   4.249   0.210   5.288
11714WAT     H235385   4.171   0.291   5.406
11715WAT      O35386   7.955   4.481   8.752
11715WAT     H135387   7.978   4.565   8.802
11715WAT     H235388   7.949   4.405   8.816
11716WAT      O35389   6.336   6.452   9.677
11716WAT     H135390   6.306   6.468   9.771
11716WAT     H235391   6.276   6.384   9.634
11717WAT      O35392   5.726   0.552   0.752
11717WAT     H135393   5.700   0.593   0.839
11717WAT     H235394   5.815   0.508   0.761
11718WAT      O35395   8.615   8.808   3.846
11718WAT     H135396   8.603   8.778   3.751
11718WAT     H235397   8.538   8.868   3.871
11719WAT      O35398   7.738   0.202   7.443
11719WAT     H135399   7.755   0.252   7.528
11719WAT     H235400   7.657   0.238   7.398
11720WAT      O35401   8.452   3.136   3.545
11720WAT     H135402   8.386   3.157   3.473
11720WAT     H235403   8.403   3.105   3.627
11721WAT      O35404   5.972   9.029   6.101
11721WAT     H135405   5.938   9.106   6.047
11721WAT     H235406   5.943   9.041   6.196
11722WAT      O35407   9.580   6.515   5.368
11722WAT     H135408   9.503   6.570   5.337
11722WAT     H235409   9.546   6.430   5.408
11723WAT      O35410   8.135   5.891   1.895
11723WAT     H135411   8.203   5.874   1.967
11723WAT     H235412   8.066   5.954   1.929
11724WAT      O35413   1.195   5.289   8.980
11724WAT     H135414   1.257   5.363   8.956
11724WAT     H235415   1.162   5.244   8.897
11725WAT      O35416   4.022   2.351   1.152
11725WAT     H135417   4.017   2.253   1.128
11725WAT     H235418   3.958   2.370   1.226
11726WAT      O35419   2.956   0.602   2.888
11726WAT     H135420   3.055   0.615   2.882
11726WAT     H235421   2.912   0.687   2.917
11727WAT      O35422   3.068   3.643   1.150
11727WAT     H135423   3.015   3.727   1.141
11727WAT     H235424   3.043   3.580   1.077
11728WAT      O35425   7.223   0.400   9.893
11728WAT     H135426   7.316   0.437   9.881
11728WAT     H235427   7.171   0.413   9.809
11729WAT      O35428   0.687   8.270   7.916
11729WAT     H135429   0.613   8.337   7.910
11729WAT     H235430   0.695   8.237   8.010
11730WAT      O35431   0.311   3.496   9.762
11730WAT     H135432   0.281   3.404   9.786
11730WAT     H235433   0.407   3.509   9.788
11731WAT      O35434   1.605   4.753   9.346
11731WAT     H135435   1.577   4.813   9.271
11731WAT     H235436   1.588   4.658   9.321
11732WAT      O35437   1.624   7.325   0.786
11732WAT     H135438   1.604   7.360   0.878
11732WAT     H235439   1.562   7.249   0.764
11733WAT      O35440   9.317   6.134   5.264
11733WAT     H135441   9.279   6.056   5.214
11733WAT     H235442   9.252   6.164   5.333
11734WAT      O35443   5.370   2.606   7.291
11734WAT     H135444   5.467   2.607   7.267
11734WAT     H235445   5.333   2.514   7.276
11735WAT      O35446   0.812   3.413   2.668
11735WAT     H135447   0.723   3.440   2.633
11735WAT     H235448   0.882   3.476   2.635
11736WAT      O35449   2.549   9.668   9.763
11736WAT     H135450   2.640   9.691   9.799
11736WAT     H235451   2.491   9.749   9.764
11737WAT      O35452   9.588   3.772   8.444
11737WAT     H135453   9.579   3.752   8.541
11737WAT     H235454   9.599   3.871   8.431
11738WAT      O35455   8.020   2.699   8.251
11738WAT     H135456   7.955   2.644   8.197
11738WAT     H235457   8.113   2.673   8.227
11739WAT      O35458   0.792   3.132   3.350
11739WAT     H135459   0.832   3.217   3.316
11739WAT     H235460   0.707   3.113   3.302
11740WAT      O35461   8.505   8.752   8.880
11740WAT     H135462   8.440   8.724   8.810
11740WAT     H235463   8.495   8.850   8.897
11741WAT      O35464   5.252   7.110   5.723
11741WAT     H135465   5.250   7.056   5.639
11741WAT     H235466   5.298   7.059   5.795
11742WAT      O35467   7.531   5.570   5.548
11742WAT     H135468   7.493   5.478   5.561
11742WAT     H235469   7.518   5.624   5.632
11743WAT      O35470   1.643   5.676   6.286
11743WAT     H135471   1.739   5.647   6.291
11743WAT     H235472   1.586   5.596   6.266
11744WAT      O35473   0.332   9.665   2.379
11744WAT     H135474   0.308   9.569   2.365
11744WAT     H235475   0.370   9.702   2.295
11745WAT      O35476   1.322   2.867   0.445
11745WAT     H135477   1.292   2.871   0.349
11745WAT     H235478   1.416   2.832   0.448
11746WAT      O35479   0.908   5.931   5.775
11746WAT     H135480   0.861   5.989   5.709
11746WAT     H235481   0.966   5.988   5.834
11747WAT      O35482   1.494   6.836   4.375
11747WAT     H135483   1.425   6.907   4.389
11747WAT     H235484   1.482   6.764   4.443
11748WAT      O35485   5.686   3.540   3.012
11748WAT     H135486   5.663   3.525   2.915
11748WAT     H235487   5.601   3.542   3.065
11749WAT      O35488   6.092   7.613   8.506
11749WAT     H135489   6.130   7.524   8.482
11749WAT     H235490   6.156   7.663   8.564
11750WAT      O35491   6.485   7.295   8.518
11750WAT     H135492   6.396   7.284   8.561
11750WAT     H235493   6.555   7.253   8.575
11751WAT      O35494   1.518   7.244   3.269
11751WAT     H135495   1.465   7.322   3.235
11751WAT     H235496   1.611   7.273   3.289
11752WAT      O35497   1.761   8.647   3.905
11752WAT     H135498   1.810   8.620   3.988
11752WAT     H235499   1.666   8.618   3.911
11753WAT      O35500   5.217   1.545   5.545
11753WAT     H135501   5.231   1.451   5.576
11753WAT     H235502   5.306   1.591   5.539
11754WAT      O35503   1.644   1.689   0.275
11754WAT     H135504   1.699   1.717   0.197
11754WAT     H235505   1.571   1.756   0.290
11755WAT      O35506   9.879   1.872   5.629
11755WAT     H135507   9.829   1.930   5.693
11755WAT     H235508   9.925   1.799   5.680
11756WAT      O35509   9.856   5.471   2.781
11756WAT     H135510   9.878   5.411   2.858
11756WAT     H235511   9.763   5.453   2.751
11757WAT      O35512   9.721   7.123   2.037
11757WAT     H135513   9.741   7.212   1.997
11757WAT     H235514   9.793   7.058   2.010
11758WAT      O35515   6.774   1.959   5.552
11758WAT     H135516   6.718   2.024   5.604
11758WAT     H235517   6.798   1.882   5.610
11759WAT      O35518   3.539   5.529   6.986
11759WAT     H135519   3.535   5.434   6.958
11759WAT     H235520   3.551   5.587   6.905
11760WAT      O35521   2.947   3.240   6.608
11760WAT     H135522   3.022   3.293   6.646
11760WAT     H235523   2.885   3.212   6.682
11761WAT      O35524   7.449   5.129   0.840
11761WAT     H135525   7.385   5.066   0.884
11761WAT     H235526   7.540   5.117   0.880
11762WAT      O35527   1.256   7.725   9.687
11762WAT     H135528   1.344   7.768   9.709
11762WAT     H235529   1.182   7.776   9.733
11763WAT      O35530   1.290   1.919   1.931
11763WAT     H135531   1.379   1.896   1.970
11763WAT     H235532   1.304   1.966   1.843
11764WAT      O35533   0.399   4.262   1.381
11764WAT     H135534   0.428   4.203   1.306
11764WAT     H235535   0.301   4.282   1.371
11765WAT      O35536   2.545   5.722   9.156
11765WAT     H135537   2.458   5.771   9.148
11765WAT     H235538   2.565   5.677   9.069
11766WAT      O35539   1.859   6.836   5.306
11766WAT     H135540   1.901   6.852   5.396
11766WAT     H235541   1.760   6.842   5.315
11767WAT      O35542   3.250   2.159   7.807
11767WAT     H135543   3.294   2.113   7.729
11767WAT     H235544   3.157   2.185   7.781
11768WAT      O35545   9.118   8.474   0.854
11768WAT     H135546   9.101   8.563   0.811
11768WAT     H235547   9.089   8.401   0.792
11769WAT      O35548   6.769   6.515   3.670
11769WAT     H135549   6.841   6.568   3.624
11769WAT     H235550   6.798   6.419   3.677
11770WAT      O35551   6.987   4.743   4.135
11770WAT     H135552   6.957   4.665   4.080
11770WAT     H235553   6.922   4.758   4.209
11771WAT      O35554   6.163   3.175   5.230
11771WAT     H135555   6.261   3.196   5.223
11771WAT     H235556   6.140   3.104   5.163
11772WAT      O35557   1.634   7.111   2.391
11772WAT     H135558   1.703   7.039   2.385
11772WAT     H235559   1.680   7.200   2.390
11773WAT      O35560   5.850   5.915   0.199
11773WAT     H135561   5.913   5.837   0.206
11773WAT     H235562   5.772   5.890   0.141
11774WAT      O35563   8.333   5.213   5.715
11774WAT     H135564   8.332   5.163   5.801
11774WAT     H235565   8.357   5.150   5.640
11775WAT      O35566   3.768   7.958   0.908
11775WAT     H135567   3.714   8.029   0.953
11775WAT     H235568   3.861   7.991   0.894
11776WAT      O35569   4.101   1.792   7.718
11776WAT     H135570   4.135   1.792   7.812
11776WAT     H235571   4.082   1.887   7.690
11777WAT      O35572   1.647   1.987   1.338
11777WAT     H135573   1.722   2.028   1.286
11777WAT     H235574   1.605   2.057   1.396
11778WAT      O35575   6.582   8.502   6.593
11778WAT     H135576   6.594   8.560   6.674
11778WAT     H235577   6.535   8.418   6.620
11779WAT      O35578   5.317   4.266   0.794
11779WAT     H135579   5.396   4.327   0.802
11779WAT     H235580   5.260   4.296   0.717
11780WAT      O35581   2.681   3.578   7.294
11780WAT     H135582   2.742   3.644   7.250
11780WAT     H235583   2.639   3.621   7.374
11781WAT      O35584   1.483   8.303   8.688
11781WAT     H135585   1.511   8.262   8.601
11781WAT     H235586   1.418   8.241   8.733
11782WAT      O35587   3.907   6.073   6.766
11782WAT     H135588   3.925   6.011   6.690
11782WAT     H235589   3.987   6.131   6.781
11783WAT      O35590   2.207   1.608   3.002
11783WAT     H135591   2.204   1.510   2.980
11783WAT     H235592   2.227   1.660   2.919
11784WAT      O35593   8.385   5.449   9.284
11784WAT     H135594   8.349   5.403   9.365
11784WAT     H235595   8.429   5.535   9.312
11785WAT      O35596   5.013   1.339   0.399
11785WAT     H135597   4.957   1.395   0.460
11785WAT     H235598   4.987   1.243   0.408
11786WAT      O35599   6.256   6.886   9.688
11786WAT     H135600   6.317   6.856   9.762
11786WAT     H235601   6.248   6.813   9.620
11787WAT      O35602   0.412   7.730   3.622
11787WAT     H135603   0.390   7.766   3.712
11787WAT     H235604   0.461   7.643   3.632
11788WAT      O35605   6.262   5.309   6.793
11788WAT     H135606   6.326   5.232   6.804
11788WAT     H235607   6.168   5.274   6.791
11789WAT      O35608   5.450   7.030   6.852
11789WAT     H135609   5.525   6.996   6.795
11789WAT     H235610   5.452   7.130   6.853
11790WAT      O35611   5.200   1.456   1.713
11790WAT     H135612   5.116   1.437   1.764
11790WAT     H235613   5.179   1.518   1.637
11791WAT      O35614   5.475   8.445   4.884
11791WAT     H135615   5.420   8.509   4.830
11791WAT     H235616   5.570   8.476   4.886
11792WAT      O35617   3.785   0.669   6.598
11792WAT     H135618   3.781   0.757   6.646
11792WAT     H235619   3.849   0.676   6.521
11793WAT      O35620   8.546   6.318   4.366
11793WAT     H135621   8.449   6.312   4.343
11793WAT     H235622   8.599   6.323   4.282
11794WAT      O35623   3.528   3.585   3.692
11794WAT     H135624   3.594   3.560   3.763
11794WAT     H235625   3.495   3.503   3.647
11795WAT      O35626   8.082   0.172   0.633
11795WAT     H135627   8.079   0.260   0.681
11795WAT     H235628   8.136   0.108   0.686
11796WAT      O35629   7.910   5.096   4.684
11796WAT     H135630   7.902   5.086   4.585
11796WAT     H235631   7.973   5.171   4.705
11797WAT      O35632   4.962   8.385   0.362
11797WAT     H135633   4.953   8.287   0.380
11797WAT     H235634   4.885   8.434   0.404
11798WAT      O35635   8.722   7.736   5.241
11798WAT     H135636   8.664   7.793   5.300
11798WAT     H235637   8.665   7.676   5.185
11799WAT      O35638   3.246   6.023   6.081
11799WAT     H135639   3.278   6.079   6.157
11799WAT     H235640   3.183   6.077   6.024
11800WAT      O35641   5.673   8.071   8.168
11800WAT     H135642   5.589   8.031   8.130
11800WAT     H235643   5.685   8.163   8.133
11801WAT      O35644   4.018   3.740   5.954
11801WAT     H135645   4.038   3.733   5.856
11801WAT     H235646   4.023   3.649   5.995
11802WAT      O35647   1.631   6.993   4.968
11802WAT     H135648   1.650   7.067   4.904
11802WAT     H235649   1.717   6.957   5.004
11803WAT      O35650   3.931   2.266   0.030
11803WAT     H135651   3.872   2.185   0.027
11803WAT     H235652   3.968   2.276   0.123
11804WAT      O35653   9.033   4.737   4.103
11804WAT     H135654   9.124   4.696   4.112
11804WAT     H235655   8.978   4.682   4.039
11805WAT      O35656   9.521   7.065   0.286
11805WAT     H135657   9.553   7.112   0.368
11805WAT     H235658   9.474   6.980   0.313
11806WAT      O35659   0.978   3.537   6.523
11806WAT     H135660   1.029   3.507   6.442
11806WAT     H235661   1.041   3.582   6.587
11807WAT      O35662   1.741   8.625   2.637
11807WAT     H135663   1.825   8.611   2.689
11807WAT     H235664   1.745   8.711   2.587
11808WAT      O35665   6.738   8.157   8.113
11808WAT     H135666   6.804   8.217   8.157
11808WAT     H235667   6.668   8.130   8.179
11809WAT      O35668   7.228   6.321   1.655
11809WAT     H135669   7.276   6.353   1.736
11809WAT     H235670   7.153   6.385   1.633
11810WAT      O35671   1.763   2.562   6.657
11810WAT     H135672   1.714   2.484   6.695
11810WAT     H235673   1.739   2.573   6.560
11811WAT      O35674   9.757   4.343   9.410
11811WAT     H135675   9.815   4.398   9.470
11811WAT     H235676   9.774   4.367   9.315
11812WAT      O35677   8.856   6.584   8.119
11812WAT     H135678   8.786   6.652   8.096
11812WAT     H235679   8.910   6.564   8.037
11813WAT      O35680   1.992   8.883   8.800
11813WAT     H135681   2.059   8.911   8.868
11813WAT     H235682   2.032   8.812   8.741
11814WAT      O35683   3.165   2.626   8.297
11814WAT     H135684   3.099   2.624   8.372
11814WAT     H235685   3.121   2.591   8.214
11815WAT      O35686   0.657   4.774   2.710
11815WAT     H135687   0.598   4.740   2.637
11815WAT     H235688   0.674   4.701   2.776
11816WAT      O35689   3.267   8.072   4.063
11816WAT     H135690   3.314   8.155   4.092
11816WAT     H235691   3.324   7.992   4.082
11817WAT      O35692   0.822   4.163   8.314
11817WAT     H135693   0.922   4.155   8.311
11817WAT     H235694   0.791   4.216   8.235
11818WAT      O35695   1.715   5.942   6.281
11818WAT     H135696   1.813   5.938   6.261
11818WAT     H235697   1.680   5.848   6.293
11819WAT      O35698   1.357   7.236   4.348
11819WAT     H135699   1.337   7.171   4.275
11819WAT     H235700   1.272   7.266   4.391
11820WAT      O35701   0.603   6.814   5.978
11820WAT     H135702   0.590   6.739   6.043
11820WAT     H235703   0.562   6.898   6.016
11821WAT      O35704   6.803   5.632   3.324
11821WAT     H135705   6.877   5.571   3.352
11821WAT     H235706   6.759   5.670   3.406
11822WAT      O35707   6.896   3.523   2.839
11822WAT     H135708   6.904   3.455   2.912
11822WAT     H235709   6.855   3.479   2.758
11823WAT      O35710   9.151   9.752   0.874
11823WAT     H135711   9.075   9.759   0.939
11823WAT     H235712   9.196   9.841   0.866
11824WAT      O35713   1.494   7.079   2.632
11824WAT     H135714   1.539   7.090   2.544
11824WAT     H235715   1.442   7.162   2.653
11825WAT      O35716   4.360   5.037   5.002
11825WAT     H135717   4.290   5.108   5.010
11825WAT     H235718   4.429   5.051   5.074
11826WAT      O35719   9.074   9.243   9.622
11826WAT     H135720   9.148   9.285   9.568
11826WAT     H235721   8.989   9.292   9.605
11827WAT      O35722   9.798   4.531   2.108
11827WAT     H135723   9.858   4.588   2.163
11827WAT     H235724   9.780   4.445   2.156
11828WAT      O35725   2.414   0.880   0.313
11828WAT     H135726   2.410   0.811   0.240
11828WAT     H235727   2.322   0.894   0.350
11829WAT      O35728   6.774   0.032   3.488
11829WAT     H135729   6.785   0.126   3.522
11829WAT     H235730   6.864  -0.004   3.463
11830WAT      O35731   4.242   7.924   9.737
11830WAT     H135732   4.332   7.956   9.709
11830WAT     H235733   4.252   7.853   9.806
11831WAT      O35734   7.219   7.358   0.600
11831WAT     H135735   7.256   7.317   0.517
11831WAT     H235736   7.173   7.444   0.577
11832WAT      O35737   4.003   4.640   7.175
11832WAT     H135738   4.053   4.650   7.089
11832WAT     H235739   4.032   4.556   7.221
11833WAT      O35740   2.847   7.043   5.133
11833WAT     H135741   2.916   7.061   5.203
11833WAT     H235742   2.784   6.972   5.165
11834WAT      O35743   0.809   1.266   3.794
11834WAT     H135744   0.853   1.315   3.870
11834WAT     H235745   0.766   1.331   3.732
11835WAT      O35746   6.553   3.622   0.392
11835WAT     H135747   6.463   3.633   0.433
11835WAT     H235748   6.547   3.638   0.293
11836WAT      O35749   5.612   8.001   5.482
11836WAT     H135750   5.544   7.950   5.430
11836WAT     H235751   5.611   8.097   5.454
11837WAT      O35752   4.879   5.943   8.432
11837WAT     H135753   4.968   5.979   8.404
11837WAT     H235754   4.885   5.909   8.526
11838WAT      O35755   4.658   2.451   2.738
11838WAT     H135756   4.566   2.481   2.714
11838WAT     H235757   4.660   2.425   2.835
11839WAT      O35758   6.695   4.436   5.209
11839WAT     H135759   6.744   4.351   5.232
11839WAT     H235760   6.645   4.422   5.124
11840WAT      O35761   2.633   1.786   3.400
11840WAT     H135762   2.642   1.691   3.370
11840WAT     H235763   2.536   1.811   3.404
11841WAT      O35764   8.076   6.055   2.843
11841WAT     H135765   8.032   6.145   2.835
11841WAT     H235766   8.022   5.988   2.792
11842WAT      O35767   6.899   4.384   4.467
11842WAT     H135768   6.954   4.313   4.513
11842WAT     H235769   6.815   4.342   4.432
11843WAT      O35770   8.442   4.069   5.057
11843WAT     H135771   8.503   4.034   5.129
11843WAT     H235772   8.347   4.053   5.085
11844WAT      O35773   7.999   6.624   0.309
11844WAT     H135774   7.945   6.700   0.273
11844WAT     H235775   8.084   6.660   0.349
11845WAT      O35776   1.342   7.817   0.111
11845WAT     H135777   1.372   7.831   0.205
11845WAT     H235778   1.410   7.853   0.048
11846WAT      O35779   7.225   1.262   2.267
11846WAT     H135780   7.180   1.316   2.339
11846WAT     H235781   7.321   1.289   2.261
11847WAT      O35782   1.381   9.196   3.890
11847WAT     H135783   1.461   9.135   3.887
11847WAT     H235784   1.376   9.249   3.805
11848WAT      O35785   1.577   3.690   2.913
11848WAT     H135786   1.491   3.697   2.963
11848WAT     H235787   1.628   3.610   2.946
11849WAT      O35788   9.741   2.174   0.524
11849WAT     H135789   9.750   2.125   0.611
11849WAT     H235790   9.690   2.119   0.459
11850WAT      O35791   4.591   3.123   5.726
11850WAT     H135792   4.688   3.111   5.747
11850WAT     H235793   4.579   3.202   5.666
11851WAT      O35794   7.486   2.107   2.301
11851WAT     H135795   7.526   2.197   2.318
11851WAT     H235796   7.457   2.066   2.387
11852WAT      O35797   5.839   8.935   8.192
11852WAT     H135798   5.938   8.927   8.178
11852WAT     H235799   5.822   8.988   8.275
11853WAT      O35800   1.316   3.500   3.866
11853WAT     H135801   1.322   3.479   3.768
11853WAT     H235802   1.404   3.482   3.910
11854WAT      O35803   9.327   6.146   4.872
11854WAT     H135804   9.416   6.109   4.847
11854WAT     H235805   9.285   6.089   4.943
11855WAT      O35806   1.200   0.319   8.026
11855WAT     H135807   1.149   0.342   8.109
11855WAT     H235808   1.217   0.402   7.973
11856WAT      O35809   3.196   3.034   0.286
11856WAT     H135810   3.149   3.101   0.227
11856WAT     H235811   3.248   2.970   0.229
11857WAT      O35812   8.334   4.077   9.448
11857WAT     H135813   8.238   4.098   9.466
11857WAT     H235814   8.390   4.156   9.473
11858WAT      O35815   9.357   5.469   5.613
11858WAT     H135816   9.385   5.381   5.649
11858WAT     H235817   9.367   5.539   5.684
11859WAT      O35818   2.994   9.618   9.082
11859WAT     H135819   3.079   9.635   9.132
11859WAT     H235820   2.918   9.662   9.130
11860WAT      O35821   7.866   3.685   2.703
11860WAT     H135822   7.821   3.597   2.693
11860WAT     H235823   7.888   3.722   2.613
11861WAT      O35824   3.111   2.013   2.699
11861WAT     H135825   3.061   1.969   2.773
11861WAT     H235826   3.179   1.948   2.663
11862WAT      O35827   2.016   5.035   5.878
11862WAT     H135828   1.934   5.093   5.878
11862WAT     H235829   2.001   4.957   5.817
11863WAT      O35830   1.125   7.544   7.779
11863WAT     H135831   1.056   7.472   7.763
11863WAT     H235832   1.139   7.595   7.694
11864WAT      O35833   2.181   8.277   5.693
11864WAT     H135834   2.206   8.185   5.662
11864WAT     H235835   2.212   8.289   5.787
11865WAT      O35836   7.824   1.906   6.008
11865WAT     H135837   7.756   1.977   6.025
11865WAT     H235838   7.872   1.884   6.093
11866WAT      O35839   4.850   6.862   6.133
11866WAT     H135840   4.914   6.815   6.073
11866WAT     H235841   4.758   6.856   6.096
11867WAT      O35842   9.555   0.973   2.837
11867WAT     H135843   9.523   0.991   2.744
11867WAT     H235844   9.653   0.953   2.835
11868WAT      O35845   2.937   6.306   7.006
11868WAT     H135846   2.902   6.279   7.095
11868WAT     H235847   2.861   6.313   6.941
11869WAT      O35848   9.151   7.333   6.343
11869WAT     H135849   9.205   7.254   6.370
11869WAT     H235850   9.067   7.302   6.297
11870WAT      O35851   9.511   4.202   4.849
11870WAT     H135852   9.426   4.160   4.880
11870WAT     H235853   9.497   4.246   4.760
11871WAT      O35854   0.443   3.317   7.267
11871WAT     H135855   0.383   3.240   7.285
11871WAT     H235856   0.436   3.383   7.342
11872WAT      O35857   1.739   8.121   8.243
11872WAT     H135858   1.830   8.133   8.204
11872WAT     H235859   1.732   8.030   8.284
11873WAT      O35860   3.750   1.485   4.826
11873WAT     H135861   3.656   1.476   4.793
11873WAT     H235862   3.785   1.394   4.850
11874WAT      O35863   7.563   6.199   7.143
11874WAT     H135864   7.607   6.268   7.202
11874WAT     H235865   7.531   6.123   7.200
11875WAT      O35866   5.466   7.877   2.789
11875WAT     H135867   5.515   7.951   2.835
11875WAT     H235868   5.465   7.894   2.690
11876WAT      O35869   5.231   4.709   0.268
11876WAT     H135870   5.235   4.743   0.174
11876WAT     H235871   5.258   4.782   0.331
11877WAT      O35872   9.045   3.943   9.186
11877WAT     H135873   9.094   4.030   9.191
11877WAT     H235874   8.947   3.960   9.175
11878WAT      O35875   7.797   7.801   3.194
11878WAT     H135876   7.866   7.740   3.235
11878WAT     H235877   7.753   7.855   3.266
11879WAT      O35878   3.726   7.427   2.724
11879WAT     H135879   3.718   7.383   2.813
11879WAT     H235880   3.660   7.387   2.660
11880WAT      O35881   0.602   2.767   9.274
11880WAT     H135882   0.568   2.708   9.200
11880WAT     H235883   0.525   2.809   9.322
11881WAT      O35884   1.903   9.252   2.294
11881WAT     H135885   1.833   9.180   2.293
11881WAT     H235886   1.993   9.211   2.281
11882WAT      O35887   9.428   8.946   7.518
11882WAT     H135888   9.462   8.860   7.557
11882WAT     H235889   9.505   9.003   7.490
11883WAT      O35890   1.997   2.669   4.135
11883WAT     H135891   2.078   2.710   4.093
11883WAT     H235892   1.944   2.740   4.182
11884WAT      O35893   6.414   2.497   2.932
11884WAT     H135894   6.460   2.585   2.945
11884WAT     H235895   6.480   2.430   2.896
11885WAT      O35896   4.953   6.183   8.183
11885WAT     H135897   5.028   6.129   8.144
11885WAT     H235898   4.989   6.240   8.257
11886WAT      O35899   4.484   5.463   6.912
11886WAT     H135900   4.482   5.371   6.871
11886WAT     H235901   4.477   5.532   6.840
11887WAT      O35902   2.030   4.238   4.024
11887WAT     H135903   2.098   4.248   3.951
11887WAT     H235904   2.065   4.177   4.095
11888WAT      O35905   6.136   1.232   2.006
11888WAT     H135906   6.192   1.266   1.931
11888WAT     H235907   6.131   1.132   2.002
11889WAT      O35908   1.154   9.040   8.840
11889WAT     H135909   1.096   9.053   8.760
11889WAT     H235910   1.125   9.102   8.913
11890WAT      O35911   4.154   2.143   6.825
11890WAT     H135912   4.198   2.158   6.913
11890WAT     H235913   4.224   2.115   6.758
11891WAT      O35914   0.254   8.289   1.740
11891WAT     H135915   0.249   8.265   1.837
11891WAT     H235916   0.350   8.295   1.713
11892WAT      O35917   1.372   5.487   1.890
11892WAT     H135918   1.282   5.531   1.892
11892WAT     H235919   1.426   5.518   1.968
11893WAT      O35920   2.698   0.454   5.394
11893WAT     H135921   2.653   0.525   5.449
11893WAT     H235922   2.767   0.496   5.336
11894WAT      O35923   8.969   0.086   3.636
11894WAT     H135924   8.947  -0.007   3.606
11894WAT     H235925   9.065   0.106   3.617
11895WAT      O35926   5.554   8.953   4.297
11895WAT     H135927   5.475   9.008   4.271
11895WAT     H235928   5.600   8.920   4.214
11896WAT      O35929   1.043   3.982   6.716
11896WAT     H135930   1.099   4.062   6.741
11896WAT     H235931   1.043   3.916   6.792
11897WAT      O35932   9.372   2.895   7.664
11897WAT     H135933   9.330   2.847   7.588
11897WAT     H235934   9.468   2.914   7.644
11898WAT      O35935   1.265   2.688   1.968
11898WAT     H135936   1.279   2.750   1.891
11898WAT     H235937   1.336   2.705   2.037
11899WAT      O35938   9.842   4.830   4.852
11899WAT     H135939   9.893   4.805   4.771
11899WAT     H235940   9.750   4.859   4.826
11900WAT      O35941   2.203   3.190   7.945
11900WAT     H135942   2.203   3.283   7.981
11900WAT     H235943   2.257   3.187   7.861
11901WAT      O35944   7.526   0.185   9.321
11901WAT     H135945   7.608   0.195   9.377
11901WAT     H235946   7.551   0.182   9.225
11902WAT      O35947   4.285   3.308   0.449
11902WAT     H135948   4.255   3.220   0.486
11902WAT     H235949   4.263   3.380   0.514
11903WAT      O35950   4.556   3.906   7.404
11903WAT     H135951   4.654   3.910   7.384
11903WAT     H235952   4.544   3.896   7.503
11904WAT      O35953   8.133   5.146   0.402
11904WAT     H135954   8.082   5.200   0.470
11904WAT     H235955   8.069   5.090   0.350
11905WAT      O35956   7.779   1.757   5.174
11905WAT     H135957   7.857   1.738   5.115
11905WAT     H235958   7.773   1.686   5.245
11906WAT      O35959   1.159   3.341   4.849
11906WAT     H135960   1.242   3.327   4.795
11906WAT     H235961   1.093   3.269   4.827
11907WAT      O35962   2.892   2.390   3.616
11907WAT     H135963   2.925   2.375   3.523
11907WAT     H235964   2.850   2.306   3.650
11908WAT      O35965   5.645   1.267   7.485
11908WAT     H135966   5.663   1.358   7.521
11908WAT     H235967   5.573   1.223   7.539
11909WAT      O35968   4.308   2.110   0.850
11909WAT     H135969   4.272   2.028   0.806
11909WAT     H235970   4.406   2.100   0.863
11910WAT      O35971   9.306   6.172   0.918
11910WAT     H135972   9.257   6.222   0.847
11910WAT     H235973   9.284   6.212   1.007
11911WAT      O35974   0.364   9.642   9.661
11911WAT     H135975   0.390   9.683   9.748
11911WAT     H235976   0.310   9.560   9.677
11912WAT      O35977   9.648   5.633   6.388
11912WAT     H135978   9.709   5.673   6.455
11912WAT     H235979   9.618   5.543   6.419
11913WAT      O35980   2.678   6.994   6.441
11913WAT     H135981   2.707   7.046   6.522
11913WAT     H235982   2.758   6.976   6.383
11914WAT      O35983   5.665   6.918   6.713
11914WAT     H135984   5.764   6.911   6.701
11914WAT     H235985   5.622   6.833   6.681
11915WAT      O35986   3.081   6.710   1.660
11915WAT     H135987   3.082   6.717   1.760
11915WAT     H235988   3.077   6.614   1.633
11916WAT      O35989   4.897   8.925   5.334
11916WAT     H135990   4.805   8.920   5.295
11916WAT     H235991   4.911   9.014   5.376
11917WAT      O35992   6.514   4.892   7.652
11917WAT     H135993   6.520   4.919   7.748
11917WAT     H235994   6.535   4.971   7.594
11918WAT      O35995   3.928   1.506   2.267
11918WAT     H135996   3.833   1.477   2.258
11918WAT     H235997   3.933   1.606   2.266
11919WAT      O35998   2.777   2.923   5.796
11919WAT     H135999   2.761   2.999   5.733
11919WAT     H236000   2.698   2.913   5.857
11920WAT      O36001   4.010   5.270   6.217
11920WAT     H136002   3.924   5.279   6.168
11920WAT     H236003   4.008   5.187   6.274
11921WAT      O36004   7.075   7.343   4.677
11921WAT     H136005   7.162   7.345   4.629
11921WAT     H236006   7.079   7.277   4.752
11922WAT      O36007   3.054   8.669   6.253
11922WAT     H136008   3.056   8.657   6.154
11922WAT     H236009   3.055   8.580   6.298
11923WAT      O36010   2.683   2.160   8.806
11923WAT     H136011   2.696   2.256   8.830
11923WAT     H236012   2.743   2.136   8.730
11924WAT      O36013   9.847   6.542   9.080
11924WAT     H136014   9.865   6.627   9.031
11924WAT     H236015   9.930   6.486   9.082
11925WAT      O36016   7.279   8.702   1.019
11925WAT     H136017   7.379   8.704   1.030
11925WAT     H236018   7.246   8.609   1.035
11926WAT      O36019   6.496   5.691   6.490
11926WAT     H136020   6.473   5.675   6.394
11926WAT     H236021   6.440   5.633   6.549
11927WAT      O36022   9.234   9.369   2.880
11927WAT     H136023   9.217   9.318   2.964
11927WAT     H236024   9.147   9.385   2.832
11928WAT      O36025   4.116   5.310   5.485
11928WAT     H136026   4.069   5.260   5.557
11928WAT     H236027   4.210   5.331   5.514
11929WAT      O36028   9.814   5.116   3.762
11929WAT     H136029   9.736   5.055   3.752
11929WAT     H236030   9.860   5.126   3.674
11930WAT      O36031   8.687   9.405   7.785
11930WAT     H136032   8.621   9.452   7.844
11930WAT     H236033   8.651   9.316   7.758
11931WAT      O36034   6.258   3.217   7.301
11931WAT     H136035   6.238   3.192   7.206
11931WAT     H236036   6.331   3.158   7.336
11932WAT      O36037   5.263   8.785   9.608
11932WAT     H136038   5.172   8.777   9.567
11932WAT     H236039   5.324   8.718   9.565
11933WAT      O36040   8.768   7.899   9.283
11933WAT     H136041   8.755   7.992   9.317
11933WAT     H236042   8.681   7.849   9.290
11934WAT      O36043   8.922   0.392   9.304
11934WAT     H136044   8.881   0.481   9.322
11934WAT     H236045   8.931   0.378   9.206
11935WAT      O36046   6.133   5.714   1.474
11935WAT     H136047   6.115   5.650   1.548
11935WAT     H236048   6.051   5.724   1.417
11936WAT      O36049   5.480   3.329   4.916
11936WAT     H136050   5.446   3.382   4.994
11936WAT     H236051   5.422   3.249   4.901
11937WAT      O36052   9.407   3.590   9.626
11937WAT     H136053   9.424   3.557   9.719
11937WAT     H236054   9.438   3.685   9.618
11938WAT      O36055   1.235   7.870   2.743
11938WAT     H136056   1.293   7.945   2.710
11938WAT     H236057   1.286   7.815   2.810
11939WAT      O36058   0.761   6.169   0.430
11939WAT     H136059   0.684   6.178   0.367
11939WAT     H236060   0.768   6.075   0.463
11940WAT      O36061   2.958   0.834   6.866
11940WAT     H136062   2.979   0.869   6.775
11940WAT     H236063   2.915   0.744   6.858
11941WAT      O36064   3.869   6.269   7.382
11941WAT     H136065   3.775   6.238   7.366
11941WAT     H236066   3.892   6.257   7.478
11942WAT      O36067   2.135   7.494   8.463
11942WAT     H136068   2.142   7.594   8.461
11942WAT     H236069   2.054   7.465   8.411
11943WAT      O36070   0.547   1.077   6.147
11943WAT     H136071   0.518   0.988   6.183
11943WAT     H236072   0.622   1.113   6.202
11944WAT      O36073   6.436   2.748   7.330
11944WAT     H136074   6.471   2.710   7.244
11944WAT     H236075   6.510   2.749   7.398
11945WAT      O36076   8.083   1.530   4.886
11945WAT     H136077   8.000   1.481   4.858
11945WAT     H236078   8.117   1.493   4.972
11946WAT      O36079   6.667   0.649   6.633
11946WAT     H136080   6.594   0.693   6.581
11946WAT     H236081   6.629   0.602   6.712
11947WAT      O36082   6.053   1.906   3.919
11947WAT     H136083   6.151   1.892   3.909
11947WAT     H236084   6.013   1.829   3.968
11948WAT      O36085   2.470   2.507   5.462
11948WAT     H136086   2.441   2.483   5.369
11948WAT     H236087   2.567   2.532   5.461
11949WAT      O36088   1.815   7.226   7.227
11949WAT     H136089   1.746   7.220   7.155
11949WAT     H236090   1.774   7.264   7.310
11950WAT      O36091   0.320   3.403   5.011
11950WAT     H136092   0.403   3.395   4.956
11950WAT     H236093   0.288   3.497   5.009
11951WAT      O36094   4.478   9.846   9.690
11951WAT     H136095   4.562   9.806   9.728
11951WAT     H236096   4.462   9.811   9.598
11952WAT      O36097   7.447   6.723   3.346
11952WAT     H136098   7.430   6.626   3.360
11952WAT     H236099   7.518   6.754   3.409
11953WAT      O36100   6.317   1.394   8.749
11953WAT     H136101   6.232   1.358   8.785
11953WAT     H236102   6.328   1.364   8.654
11954WAT      O36103   0.959   7.242   6.545
11954WAT     H136104   1.040   7.204   6.591
11954WAT     H236105   0.884   7.249   6.611
11955WAT      O36106   6.185   7.820   0.966
11955WAT     H136107   6.208   7.900   0.910
11955WAT     H236108   6.101   7.778   0.931
11956WAT      O36109   7.540   4.812   2.515
11956WAT     H136110   7.516   4.893   2.569
11956WAT     H236111   7.464   4.789   2.454
11957WAT      O36112   7.129   9.585   1.486
11957WAT     H136113   7.109   9.681   1.467
11957WAT     H236114   7.157   9.575   1.581
11958WAT      O36115   1.396   0.775   1.866
11958WAT     H136116   1.367   0.702   1.804
11958WAT     H236117   1.470   0.742   1.924
11959WAT      O36118   9.855   6.014   5.261
11959WAT     H136119   9.767   5.996   5.304
11959WAT     H236120   9.843   6.020   5.162
11960WAT      O36121   3.964   2.265   3.234
11960WAT     H136122   3.977   2.266   3.135
11960WAT     H236123   4.054   2.266   3.279
11961WAT      O36124   8.919   7.754   2.556
11961WAT     H136125   8.958   7.846   2.558
11961WAT     H236126   8.993   7.687   2.552
11962WAT      O36127   5.593   0.925   2.842
11962WAT     H136128   5.560   0.944   2.750
11962WAT     H236129   5.649   1.001   2.874
11963WAT      O36130   9.286   3.922   6.939
11963WAT     H136131   9.243   3.902   6.851
11963WAT     H236132   9.297   4.021   6.949
11964WAT      O36133   0.138   2.170   0.464
11964WAT     H136134   0.156   2.136   0.371
11964WAT     H236135   0.039   2.169   0.481
11965WAT      O36136   8.775   8.112   3.560
11965WAT     H136137   8.794   8.106   3.658
11965WAT     H236138   8.769   8.208   3.533
11966WAT      O36139   1.300   2.341   0.973
11966WAT     H136140   1.295   2.242   0.992
11966WAT     H236141   1.254   2.360   0.886
11967WAT      O36142   1.019   0.642   1.095
11967WAT     H136143   0.980   0.645   1.187
11967WAT     H236144   0.957   0.595   1.033
11968WAT      O36145   3.165   4.234   2.554
11968WAT     H136146   3.200   4.172   2.485
11968WAT     H236147   3.239   4.290   2.591
11969WAT      O36148   8.714   2.269   8.915
11969WAT     H136149   8.705   2.325   8.833
11969WAT     H236150   8.650   2.192   8.910
11970WAT      O36151   6.753   6.601   5.019
11970WAT     H136152   6.819   6.674   5.036
11970WAT     H236153   6.753   6.537   5.096
11971WAT      O36154   3.368   2.748   0.655
11971WAT     H136155   3.397   2.692   0.577
11971WAT     H236156   3.270   2.767   0.648
11972WAT      O36157   7.101   1.830   5.377
11972WAT     H136158   7.080   1.798   5.470
11972WAT     H236159   7.020   1.821   5.320
11973WAT      O36160   6.176   5.910   9.099
11973WAT     H136161   6.161   5.872   9.191
11973WAT     H236162   6.241   5.852   9.050
11974WAT      O36163   4.812   3.599   5.039
11974WAT     H136164   4.747   3.524   5.048
11974WAT     H236165   4.902   3.569   5.072
11975WAT      O36166   8.685   2.967   2.369
11975WAT     H136167   8.752   2.983   2.296
11975WAT     H236168   8.620   3.043   2.372
11976WAT      O36169   6.799   0.984   7.158
11976WAT     H136170   6.763   0.914   7.097
11976WAT     H236171   6.728   1.011   7.223
11977WAT      O36172   3.244   7.815   7.939
11977WAT     H136173   3.193   7.876   7.999
11977WAT     H236174   3.201   7.813   7.849
11978WAT      O36175   1.932   2.164   6.958
11978WAT     H136176   1.960   2.256   6.932
11978WAT     H236177   1.953   2.148   7.055
11979WAT      O36178   2.778   0.544   2.022
11979WAT     H136179   2.772   0.624   2.082
11979WAT     H236180   2.799   0.463   2.077
11980WAT      O36181   1.283   4.090   8.294
11980WAT     H136182   1.229   4.155   8.347
11980WAT     H236183   1.375   4.127   8.280
11981WAT      O36184   4.777   9.397   8.902
11981WAT     H136185   4.839   9.475   8.915
11981WAT     H236186   4.685   9.432   8.882
11982WAT      O36187   3.507   5.874   2.690
11982WAT     H136188   3.424   5.925   2.669
11982WAT     H236189   3.497   5.780   2.657
11983WAT      O36190   0.619   1.920   1.732
11983WAT     H136191   0.671   1.834   1.732
11983WAT     H236192   0.594   1.943   1.826
11984WAT      O36193   2.699   4.260   4.033
11984WAT     H136194   2.689   4.288   3.938
11984WAT     H236195   2.694   4.341   4.092
11985WAT      O36196   4.718   0.126   5.672
11985WAT     H136197   4.747   0.100   5.580
11985WAT     H236198   4.782   0.193   5.710
11986WAT      O36199   9.823   9.664   0.342
11986WAT     H136200   9.817   9.689   0.246
11986WAT     H236201   9.775   9.733   0.397
11987WAT      O36202   1.081   9.563   3.845
11987WAT     H136203   1.163   9.519   3.882
11987WAT     H236204   1.015   9.493   3.817
11988WAT      O36205   4.635   8.843   8.442
11988WAT     H136206   4.556   8.867   8.499
11988WAT     H236207   4.667   8.752   8.466
11989WAT      O36208   1.128   7.247   5.504
11989WAT     H136209   1.193   7.270   5.577
11989WAT     H236210   1.152   7.160   5.463
11990WAT      O36211   9.369   7.040   3.834
11990WAT     H136212   9.333   7.080   3.919
11990WAT     H236213   9.454   7.087   3.809
11991WAT      O36214   9.561   1.339   6.198
11991WAT     H136215   9.468   1.305   6.214
11991WAT     H236216   9.596   1.299   6.113
11992WAT      O36217   4.789   0.613   4.738
11992WAT     H136218   4.879   0.638   4.774
11992WAT     H236219   4.787   0.514   4.720
11993WAT      O36220   0.913   4.593   2.596
11993WAT     H136221   0.852   4.588   2.675
11993WAT     H236222   1.006   4.569   2.625
11994WAT      O36223   0.666   2.271   2.158
11994WAT     H136224   0.712   2.337   2.099
11994WAT     H236225   0.684   2.294   2.253
11995WAT      O36226   6.722   6.758   1.280
11995WAT     H136227   6.723   6.842   1.334
11995WAT     H236228   6.631   6.746   1.239
11996WAT      O36229   3.234   1.897   9.113
11996WAT     H136230   3.317   1.943   9.081
11996WAT     H236231   3.195   1.947   9.190
11997WAT      O36232   8.322   5.446   8.745
11997WAT     H136233   8.295   5.470   8.838
11997WAT     H236234   8.316   5.347   8.733
11998WAT      O36235   5.440   1.120   6.826
11998WAT     H136236   5.387   1.204   6.811
11998WAT     H236237   5.386   1.041   6.795
11999WAT      O36238   0.555   5.263   0.253
11999WAT     H136239   0.620   5.209   0.307
11999WAT     H236240   0.599   5.349   0.225
12000WAT      O36241   4.237   2.253   8.147
12000WAT     H136242   4.168   2.236   8.218
12000WAT     H236243   4.276   2.345   8.159
12001WAT      O36244   7.471   7.615   9.015
12001WAT     H136245   7.534   7.577   8.947
12001WAT     H236246   7.496   7.581   9.105
12002WAT      O36247   4.407   9.230   5.950
12002WAT     H136248   4.367   9.319   5.928
12002WAT     H236249   4.402   9.215   6.049
12003WAT      O36250   4.585   1.550   2.015
12003WAT     H136251   4.567   1.598   1.929
12003WAT     H236252   4.585   1.451   1.998
12004WAT      O36253   7.157   4.146   9.257
12004WAT     H136254   7.092   4.217   9.230
12004WAT     H236255   7.222   4.131   9.182
12005WAT      O36256   1.975   1.760   3.797
12005WAT     H136257   1.932   1.809   3.721
12005WAT     H236258   2.074   1.768   3.790
12006WAT      O36259   6.224   5.400   2.871
12006WAT     H136260   6.136   5.442   2.894
12006WAT     H236261   6.231   5.311   2.916
12007WAT      O36262   0.321   3.189   2.292
12007WAT     H136263   0.293   3.172   2.387
12007WAT     H236264   0.244   3.171   2.231
12008WAT      O36265   9.488   4.684   3.864
12008WAT     H136266   9.514   4.737   3.944
12008WAT     H236267   9.562   4.622   3.839
12009WAT      O36268   0.133   2.219   6.084
12009WAT     H136269   0.084   2.289   6.136
12009WAT     H236270   0.074   2.139   6.071
12010WAT      O36271   8.727   2.630   7.923
12010WAT     H136272   8.708   2.607   7.828
12010WAT     H236273   8.764   2.550   7.970
12011WAT      O36274   0.113   6.917   9.677
12011WAT     H136275   0.055   6.941   9.599
12011WAT     H236276   0.175   6.843   9.651
12012WAT      O36277   4.577   5.993   8.575
12012WAT     H136278   4.622   6.055   8.511
12012WAT     H236279   4.611   6.010   8.668
12013WAT      O36280   1.890   6.272   6.708
12013WAT     H136281   1.867   6.313   6.620
12013WAT     H236282   1.965   6.206   6.695
12014WAT      O36283   5.953   3.548   0.427
12014WAT     H136284   5.890   3.529   0.502
12014WAT     H236285   5.949   3.645   0.404
12015WAT      O36286   2.504   6.700   7.639
12015WAT     H136287   2.496   6.686   7.540
12015WAT     H236288   2.447   6.778   7.665
12016WAT      O36289   4.163   4.297   2.239
12016WAT     H136290   4.196   4.269   2.149
12016WAT     H236291   4.133   4.217   2.290
12017WAT      O36292   0.406   6.909   3.454
12017WAT     H136293   0.452   6.985   3.408
12017WAT     H236294   0.325   6.942   3.501
12018WAT      O36295   7.513   0.540   7.676
12018WAT     H136296   7.459   0.624   7.676
12018WAT     H236297   7.482   0.480   7.750
12019WAT      O36298   1.178   5.926   3.113
12019WAT     H136299   1.110   5.853   3.123
12019WAT     H236300   1.215   5.924   3.020
12020WAT      O36301   5.952   5.341   7.109
12020WAT     H136302   6.007   5.410   7.157
12020WAT     H236303   5.860   5.339   7.149
12021WAT      O36304   4.683   3.775   6.058
12021WAT     H136305   4.736   3.788   5.974
12021WAT     H236306   4.614   3.846   6.066
12022WAT      O36307   5.340   8.658   5.832
12022WAT     H136308   5.353   8.746   5.876
12022WAT     H236309   5.257   8.614   5.867
12023WAT      O36310   8.303   1.653   5.662
12023WAT     H136311   8.374   1.670   5.731
12023WAT     H236312   8.214   1.648   5.707
12024WAT      O36313   9.787   0.265   5.550
12024WAT     H136314   9.732   0.201   5.496
12024WAT     H236315   9.734   0.347   5.570
12025WAT      O36316   1.757   1.436   0.802
12025WAT     H136317   1.691   1.489   0.749
12025WAT     H236318   1.725   1.426   0.896
12026WAT      O36319   4.203   0.172   0.101
12026WAT     H136320   4.226   0.121   0.018
12026WAT     H236321   4.138   0.119   0.156
12027WAT      O36322   7.950   6.360   6.731
12027WAT     H136323   8.015   6.431   6.703
12027WAT     H236324   7.891   6.336   6.654
12028WAT      O36325   9.828   3.660   9.299
12028WAT     H136326   9.738   3.621   9.278
12028WAT     H236327   9.824   3.707   9.388
12029WAT      O36328   6.673   9.000   7.842
12029WAT     H136329   6.731   8.924   7.872
12029WAT     H236330   6.589   9.000   7.896
12030WAT      O36331   6.164   5.797   2.293
12030WAT     H136332   6.155   5.698   2.298
12030WAT     H236333   6.211   5.822   2.208
12031WAT      O36334   1.007   0.856   3.581
12031WAT     H136335   0.916   0.836   3.615
12031WAT     H236336   1.044   0.936   3.629
12032WAT      O36337   4.370   4.975   2.740
12032WAT     H136338   4.316   4.903   2.783
12032WAT     H236339   4.339   4.986   2.645
12033WAT      O36340   9.487   2.142   7.414
12033WAT     H136341   9.420   2.086   7.462
12033WAT     H236342   9.570   2.150   7.471
12034WAT      O36343   5.262   9.801   9.854
12034WAT     H136344   5.269   9.893   9.816
12034WAT     H236345   5.251   9.807   9.953
12035WAT      O36346   3.740   1.100   1.917
12035WAT     H136347   3.799   1.178   1.897
12035WAT     H236348   3.772   1.019   1.867
12036WAT      O36349   5.206   1.494   1.025
12036WAT     H136350   5.225   1.410   1.074
12036WAT     H236351   5.281   1.515   0.962
12037WAT      O36352   9.738   4.920   2.473
12037WAT     H136353   9.740   4.996   2.539
12037WAT     H236354   9.644   4.904   2.444
12038WAT      O36355   3.921   6.151   4.595
12038WAT     H136356   3.908   6.093   4.676
12038WAT     H236357   3.974   6.232   4.620
12039WAT      O36358   2.837   1.408   6.888
12039WAT     H136359   2.869   1.335   6.827
12039WAT     H236360   2.777   1.470   6.837
12040WAT      O36361   8.053   0.662   0.774
12040WAT     H136362   7.979   0.721   0.809
12040WAT     H236363   8.026   0.566   0.784
12041WAT      O36364   9.706   1.860   5.186
12041WAT     H136365   9.684   1.847   5.282
12041WAT     H236366   9.641   1.809   5.129
12042WAT      O36367   8.604   3.464   3.264
12042WAT     H136368   8.537   3.537   3.267
12042WAT     H236369   8.602   3.420   3.174
12043WAT      O36370   2.697   5.304   5.479
12043WAT     H136371   2.627   5.289   5.549
12043WAT     H236372   2.757   5.378   5.508
12044WAT      O36373   0.711   1.324   8.352
12044WAT     H136374   0.611   1.328   8.355
12044WAT     H236375   0.741   1.281   8.267
12045WAT      O36376   5.406   8.593   8.654
12045WAT     H136377   5.416   8.688   8.684
12045WAT     H236378   5.496   8.554   8.635
12046WAT      O36379   8.128   9.622   3.416
12046WAT     H136380   8.034   9.649   3.431
12046WAT     H236381   8.160   9.657   3.328
12047WAT      O36382   7.793   8.420   1.919
12047WAT     H136383   7.723   8.410   1.849
12047WAT     H236384   7.861   8.347   1.908
12048WAT      O36385   7.956   4.576   4.530
12048WAT     H136386   7.982   4.502   4.592
12048WAT     H236387   7.900   4.540   4.455
12049WAT      O36388   5.877   3.319   7.076
12049WAT     H136389   5.865   3.290   7.171
12049WAT     H236390   5.788   3.344   7.038
12050WAT      O36391   3.602   5.664   0.444
12050WAT     H136392   3.516   5.655   0.494
12050WAT     H236393   3.606   5.594   0.372
12051WAT      O36394   2.092   3.727   0.583
12051WAT     H136395   2.065   3.813   0.625
12051WAT     H236396   2.102   3.656   0.654
12052WAT      O36397   4.119   6.514   9.732
12052WAT     H136398   4.138   6.613   9.735
12052WAT     H236399   4.198   6.464   9.768
12053WAT      O36400   6.493   2.586   9.459
12053WAT     H136401   6.551   2.593   9.541
12053WAT     H236402   6.465   2.491   9.446
12054WAT      O36403   6.845   3.393   2.609
12054WAT     H136404   6.889   3.304   2.616
12054WAT     H236405   6.833   3.417   2.513
12055WAT      O36406   4.102   8.860   0.097
12055WAT     H136407   4.136   8.876   0.189
12055WAT     H236408   4.027   8.924   0.078
12056WAT      O36409   6.975   0.355   5.042
12056WAT     H136410   7.016   0.267   5.020
12056WAT     H236411   6.977   0.368   5.141
12057WAT      O36412   6.493   2.896   2.471
12057WAT     H136413   6.449   2.984   2.456
12057WAT     H236414   6.424   2.827   2.491
12058WAT      O36415   6.918   0.030   9.414
12058WAT     H136416   6.881   0.121   9.434
12058WAT     H236417   6.995   0.039   9.351
12059WAT      O36418   4.999   3.455   5.193
12059WAT     H136419   5.091   3.493   5.179
12059WAT     H236420   4.969   3.474   5.286
12060WAT      O36421   9.445   5.843   6.350
12060WAT     H136422   9.380   5.777   6.313
12060WAT     H236423   9.533   5.798   6.367
12061WAT      O36424   9.819   4.099   1.833
12061WAT     H136425   9.753   4.173   1.818
12061WAT     H236426   9.771   4.011   1.836
12062WAT      O36427   9.109   9.062   4.214
12062WAT     H136428   9.110   9.161   4.222
12062WAT     H236429   9.200   9.026   4.233
12063WAT      O36430   3.937   9.453   9.689
12063WAT     H136431   3.974   9.374   9.639
12063WAT     H236432   3.860   9.492   9.639
12064WAT      O36433   0.322   5.339   1.379
12064WAT     H136434   0.362   5.306   1.294
12064WAT     H236435   0.226   5.362   1.365
12065WAT      O36436   1.951   1.765   8.159
12065WAT     H136437   1.888   1.825   8.110
12065WAT     H236438   2.022   1.733   8.096
12066WAT      O36439   9.228   2.976   1.948
12066WAT     H136440   9.241   2.901   1.883
12066WAT     H236441   9.287   3.053   1.922
12067WAT      O36442   5.891   7.596   7.785
12067WAT     H136443   5.807   7.541   7.782
12067WAT     H236444   5.918   7.612   7.880
12068WAT      O36445   1.373   4.521   2.561
12068WAT     H136446   1.395   4.552   2.468
12068WAT     H236447   1.384   4.422   2.566
12069WAT      O36448   6.869   6.165   3.010
12069WAT     H136449   6.824   6.254   3.001
12069WAT     H236450   6.966   6.179   3.029
12070WAT      O36451   6.399   5.496   2.673
12070WAT     H136452   6.335   5.478   2.748
12070WAT     H236453   6.376   5.438   2.595
12071WAT      O36454   8.624   7.851   9.883
12071WAT     H136455   8.666   7.794   9.955
12071WAT     H236456   8.623   7.946   9.913
12072WAT      O36457   2.574   1.028   6.865
12072WAT     H136458   2.645   1.041   6.934
12072WAT     H236459   2.614   1.034   6.774
12073WAT      O36460   1.268   4.075   7.171
12073WAT     H136461   1.215   4.001   7.210
12073WAT     H236462   1.278   4.061   7.072
12074WAT      O36463   5.951   5.778   4.960
12074WAT     H136464   5.944   5.845   5.034
12074WAT     H236465   6.033   5.797   4.905
12075WAT      O36466   3.945   6.802   5.225
12075WAT     H136467   3.903   6.891   5.205
12075WAT     H236468   4.026   6.815   5.283
12076WAT      O36469   4.658   9.447   9.692
12076WAT     H136470   4.682   9.543   9.706
12076WAT     H236471   4.737   9.390   9.712
12077WAT      O36472   9.779   3.285   5.809
12077WAT     H136473   9.683   3.279   5.779
12077WAT     H236474   9.830   3.208   5.771
12078WAT      O36475   1.505   5.011   7.923
12078WAT     H136476   1.485   5.088   7.984
12078WAT     H236477   1.427   4.948   7.924
12079WAT      O36478   1.604   7.746   1.325
12079WAT     H136479   1.565   7.837   1.337
12079WAT     H236480   1.624   7.730   1.229
12080WAT      O36481   5.137   5.778   0.647
12080WAT     H136482   5.049   5.766   0.692
12080WAT     H236483   5.130   5.753   0.551
12081WAT      O36484   1.597   5.286   8.638
12081WAT     H136485   1.617   5.312   8.733
12081WAT     H236486   1.566   5.366   8.588
12082WAT      O36487   3.022   3.227   8.249
12082WAT     H136488   3.033   3.130   8.226
12082WAT     H236489   3.080   3.250   8.327
12083WAT      O36490   9.820   2.492   6.817
12083WAT     H136491   9.886   2.568   6.815
12083WAT     H236492   9.730   2.528   6.841
12084WAT      O36493   9.209   6.570   4.225
12084WAT     H136494   9.130   6.579   4.165
12084WAT     H236495   9.209   6.479   4.266
12085WAT      O36496   3.093   6.667   9.664
12085WAT     H136497   3.033   6.588   9.651
12085WAT     H236498   3.064   6.742   9.605
12086WAT      O36499   1.174   1.586   4.420
12086WAT     H136500   1.076   1.596   4.402
12086WAT     H236501   1.196   1.628   4.508
12087WAT      O36502   6.479   1.490   3.904
12087WAT     H136503   6.506   1.505   3.999
12087WAT     H236504   6.436   1.573   3.868
12088WAT      O36505   4.332   4.216   0.093
12088WAT     H136506   4.307   4.164   0.011
12088WAT     H236507   4.256   4.214   0.158
12089WAT      O36508   3.472   0.495   5.722
12089WAT     H136509   3.568   0.469   5.733
12089WAT     H236510   3.416   0.412   5.714
12090WAT      O36511   7.779   0.505   0.746
12090WAT     H136512   7.814   0.494   0.653
12090WAT     H236513   7.815   0.432   0.804
12091WAT      O36514   7.625   9.442   4.556
12091WAT     H136515   7.580   9.524   4.591
12091WAT     H236516   7.558   9.383   4.511
12092WAT      O36517   2.382   7.937   6.780
12092WAT     H136518   2.302   7.987   6.748
12092WAT     H236519   2.354   7.848   6.814
12093WAT      O36520   0.939   4.520   6.934
12093WAT     H136521   0.993   4.447   6.892
12093WAT     H236522   0.911   4.491   7.026
12094WAT      O36523   7.786   6.762   1.816
12094WAT     H136524   7.739   6.739   1.901
12094WAT     H236525   7.810   6.679   1.766
12095WAT      O36526   7.045   3.179   4.300
12095WAT     H136527   6.949   3.201   4.314
12095WAT     H236528   7.069   3.189   4.204
12096WAT      O36529   4.563   9.383   1.969
12096WAT     H136530   4.585   9.478   1.988
12096WAT     H236531   4.468   9.377   1.938
12097WAT      O36532   8.776   5.928   8.521
12097WAT     H136533   8.841   5.852   8.516
12097WAT     H236534   8.822   6.013   8.493
12098WAT      O36535   5.961   8.283   8.283
12098WAT     H136536   6.055   8.313   8.264
12098WAT     H236537   5.902   8.304   8.205
12099WAT      O36538   4.463   8.885   4.002
12099WAT     H136539   4.454   8.861   4.099
12099WAT     H236540   4.558   8.873   3.974
12100WAT      O36541   4.998   7.481   4.006
12100WAT     H136542   5.073   7.420   3.980
12100WAT     H236543   4.920   7.427   4.038
12101WAT      O36544   3.429   1.952   6.758
12101WAT     H136545   3.355   1.891   6.727
12101WAT     H236546   3.395   2.009   6.833
12102WAT      O36547   1.209   6.563   5.764
12102WAT     H136548   1.222   6.509   5.848
12102WAT     H236549   1.296   6.605   5.738
12103WAT      O36550   1.466   7.713   7.467
12103WAT     H136551   1.481   7.670   7.379
12103WAT     H236552   1.478   7.812   7.458
12104WAT      O36553   4.435   1.883   1.255
12104WAT     H136554   4.436   1.938   1.339
12104WAT     H236555   4.529   1.857   1.232
12105WAT      O36556   2.563   0.142   9.797
12105WAT     H136557   2.640   0.190   9.839
12105WAT     H236558   2.485   0.142   9.861
12106WAT      O36559   9.327   9.392   8.479
12106WAT     H136560   9.316   9.293   8.480
12106WAT     H236561   9.414   9.416   8.523
12107WAT      O36562   9.381   5.937   3.432
12107WAT     H136563   9.339   6.016   3.477
12107WAT     H236564   9.354   5.934   3.336
12108WAT      O36565   4.274   8.082   3.866
12108WAT     H136566   4.249   8.031   3.949
12108WAT     H236567   4.357   8.044   3.827
12109WAT      O36568   7.591   3.299   8.619
12109WAT     H136569   7.690   3.314   8.619
12109WAT     H236570   7.573   3.201   8.611
12110WAT      O36571   2.253   5.874   9.856
12110WAT     H136572   2.327   5.807   9.847
12110WAT     H236573   2.271   5.933   9.934
12111WAT      O36574   2.584   1.626   2.962
12111WAT     H136575   2.535   1.703   3.003
12111WAT     H236576   2.522   1.576   2.901
12112WAT      O36577   4.681   5.116   9.536
12112WAT     H136578   4.751   5.045   9.519
12112WAT     H236579   4.660   5.119   9.633
12113WAT      O36580   5.998   3.787   0.116
12113WAT     H136581   6.018   3.785   0.214
12113WAT     H236582   5.946   3.705   0.092
12114WAT      O36583   2.830   2.671   6.826
12114WAT     H136584   2.810   2.695   6.921
12114WAT     H236585   2.929   2.664   6.813
12115WAT      O36586   8.263   7.865   5.257
12115WAT     H136587   8.340   7.919   5.222
12115WAT     H236588   8.184   7.875   5.196
12116WAT      O36589   3.719   2.428   6.638
12116WAT     H136590   3.762   2.357   6.694
12116WAT     H236591   3.650   2.387   6.579
12117WAT      O36592   3.958   4.563   1.240
12117WAT     H136593   4.032   4.527   1.183
12117WAT     H236594   3.932   4.495   1.308
12118WAT      O36595   3.497   2.393   2.907
12118WAT     H136596   3.502   2.336   2.988
12118WAT     H236597   3.407   2.382   2.863
12119WAT      O36598   2.762   7.147   1.507
12119WAT     H136599   2.789   7.053   1.529
12119WAT     H236600   2.666   7.149   1.478
12120WAT      O36601   9.383   3.054   7.076
12120WAT     H136602   9.320   3.093   7.143
12120WAT     H236603   9.419   3.126   7.018
12121WAT      O36604   6.260   3.828   9.861
12121WAT     H136605   6.317   3.748   9.844
12121WAT     H236606   6.164   3.799   9.869
12122WAT      O36607   3.447   0.777   0.270
12122WAT     H136608   3.520   0.804   0.207
12122WAT     H236609   3.479   0.786   0.364
12123WAT      O36610   4.391   9.455   1.463
12123WAT     H136611   4.347   9.505   1.389
12123WAT     H236612   4.403   9.359   1.436
12124WAT      O36613   3.906   9.123   0.715
12124WAT     H136614   3.971   9.107   0.640
12124WAT     H236615   3.861   9.211   0.702
12125WAT      O36616   7.053   0.973   1.538
12125WAT     H136617   7.048   1.051   1.600
12125WAT     H236618   7.132   0.916   1.562
12126WAT      O36619   3.681   1.808   2.558
12126WAT     H136620   3.773   1.816   2.521
12126WAT     H236621   3.681   1.743   2.634
12127WAT      O36622   2.699   5.325   3.012
12127WAT     H136623   2.693   5.332   2.912
12127WAT     H236624   2.794   5.316   3.039
12128WAT      O36625   5.143   0.133   8.856
12128WAT     H136626   5.165   0.137   8.954
12128WAT     H236627   5.147   0.225   8.818
12129WAT      O36628   4.381   0.323   3.154
12129WAT     H136629   4.456   0.257   3.149
12129WAT     H236630   4.401   0.402   3.096
12130WAT      O36631   3.075   5.075   7.560
12130WAT     H136632   3.171   5.094   7.582
12130WAT     H236633   3.070   4.995   7.500
12131WAT      O36634   1.236   2.797   8.981
12131WAT     H136635   1.202   2.861   8.912
12131WAT     H236636   1.236   2.841   9.071
12132WAT      O36637   6.476   0.873   7.093
12132WAT     H136638   6.487   0.792   7.151
12132WAT     H236639   6.403   0.857   7.027
12133WAT      O36640   6.079   9.454   8.429
12133WAT     H136641   6.054   9.518   8.356
12133WAT     H236642   6.030   9.368   8.417
12134WAT      O36643   9.755   9.562   8.859
12134WAT     H136644   9.678   9.507   8.891
12134WAT     H236645   9.721   9.642   8.810
12135WAT      O36646   0.497   3.055   1.927
12135WAT     H136647   0.481   3.040   2.024
12135WAT     H236648   0.557   2.983   1.892
12136WAT      O36649   4.392   5.321   7.707
12136WAT     H136650   4.474   5.333   7.650
12136WAT     H236651   4.347   5.235   7.682
12137WAT      O36652   1.736   9.765   1.248
12137WAT     H136653   1.692   9.724   1.169
12137WAT     H236654   1.824   9.804   1.221
12138WAT      O36655   8.952   9.715   4.363
12138WAT     H136656   8.904   9.780   4.421
12138WAT     H236657   8.888   9.675   4.297
12139WAT      O36658   8.029   5.502   5.417
12139WAT     H136659   8.070   5.505   5.326
12139WAT     H236660   8.039   5.410   5.455
12140WAT      O36661   2.423   5.624   7.775
12140WAT     H136662   2.440   5.612   7.872
12140WAT     H236663   2.344   5.684   7.762
12141WAT      O36664   4.815   9.170   3.187
12141WAT     H136665   4.889   9.103   3.185
12141WAT     H236666   4.744   9.140   3.251
12142WAT      O36667   5.605   3.594   6.569
12142WAT     H136668   5.624   3.609   6.472
12142WAT     H236669   5.513   3.628   6.590
12143WAT      O36670   8.721   7.456   6.841
12143WAT     H136671   8.772   7.497   6.916
12143WAT     H236672   8.783   7.408   6.780
12144WAT      O36673   2.835   6.012   9.417
12144WAT     H136674   2.742   6.037   9.392
12144WAT     H236675   2.894   6.093   9.413
12145WAT      O36676   2.166   6.221   1.941
12145WAT     H136677   2.110   6.168   2.005
12145WAT     H236678   2.218   6.290   1.992
12146WAT      O36679   9.697   9.392   5.245
12146WAT     H136680   9.730   9.309   5.200
12146WAT     H236681   9.644   9.368   5.326
12147WAT      O36682   8.321   6.560   8.077
12147WAT     H136683   8.355   6.643   8.123
12147WAT     H236684   8.398   6.514   8.031
12148WAT      O36685   7.934   4.964   6.752
12148WAT     H136686   7.965   4.920   6.668
12148WAT     H236687   7.980   4.923   6.831
12149WAT      O36688   2.171   7.307   6.653
12149WAT     H136689   2.211   7.217   6.636
12149WAT     H236690   2.116   7.335   6.574
12150WAT      O36691   4.880   8.014   3.801
12150WAT     H136692   4.872   8.112   3.786
12150WAT     H236693   4.973   7.984   3.782
12151WAT      O36694   1.570   0.687   4.501
12151WAT     H136695   1.606   0.718   4.413
12151WAT     H236696   1.612   0.741   4.574
12152WAT      O36697   3.599   8.993   8.421
12152WAT     H136698   3.687   9.041   8.424
12152WAT     H236699   3.586   8.952   8.331
12153WAT      O36700   6.071   6.896   7.944
12153WAT     H136701   6.052   6.858   8.034
12153WAT     H236702   5.986   6.905   7.892
12154WAT      O36703   1.084   2.059   3.179
12154WAT     H136704   0.994   2.041   3.139
12154WAT     H236705   1.106   2.156   3.169
12155WAT      O36706   0.410   4.486   7.855
12155WAT     H136707   0.360   4.428   7.791
12155WAT     H236708   0.459   4.557   7.806
12156WAT      O36709   7.260   5.166   8.479
12156WAT     H136710   7.320   5.245   8.493
12156WAT     H236711   7.169   5.198   8.456
12157WAT      O36712   6.557   6.744   4.503
12157WAT     H136713   6.561   6.689   4.420
12157WAT     H236714   6.629   6.714   4.566
12158WAT      O36715   4.973   3.182   6.111
12158WAT     H136716   5.010   3.113   6.049
12158WAT     H236717   4.878   3.159   6.134
12159WAT      O36718   9.390   7.703   5.063
12159WAT     H136719   9.393   7.758   4.980
12159WAT     H236720   9.357   7.759   5.139
12160WAT      O36721   3.941   1.899   2.546
12160WAT     H136722   4.039   1.910   2.534
12160WAT     H236723   3.906   1.972   2.605
12161WAT      O36724   5.786   6.436   1.917
12161WAT     H136725   5.694   6.472   1.898
12161WAT     H236726   5.811   6.371   1.846
12162WAT      O36727   5.250   8.010   0.096
12162WAT     H136728   5.199   8.092   0.070
12162WAT     H236729   5.214   7.931   0.047
12163WAT      O36730   1.960   1.721   7.328
12163WAT     H136731   2.021   1.799   7.342
12163WAT     H236732   1.915   1.729   7.239
12164WAT      O36733   2.601   1.690   8.409
12164WAT     H136734   2.544   1.608   8.408
12164WAT     H236735   2.685   1.673   8.460
12165WAT      O36736   7.364   0.338   2.705
12165WAT     H136737   7.311   0.256   2.684
12165WAT     H236738   7.303   0.409   2.740
12166WAT      O36739   3.793   6.964   6.292
12166WAT     H136740   3.814   6.884   6.348
12166WAT     H236741   3.876   7.017   6.277
12167WAT      O36742   8.012   7.190   3.275
12167WAT     H136743   8.081   7.119   3.264
12167WAT     H236744   8.034   7.247   3.353
12168WAT      O36745   7.479   2.456   3.123
12168WAT     H136746   7.445   2.380   3.178
12168WAT     H236747   7.540   2.513   3.179
12169WAT      O36748   4.596   2.702   8.981
12169WAT     H136749   4.615   2.709   9.079
12169WAT     H236750   4.666   2.752   8.930
12170WAT      O36751   1.590   7.300   6.231
12170WAT     H136752   1.677   7.272   6.191
12170WAT     H236753   1.529   7.221   6.237
12171WAT      O36754   9.425   4.534   3.611
12171WAT     H136755   9.470   4.556   3.525
12171WAT     H236756   9.475   4.575   3.687
12172WAT      O36757   7.586   2.998   2.802
12172WAT     H136758   7.494   3.017   2.768
12172WAT     H236759   7.605   2.900   2.795
12173WAT      O36760   4.993   7.516   1.835
12173WAT     H136761   4.923   7.469   1.781
12173WAT     H236762   4.967   7.513   1.932
12174WAT      O36763   0.114   0.587   4.831
12174WAT     H136764   0.139   0.490   4.838
12174WAT     H236765   0.035   0.596   4.771
12175WAT      O36766   2.200   6.449   2.715
12175WAT     H136767   2.108   6.489   2.711
12175WAT     H236768   2.197   6.355   2.682
12176WAT      O36769   7.506   2.272   8.888
12176WAT     H136770   7.471   2.234   8.974
12176WAT     H236771   7.430   2.311   8.836
12177WAT      O36772   0.098   6.644   4.876
12177WAT     H136773   0.024   6.584   4.845
12177WAT     H236774   0.061   6.735   4.894
12178WAT      O36775   3.486   9.257   0.098
12178WAT     H136776   3.399   9.304   0.086
12178WAT     H236777   3.506   9.202   0.017
12179WAT      O36778   0.073   8.879   6.843
12179WAT     H136779   0.141   8.941   6.805
12179WAT     H236780  -0.016   8.925   6.848
12180WAT      O36781   2.486   0.898   2.347
12180WAT     H136782   2.475   0.807   2.308
12180WAT     H236783   2.542   0.891   2.430
12181WAT      O36784   7.224   6.442   6.048
12181WAT     H136785   7.232   6.537   6.078
12181WAT     H236786   7.185   6.440   5.956
12182WAT      O36787   0.108   3.625   6.291
12182WAT     H136788   0.159   3.544   6.262
12182WAT     H236789   0.060   3.606   6.376
12183WAT      O36790   1.650   8.578   9.412
12183WAT     H136791   1.599   8.535   9.486
12183WAT     H236792   1.718   8.514   9.376
12184WAT      O36793   1.516   5.878   8.370
12184WAT     H136794   1.461   5.811   8.420
12184WAT     H236795   1.495   5.970   8.405
12185WAT      O36796   2.197   8.807   1.766
12185WAT     H136797   2.271   8.875   1.763
12185WAT     H236798   2.122   8.838   1.707
12186WAT      O36799   6.306   6.548   8.369
12186WAT     H136800   6.309   6.477   8.298
12186WAT     H236801   6.285   6.636   8.328
12187WAT      O36802   6.169   9.080   8.658
12187WAT     H136803   6.149   9.048   8.566
12187WAT     H236804   6.212   9.171   8.654
12188WAT      O36805   2.773   4.590   0.296
12188WAT     H136806   2.724   4.576   0.210
12188WAT     H236807   2.804   4.685   0.302
12189WAT      O36808   4.405   3.068   4.613
12189WAT     H136809   4.341   3.125   4.666
12189WAT     H236810   4.400   2.974   4.645
12190WAT      O36811   3.264   2.962   4.060
12190WAT     H136812   3.166   2.969   4.040
12190WAT     H236813   3.314   3.031   4.008
12191WAT      O36814   3.251   0.665   2.861
12191WAT     H136815   3.254   0.763   2.883
12191WAT     H236816   3.324   0.642   2.797
12192WAT      O36817   6.406   0.827   9.501
12192WAT     H136818   6.446   0.911   9.536
12192WAT     H236819   6.402   0.830   9.401
12193WAT      O36820   6.418   4.574   7.058
12193WAT     H136821   6.478   4.633   7.004
12193WAT     H236822   6.377   4.626   7.132
12194WAT      O36823   0.768   1.885   0.437
12194WAT     H136824   0.765   1.796   0.392
12194WAT     H236825   0.858   1.898   0.479
12195WAT      O36826   4.134   7.692   8.983
12195WAT     H136827   4.067   7.755   9.022
12195WAT     H236828   4.185   7.647   9.057
12196WAT      O36829   1.290   6.315   2.378
12196WAT     H136830   1.381   6.277   2.396
12196WAT     H236831   1.266   6.379   2.450
12197WAT      O36832   7.961   9.367   2.321
12197WAT     H136833   7.995   9.452   2.362
12197WAT     H236834   8.027   9.294   2.337
12198WAT      O36835   4.443   1.331   7.004
12198WAT     H136836   4.512   1.343   6.933
12198WAT     H236837   4.403   1.420   7.027
12199WAT      O36838   2.935   9.654   2.503
12199WAT     H136839   2.949   9.660   2.601
12199WAT     H236840   2.853   9.600   2.484
12200WAT      O36841   6.885   8.560   3.616
12200WAT     H136842   6.899   8.589   3.521
12200WAT     H236843   6.901   8.462   3.623
12201WAT      O36844   5.189   5.737   3.335
12201WAT     H136845   5.170   5.830   3.364
12201WAT     H236846   5.258   5.738   3.263
12202WAT      O36847   7.702   6.517   5.706
12202WAT     H136848   7.615   6.552   5.743
12202WAT     H236849   7.752   6.469   5.778
12203WAT      O36850   6.052   5.843   1.751
12203WAT     H136851   6.087   5.753   1.723
12203WAT     H236852   5.962   5.831   1.795
12204WAT      O36853   1.345   1.625   8.908
12204WAT     H136854   1.316   1.573   8.988
12204WAT     H236855   1.398   1.565   8.847
12205WAT      O36856   7.951   5.550   6.507
12205WAT     H136857   8.022   5.480   6.521
12205WAT     H236858   7.977   5.609   6.431
12206WAT      O36859   6.008   1.912   7.341
12206WAT     H136860   6.107   1.912   7.326
12206WAT     H236861   5.988   1.957   7.428
12207WAT      O36862   5.864   2.570   0.769
12207WAT     H136863   5.963   2.570   0.782
12207WAT     H236864   5.838   2.640   0.703
12208WAT      O36865   5.592   6.804   1.900
12208WAT     H136866   5.577   6.706   1.884
12208WAT     H236867   5.520   6.857   1.856
12209WAT      O36868   9.599   0.175   0.143
12209WAT     H136869   9.515   0.205   0.189
12209WAT     H236870   9.592   0.194   0.045
12210WAT      O36871   1.879   7.183   5.296
12210WAT     H136872   1.873   7.123   5.217
12210WAT     H236873   1.822   7.148   5.370
12211WAT      O36874   4.150   1.945   9.045
12211WAT     H136875   4.214   1.963   8.970
12211WAT     H236876   4.147   2.024   9.106
12212WAT      O36877   6.240   5.994   7.175
12212WAT     H136878   6.155   6.027   7.214
12212WAT     H236879   6.233   5.992   7.075
12213WAT      O36880   3.049   8.672   9.442
12213WAT     H136881   3.054   8.624   9.530
12213WAT     H236882   2.991   8.753   9.452
12214WAT      O36883   6.465   3.982   1.026
12214WAT     H136884   6.554   4.006   0.987
12214WAT     H236885   6.412   3.929   0.960
12215WAT      O36886   8.723   4.530   2.453
12215WAT     H136887   8.799   4.485   2.406
12215WAT     H236888   8.759   4.596   2.519
12216WAT      O36889   2.877   2.915   7.394
12216WAT     H136890   2.944   2.877   7.458
12216WAT     H236891   2.818   2.842   7.360
12217WAT      O36892   8.147   5.324   7.403
12217WAT     H136893   8.173   5.228   7.417
12217WAT     H236894   8.228   5.382   7.406
12218WAT      O36895   7.421   7.923   2.074
12218WAT     H136896   7.326   7.953   2.066
12218WAT     H236897   7.477   7.969   2.005
12219WAT      O36898   5.362   1.512   0.796
12219WAT     H136899   5.457   1.522   0.767
12219WAT     H236900   5.316   1.446   0.737
12220WAT      O36901   9.266   3.648   0.834
12220WAT     H136902   9.338   3.707   0.870
12220WAT     H236903   9.177   3.677   0.871
12221WAT      O36904   7.198   7.674   4.786
12221WAT     H136905   7.115   7.650   4.736
12221WAT     H236906   7.238   7.757   4.747
12222WAT      O36907   6.816   1.104   2.488
12222WAT     H136908   6.834   1.064   2.399
12222WAT     H236909   6.779   1.196   2.477
12223WAT      O36910   4.770   7.951   2.393
12223WAT     H136911   4.680   7.939   2.436
12223WAT     H236912   4.778   8.044   2.359
12224WAT      O36913   2.113   9.042   5.121
12224WAT     H136914   2.083   9.026   5.216
12224WAT     H236915   2.047   9.100   5.075
12225WAT      O36916   0.226   3.104   0.226
12225WAT     H136917   0.326   3.105   0.222
12225WAT     H236918   0.197   3.098   0.321
12226WAT      O36919   7.540   4.406   4.400
12226WAT     H136920   7.494   4.470   4.339
12226WAT     H236921   7.568   4.455   4.483
12227WAT      O36922   4.621   8.129   1.598
12227WAT     H136923   4.557   8.061   1.562
12227WAT     H236924   4.573   8.216   1.613
12228WAT      O36925   1.938   5.364   4.910
12228WAT     H136926   1.941   5.320   5.000
12228WAT     H236927   1.865   5.431   4.909
12229WAT      O36928   1.410   4.618   8.627
12229WAT     H136929   1.503   4.649   8.649
12229WAT     H236930   1.386   4.649   8.535
12230WAT      O36931   3.574   6.283   9.833
12230WAT     H136932   3.538   6.372   9.807
12230WAT     H236933   3.674   6.288   9.838
12231WAT      O36934   5.739   6.967   6.957
12231WAT     H136935   5.698   6.975   6.866
12231WAT     H236936   5.802   7.043   6.973
12232WAT      O36937   2.366   1.035   7.466
12232WAT     H136938   2.371   0.981   7.550
12232WAT     H236939   2.283   1.091   7.467
12233WAT      O36940   6.078   4.395   5.110
12233WAT     H136941   6.120   4.392   5.019
12233WAT     H236942   6.057   4.301   5.139
12234WAT      O36943   5.789   5.681   4.261
12234WAT     H136944   5.739   5.711   4.341
12234WAT     H236945   5.847   5.602   4.285
12235WAT      O36946   0.767   3.703   4.653
12235WAT     H136947   0.745   3.764   4.577
12235WAT     H236948   0.726   3.738   4.737
12236WAT      O36949   5.420   4.932   6.562
12236WAT     H136950   5.490   4.902   6.498
12236WAT     H236951   5.330   4.921   6.521
12237WAT      O36952   8.474   3.806   0.078
12237WAT     H136953   8.532   3.884   0.054
12237WAT     H236954   8.520   3.721   0.051
12238WAT      O36955   4.167   5.440   7.582
12238WAT     H136956   4.245   5.398   7.630
12238WAT     H236957   4.170   5.539   7.596
12239WAT      O36958   1.559   8.051   3.495
12239WAT     H136959   1.638   7.992   3.515
12239WAT     H236960   1.582   8.146   3.517
12240WAT      O36961   4.961   0.018   5.094
12240WAT     H136962   4.862   0.026   5.107
12240WAT     H236963   5.001  -0.029   5.173
12241WAT      O36964   4.951   1.603   4.558
12241WAT     H136965   4.963   1.587   4.655
12241WAT     H236966   4.862   1.567   4.529
12242WAT      O36967   4.188   7.747   0.668
12242WAT     H136968   4.113   7.703   0.618
12242WAT     H236969   4.249   7.791   0.603
12243WAT      O36970   3.078   0.738   3.459
12243WAT     H136971   3.039   0.782   3.540
12243WAT     H236972   3.051   0.788   3.377
12244WAT      O36973   3.530   5.943   9.806
12244WAT     H136974   3.543   5.994   9.721
12244WAT     H236975   3.584   5.986   9.879
12245WAT      O36976   2.205   2.491   4.793
12245WAT     H136977   2.206   2.485   4.893
12245WAT     H236978   2.115   2.465   4.759
12246WAT      O36979   1.974   6.076   7.516
12246WAT     H136980   2.050   6.097   7.577
12246WAT     H236981   2.005   6.012   7.445
12247WAT      O36982   1.347   0.451   8.651
12247WAT     H136983   1.269   0.509   8.673
12247WAT     H236984   1.363   0.453   8.552
12248WAT      O36985   0.422   3.477   1.005
12248WAT     H136986   0.355   3.552   1.006
12248WAT     H236987   0.491   3.495   0.935
12249WAT      O36988   1.304   9.272   4.510
12249WAT     H136989   1.213   9.237   4.485
12249WAT     H236990   1.359   9.286   4.428
12250WAT      O36991   5.848   7.625   8.651
12250WAT     H136992   5.921   7.615   8.584
12250WAT     H236993   5.787   7.545   8.646
12251WAT      O36994   1.981   0.218   2.126
12251WAT     H136995   2.038   0.251   2.051
12251WAT     H236996   2.032   0.148   2.177
12252WAT      O36997   0.014   3.555   7.291
12252WAT     H136998  -0.021   3.540   7.198
12252WAT     H236999   0.113   3.570   7.287
12253WAT      O37000   8.389   3.640   3.280
12253WAT     H137001   8.409   3.728   3.236
12253WAT     H237002   8.291   3.636   3.301
12254WAT      O37003   4.858   3.819   5.837
12254WAT     H137004   4.797   3.791   5.764
12254WAT     H237005   4.953   3.812   5.807
12255WAT      O37006   8.503   7.673   2.200
12255WAT     H137007   8.553   7.723   2.130
12255WAT     H237008   8.519   7.716   2.289
12256WAT      O37009   3.950   5.448   3.408
12256WAT     H137010   3.878   5.379   3.411
12256WAT     H237011   3.909   5.539   3.396
12257WAT      O37012   6.543   4.915   3.252
12257WAT     H137013   6.557   4.828   3.300
12257WAT     H237014   6.445   4.934   3.246
12258WAT      O37015   4.671   5.839   3.665
12258WAT     H137016   4.600   5.909   3.674
12258WAT     H237017   4.737   5.849   3.740
12259WAT      O37018   1.219   7.842   0.654
12259WAT     H137019   1.123   7.818   0.663
12259WAT     H237020   1.274   7.777   0.707
12260WAT      O37021   8.904   2.845   5.745
12260WAT     H137022   8.822   2.897   5.769
12260WAT     H237023   8.943   2.804   5.828
12261WAT      O37024   9.142   7.569   8.394
12261WAT     H137025   9.238   7.581   8.421
12261WAT     H237026   9.117   7.473   8.402
12262WAT      O37027   3.523   8.329   8.374
12262WAT     H137028   3.550   8.402   8.311
12262WAT     H237029   3.585   8.252   8.365
12263WAT      O37030   7.800   8.636   5.662
12263WAT     H137031   7.822   8.734   5.669
12263WAT     H237032   7.874   8.582   5.701
12264WAT      O37033   9.008   3.411   0.043
12264WAT     H137034   9.011   3.510   0.033
12264WAT     H237035   8.912   3.380   0.043
12265WAT      O37036   2.040   9.146   4.852
12265WAT     H137037   1.940   9.144   4.864
12265WAT     H237038   2.062   9.156   4.755
12266WAT      O37039   8.849   0.254   3.281
12266WAT     H137040   8.764   0.302   3.260
12266WAT     H237041   8.827   0.163   3.316
12267WAT      O37042   6.992   4.146   5.361
12267WAT     H137043   6.907   4.176   5.316
12267WAT     H237044   7.038   4.225   5.400
12268WAT      O37045   3.127   7.124   1.657
12268WAT     H137046   3.151   7.161   1.747
12268WAT     H237047   3.208   7.084   1.615
12269WAT      O37048   9.681   5.001   9.323
12269WAT     H137049   9.581   4.999   9.325
12269WAT     H237050   9.712   5.066   9.254
12270WAT      O37051   6.116   0.498   1.054
12270WAT     H137052   6.053   0.563   1.011
12270WAT     H237053   6.170   0.545   1.124
12271WAT      O37054   2.516   3.996   4.688
12271WAT     H137055   2.496   3.954   4.777
12271WAT     H237056   2.605   3.965   4.656
12272WAT      O37057   2.953   8.541   0.377
12272WAT     H137058   2.998   8.451   0.377
12272WAT     H237059   3.020   8.612   0.358
12273WAT      O37060   0.824   3.562   8.103
12273WAT     H137061   0.894   3.598   8.041
12273WAT     H237062   0.811   3.626   8.179
12274WAT      O37063   3.234   5.980   1.931
12274WAT     H137064   3.179   5.904   1.896
12274WAT     H237065   3.261   6.039   1.855
12275WAT      O37066   1.184   5.915   3.761
12275WAT     H137067   1.176   5.878   3.853
12275WAT     H237068   1.224   5.846   3.700
12276WAT      O37069   2.743   7.756   9.721
12276WAT     H137070   2.810   7.822   9.688
12276WAT     H237071   2.790   7.675   9.757
12277WAT      O37072   7.281   9.236   4.743
12277WAT     H137073   7.283   9.276   4.652
12277WAT     H237074   7.190   9.247   4.782
12278WAT      O37075   9.419   2.487   5.546
12278WAT     H137076   9.476   2.565   5.521
12278WAT     H237077   9.473   2.404   5.542
12279WAT      O37078   7.412   8.806   7.496
12279WAT     H137079   7.412   8.708   7.516
12279WAT     H237080   7.379   8.856   7.576
12280WAT      O37081   8.685   6.017   8.855
12280WAT     H137082   8.602   6.066   8.829
12280WAT     H237083   8.745   6.078   8.907
12281WAT      O37084   5.171   1.282   5.629
12281WAT     H137085   5.073   1.303   5.621
12281WAT     H237086   5.193   1.206   5.568
12282WAT      O37087   3.216   7.359   0.099
12282WAT     H137088   3.227   7.310   0.012
12282WAT     H237089   3.181   7.296   0.168
12283WAT      O37090   0.376   1.452   7.325
12283WAT     H137091   0.325   1.381   7.275
12283WAT     H237092   0.332   1.540   7.312
12284WAT      O37093   2.164   3.166   9.672
12284WAT     H137094   2.227   3.235   9.707
12284WAT     H237095   2.189   3.142   9.578
12285WAT      O37096   6.958   0.996   5.837
12285WAT     H137097   6.938   0.950   5.750
12285WAT     H237098   7.051   1.032   5.835
12286WAT      O37099   5.046   0.648   4.850
12286WAT     H137100   5.095   0.626   4.765
12286WAT     H237101   5.049   0.570   4.912
12287WAT      O37102   6.269   9.467   2.412
12287WAT     H137103   6.256   9.562   2.385
12287WAT     H237104   6.200   9.441   2.480
12288WAT      O37105   7.209   3.517   6.323
12288WAT     H137106   7.196   3.566   6.409
12288WAT     H237107   7.221   3.583   6.249
12289WAT      O37108   2.259   0.235   0.251
12289WAT     H137109   2.177   0.194   0.290
12289WAT     H237110   2.262   0.332   0.275
12290WAT      O37111   7.422   2.643   1.635
12290WAT     H137112   7.458   2.731   1.667
12290WAT     H237113   7.461   2.622   1.546
12291WAT      O37114   3.315   6.157   7.066
12291WAT     H137115   3.315   6.063   7.097
12291WAT     H237116   3.289   6.218   7.141
12292WAT      O37117   5.178   2.795   4.143
12292WAT     H137118   5.215   2.778   4.052
12292WAT     H237119   5.220   2.733   4.209
12293WAT      O37120   3.732   8.202   8.703
12293WAT     H137121   3.647   8.252   8.688
12293WAT     H237122   3.715   8.125   8.766
12294WAT      O37123   2.395   0.180   6.473
12294WAT     H137124   2.492   0.204   6.462
12294WAT     H237125   2.338   0.260   6.455
12295WAT      O37126   4.964   5.334   0.123
12295WAT     H137127   5.003   5.242   0.137
12295WAT     H237128   4.938   5.372   0.212
12296WAT      O37129   3.581   6.530   5.172
12296WAT     H137130   3.681   6.522   5.177
12296WAT     H237131   3.540   6.477   5.246
12297WAT      O37132   0.250   5.914   4.731
12297WAT     H137133   0.152   5.921   4.747
12297WAT     H237134   0.275   5.818   4.715
12298WAT      O37135   7.417   4.101   5.123
12298WAT     H137136   7.514   4.101   5.147
12298WAT     H237137   7.398   4.178   5.062
12299WAT      O37138   6.067   3.924   1.422
12299WAT     H137139   5.991   3.929   1.487
12299WAT     H237140   6.143   3.874   1.464
12300WAT      O37141   4.888   3.560   2.799
12300WAT     H137142   4.958   3.621   2.838
12300WAT     H237143   4.801   3.610   2.793
12301WAT      O37144   0.226   5.731   2.226
12301WAT     H137145   0.133   5.736   2.191
12301WAT     H237146   0.286   5.689   2.157
12302WAT      O37147   4.471   2.572   0.465
12302WAT     H137148   4.372   2.564   0.480
12302WAT     H237149   4.509   2.640   0.528
12303WAT      O37150   8.579   9.608   1.990
12303WAT     H137151   8.494   9.556   2.002
12303WAT     H237152   8.650   9.569   2.048
12304WAT      O37153   4.633   1.033   6.349
12304WAT     H137154   4.647   1.128   6.378
12304WAT     H237155   4.538   1.021   6.320
12305WAT      O37156   2.360   7.126   0.283
12305WAT     H137157   2.322   7.217   0.296
12305WAT     H237158   2.460   7.132   0.280
12306WAT      O37159   8.277   9.144   7.229
12306WAT     H137160   8.257   9.234   7.190
12306WAT     H237161   8.192   9.102   7.260
12307WAT      O37162   2.368   2.517   9.547
12307WAT     H137163   2.285   2.461   9.532
12307WAT     H237164   2.404   2.498   9.639
12308WAT      O37165   2.052   1.031   5.287
12308WAT     H137166   2.118   1.101   5.312
12308WAT     H237167   1.984   1.021   5.360
12309WAT      O37168   3.233   1.131   6.677
12309WAT     H137169   3.251   1.175   6.589
12309WAT     H237170   3.142   1.155   6.709
12310WAT      O37171   8.039   0.144   2.872
12310WAT     H137172   8.015   0.233   2.834
12310WAT     H237173   7.975   0.120   2.944
12311WAT      O37174   2.727   1.154   9.559
12311WAT     H137175   2.805   1.163   9.497
12311WAT     H237176   2.652   1.108   9.512
12312WAT      O37177   1.881   6.564   0.857
12312WAT     H137178   1.867   6.465   0.855
12312WAT     H237179   1.893   6.599   0.764
12313WAT      O37180   0.521   3.200   0.254
12313WAT     H137181   0.568   3.283   0.226
12313WAT     H237182   0.505   3.202   0.353
12314WAT      O37183   9.507   4.914   6.918
12314WAT     H137184   9.452   4.850   6.864
12314WAT     H237185   9.457   5.000   6.927
12315WAT      O37186   6.820   2.916   8.845
12315WAT     H137187   6.748   2.977   8.879
12315WAT     H237188   6.834   2.931   8.748
12316WAT      O37189   9.713   1.174   7.313
12316WAT     H137190   9.622   1.132   7.305
12316WAT     H237191   9.759   1.138   7.393
12317WAT      O37192   2.436   6.836   5.727
12317WAT     H137193   2.355   6.817   5.783
12317WAT     H237194   2.505   6.766   5.745
12318WAT      O37195   3.286   1.770   2.685
12318WAT     H137196   3.311   1.806   2.775
12318WAT     H237197   3.290   1.670   2.686
12319WAT      O37198   6.844   1.755   8.356
12319WAT     H137199   6.932   1.713   8.335
12319WAT     H237200   6.774   1.683   8.361
12320WAT      O37201   2.976   3.771   0.858
12320WAT     H137202   2.949   3.796   0.951
12320WAT     H237203   3.055   3.709   0.861
12321WAT      O37204   7.086   2.789   1.047
12321WAT     H137205   7.072   2.813   0.952
12321WAT     H237206   7.049   2.697   1.065
12322WAT      O37207   9.663   1.483   5.829
12322WAT     H137208   9.760   1.504   5.812
12322WAT     H237209   9.656   1.405   5.892
12323WAT      O37210   0.713   5.218   1.426
12323WAT     H137211   0.741   5.283   1.498
12323WAT     H237212   0.793   5.164   1.398
12324WAT      O37213   8.921   5.814   3.815
12324WAT     H137214   8.978   5.895   3.810
12324WAT     H237215   8.839   5.827   3.759
12325WAT      O37216   5.662   8.743   1.300
12325WAT     H137217   5.683   8.729   1.203
12325WAT     H237218   5.630   8.658   1.339
12326WAT      O37219   8.722   1.469   6.895
12326WAT     H137220   8.676   1.386   6.927
12326WAT     H237221   8.763   1.451   6.805
12327WAT      O37222   8.345   6.343   7.691
12327WAT     H137223   8.422   6.391   7.734
12327WAT     H237224   8.380   6.278   7.623
12328WAT      O37225   1.993   5.782   8.831
12328WAT     H137226   2.093   5.790   8.840
12328WAT     H237227   1.970   5.761   8.736
12329WAT      O37228   0.062   7.506   4.125
12329WAT     H137229   0.031   7.434   4.063
12329WAT     H237230   0.147   7.545   4.091
12330WAT      O37231   0.072   7.764   1.998
12330WAT     H137232  -0.012   7.768   2.051
12330WAT     H237233   0.149   7.741   2.057
12331WAT      O37234   0.633   7.528   3.715
12331WAT     H137235   0.681   7.455   3.765
12331WAT     H237236   0.614   7.498   3.622
12332WAT      O37237   2.379   4.740   0.264
12332WAT     H137238   2.452   4.790   0.217
12332WAT     H237239   2.415   4.701   0.349
12333WAT      O37240   6.251   1.886   9.238
12333WAT     H137241   6.241   1.909   9.335
12333WAT     H237242   6.184   1.938   9.184
12334WAT      O37243   8.540   0.494   3.455
12334WAT     H137244   8.617   0.441   3.490
12334WAT     H237245   8.568   0.590   3.445
12335WAT      O37246   9.695   4.643   0.587
12335WAT     H137247   9.723   4.621   0.680
12335WAT     H237248   9.710   4.741   0.570
12336WAT      O37249   4.079   4.042   9.526
12336WAT     H137250   3.982   4.065   9.530
12336WAT     H237251   4.094   3.951   9.564
12337WAT      O37252   4.279   9.092   0.867
12337WAT     H137253   4.372   9.088   0.830
12337WAT     H237254   4.233   9.005   0.849
12338WAT      O37255   1.009   2.950   2.115
12338WAT     H137256   1.008   2.921   2.020
12338WAT     H237257   1.102   2.944   2.151
12339WAT      O37258   1.234   1.984   3.488
12339WAT     H137259   1.286   1.967   3.404
12339WAT     H237260   1.182   2.069   3.478
12340WAT      O37261   3.059   1.009   4.478
12340WAT     H137262   3.143   1.011   4.532
12340WAT     H237263   3.010   1.096   4.488
12341WAT      O37264   7.705   0.670   2.618
12341WAT     H137265   7.674   0.584   2.577
12341WAT     H237266   7.628   0.716   2.663
12342WAT      O37267   8.654   6.860   2.208
12342WAT     H137268   8.592   6.893   2.279
12342WAT     H237269   8.688   6.770   2.232
12343WAT      O37270   8.628   4.952   7.887
12343WAT     H137271   8.577   4.985   7.966
12343WAT     H237272   8.576   4.880   7.842
12344WAT      O37273   3.194   7.717   5.933
12344WAT     H137274   3.206   7.797   5.874
12344WAT     H237275   3.161   7.746   6.023
12345WAT      O37276   6.114   2.407   3.264
12345WAT     H137277   6.144   2.500   3.286
12345WAT     H237278   6.149   2.381   3.174
12346WAT      O37279   5.493   7.653   8.238
12346WAT     H137280   5.472   7.750   8.250
12346WAT     H237281   5.427   7.613   8.175
12347WAT      O37282   3.838   2.937   3.144
12347WAT     H137283   3.834   2.999   3.223
12347WAT     H237284   3.750   2.891   3.134
12348WAT      O37285   0.671   6.938   7.702
12348WAT     H137286   0.591   6.985   7.666
12348WAT     H237287   0.657   6.917   7.799
12349WAT      O37288   2.223   9.187   5.642
12349WAT     H137289   2.230   9.122   5.566
12349WAT     H237290   2.172   9.146   5.717
12350WAT      O37291   6.444   5.641   0.702
12350WAT     H137292   6.447   5.551   0.660
12350WAT     H237293   6.351   5.677   0.698
12351WAT      O37294   0.147   4.458   1.105
12351WAT     H137295   0.105   4.433   1.017
12351WAT     H237296   0.134   4.383   1.170
12352WAT      O37297   5.973   8.446   9.865
12352WAT     H137298   5.984   8.360   9.915
12352WAT     H237299   5.998   8.523   9.923
12353WAT      O37300   9.245   1.902   5.048
12353WAT     H137301   9.266   1.824   5.107
12353WAT     H237302   9.190   1.871   4.970
12354WAT      O37303   0.780   7.777   4.597
12354WAT     H137304   0.776   7.678   4.609
12354WAT     H237305   0.811   7.798   4.505
12355WAT      O37306   0.810   0.631   0.302
12355WAT     H137307   0.773   0.709   0.251
12355WAT     H237308   0.910   0.634   0.298
12356WAT      O37309   1.302   0.988   6.924
12356WAT     H137310   1.301   0.990   7.024
12356WAT     H237311   1.351   1.069   6.890
12357WAT      O37312   3.623   4.750   9.737
12357WAT     H137313   3.525   4.760   9.720
12357WAT     H237314   3.674   4.806   9.672
12358WAT      O37315   7.863   2.385   0.223
12358WAT     H137316   7.860   2.301   0.278
12358WAT     H237317   7.828   2.461   0.276
12359WAT      O37318   4.663   7.027   5.968
12359WAT     H137319   4.595   7.047   6.038
12359WAT     H237320   4.718   7.109   5.950
12360WAT      O37321   8.168   9.654   9.003
12360WAT     H137322   8.197   9.613   9.090
12360WAT     H237323   8.141   9.749   9.020
12361WAT      O37324   2.941   4.604   5.805
12361WAT     H137325   3.041   4.594   5.809
12361WAT     H237326   2.906   4.633   5.894
12362WAT      O37327   7.969   5.584   6.957
12362WAT     H137328   7.997   5.582   7.053
12362WAT     H237329   7.962   5.490   6.923
12363WAT      O37330   4.693   8.472   1.577
12363WAT     H137331   4.697   8.377   1.546
12363WAT     H237332   4.649   8.476   1.667
12364WAT      O37333   0.221   0.315   2.536
12364WAT     H137334   0.227   0.305   2.635
12364WAT     H237335   0.128   0.293   2.506
12365WAT      O37336   0.870   4.813   7.263
12365WAT     H137337   0.968   4.820   7.243
12365WAT     H237338   0.819   4.828   7.179
12366WAT      O37339   4.361   6.362   4.432
12366WAT     H137340   4.402   6.452   4.448
12366WAT     H237341   4.363   6.342   4.334
12367WAT      O37342   5.955   0.096   7.755
12367WAT     H137343   5.937   0.189   7.723
12367WAT     H237344   6.045   0.093   7.799
12368WAT      O37345   9.319   9.579   2.369
12368WAT     H137346   9.327   9.678   2.380
12368WAT     H237347   9.223   9.552   2.378
12369WAT      O37348   2.966   4.250   9.029
12369WAT     H137349   2.978   4.333   8.974
12369WAT     H237350   2.869   4.227   9.033
12370WAT      O37351   3.160   5.935   7.192
12370WAT     H137352   3.075   5.983   7.215
12370WAT     H237353   3.152   5.893   7.102
12371WAT      O37354   5.515   5.382   3.839
12371WAT     H137355   5.468   5.470   3.843
12371WAT     H237356   5.534   5.350   3.931
12372WAT      O37357   0.080   3.942   7.968
12372WAT     H137358   0.045   3.893   7.888
12372WAT     H237359   0.155   3.890   8.008
12373WAT      O37360   2.825   9.629   2.059
12373WAT     H137361   2.784   9.632   1.968
12373WAT     H237362   2.868   9.717   2.080
12374WAT      O37363   8.542   6.468   7.824
12374WAT     H137364   8.610   6.442   7.756
12374WAT     H237365   8.535   6.568   7.827
12375WAT      O37366   5.389   5.999   4.340
12375WAT     H137367   5.387   5.912   4.291
12375WAT     H237368   5.483   6.032   4.345
12376WAT      O37369   0.979   7.384   0.006
12376WAT     H137370   0.945   7.421  -0.080
12376WAT     H237371   1.009   7.290  -0.008
12377WAT      O37372   5.797   5.716   9.626
12377WAT     H137373   5.715   5.762   9.662
12377WAT     H237374   5.798   5.621   9.658
12378WAT      O37375   1.206   1.412   7.306
12378WAT     H137376   1.188   1.397   7.403
12378WAT     H237377   1.186   1.328   7.255
12379WAT      O37378   8.460   6.722   7.527
12379WAT     H137379   8.393   6.750   7.596
12379WAT     H237380   8.429   6.752   7.437
12380WAT      O37381   5.982   9.621   2.437
12380WAT     H137382   5.931   9.653   2.517
12380WAT     H237383   6.077   9.654   2.443
12381WAT      O37384   9.231   1.427   8.581
12381WAT     H137385   9.209   1.477   8.497
12381WAT     H237386   9.217   1.486   8.660
12382WAT      O37387   2.163   1.596   6.421
12382WAT     H137388   2.091   1.605   6.352
12382WAT     H237389   2.197   1.687   6.446
12383WAT      O37390   8.455   7.695   1.349
12383WAT     H137391   8.466   7.793   1.358
12383WAT     H237392   8.514   7.648   1.414
12384WAT      O37393   1.426   5.091   7.627
12384WAT     H137394   1.397   5.051   7.541
12384WAT     H237395   1.505   5.041   7.663
12385WAT      O37396   4.102   9.144   1.065
12385WAT     H137397   4.120   9.087   1.145
12385WAT     H237398   4.182   9.144   1.005
12386WAT      O37399   0.576   0.326   5.221
12386WAT     H137400   0.604   0.416   5.255
12386WAT     H237401   0.574   0.261   5.297
12387WAT      O37402   6.551   6.141   1.875
12387WAT     H137403   6.623   6.100   1.931
12387WAT     H237404   6.592   6.197   1.803
12388WAT      O37405   7.499   9.078   9.439
12388WAT     H137406   7.521   9.175   9.436
12388WAT     H237407   7.580   9.024   9.418
12389WAT      O37408   6.677   6.868   2.434
12389WAT     H137409   6.747   6.939   2.440
12389WAT     H237410   6.599   6.903   2.381
12390WAT      O37411   2.620   4.490   0.084
12390WAT     H137412   2.588   4.560   0.021
12390WAT     H237413   2.655   4.412   0.032
12391WAT      O37414   3.396   0.167   7.748
12391WAT     H137415   3.463   0.119   7.690
12391WAT     H237416   3.395   0.125   7.838
12392WAT      O37417   5.350   9.008   1.883
12392WAT     H137418   5.363   8.999   1.784
12392WAT     H237419   5.266   8.961   1.910
12393WAT      O37420   1.283   7.352   4.050
12393WAT     H137421   1.355   7.383   3.988
12393WAT     H237422   1.308   7.264   4.090
12394WAT      O37423   0.963   9.834   1.929
12394WAT     H137424   1.051   9.793   1.906
12394WAT     H237425   0.944   9.819   2.026
12395WAT      O37426   1.906   6.959   2.558
12395WAT     H137427   1.990   6.987   2.511
12395WAT     H237428   1.909   6.991   2.653
12396WAT      O37429   1.877   2.288   7.405
12396WAT     H137430   1.896   2.330   7.494
12396WAT     H237431   1.786   2.315   7.374
12397WAT      O37432   7.274   4.898   1.728
12397WAT     H137433   7.284   4.799   1.733
12397WAT     H237434   7.220   4.930   1.806
12398WAT      O37435   6.035   1.993   6.591
12398WAT     H137436   6.103   1.933   6.633
12398WAT     H237437   6.081   2.068   6.544
12399WAT      O37438   6.922   2.404   7.782
12399WAT     H137439   6.945   2.340   7.708
12399WAT     H237440   6.994   2.404   7.850
12400WAT      O37441   2.618   6.519   1.345
12400WAT     H137442   2.670   6.566   1.416
12400WAT     H237443   2.674   6.509   1.263
12401WAT      O37444   7.052   0.264   7.237
12401WAT     H137445   7.090   0.301   7.152
12401WAT     H237446   7.120   0.205   7.281
12402WAT      O37447   7.549   0.590   6.366
12402WAT     H137448   7.542   0.651   6.445
12402WAT     H237449   7.580   0.642   6.287
12403WAT      O37450   7.576   7.533   8.100
12403WAT     H137451   7.557   7.455   8.159
12403WAT     H237452   7.501   7.599   8.107
12404WAT      O37453   7.252   0.137   5.557
12404WAT     H137454   7.165   0.093   5.535
12404WAT     H237455   7.268   0.131   5.655
12405WAT      O37456   1.034   1.564   5.712
12405WAT     H137457   1.122   1.519   5.723
12405WAT     H237458   1.015   1.620   5.792
12406WAT      O37459   0.678   8.603   3.119
12406WAT     H137460   0.586   8.631   3.095
12406WAT     H237461   0.699   8.630   3.213
12407WAT      O37462   6.755   7.564   4.200
12407WAT     H137463   6.782   7.487   4.257
12407WAT     H237464   6.662   7.551   4.167
12408WAT      O37465   8.716   3.831   4.075
12408WAT     H137466   8.675   3.757   4.022
12408WAT     H237467   8.711   3.916   4.024
12409WAT      O37468   8.032   9.183   8.978
12409WAT     H137469   8.092   9.164   9.055
12409WAT     H237470   7.959   9.246   9.007
12410WAT      O37471   2.771   0.778   8.334
12410WAT     H137472   2.706   0.784   8.410
12410WAT     H237473   2.824   0.693   8.343
12411WAT      O37474   7.153   4.528   6.410
12411WAT     H137475   7.064   4.540   6.367
12411WAT     H237476   7.143   4.470   6.491
12412WAT      O37477   2.845   0.124   4.357
12412WAT     H137478   2.788   0.174   4.292
12412WAT     H237479   2.915   0.072   4.307
12413WAT      O37480   5.867   2.637   7.634
12413WAT     H137481   5.853   2.706   7.563
12413WAT     H237482   5.946   2.580   7.609
12414WAT      O37483   2.303   3.186   8.388
12414WAT     H137484   2.387   3.191   8.441
12414WAT     H237485   2.274   3.091   8.381
12415WAT      O37486   5.239   9.552   6.333
12415WAT     H137487   5.272   9.637   6.291
12415WAT     H237488   5.216   9.486   6.261
12416WAT      O37489   7.748   7.183   9.836
12416WAT     H137490   7.700   7.255   9.785
12416WAT     H237491   7.682   7.112   9.863
12417WAT      O37492   8.525   9.470   9.388
12417WAT     H137493   8.460   9.394   9.381
12417WAT     H237494   8.527   9.519   9.301
12418WAT      O37495   8.338   9.686   0.329
12418WAT     H137496   8.340   9.591   0.359
12418WAT     H237497   8.431   9.722   0.323
12419WAT      O37498   4.772   3.187   8.570
12419WAT     H137499   4.749   3.092   8.553
12419WAT     H237500   4.706   3.247   8.526
12420WAT      O37501   9.814   6.212   6.639
12420WAT     H137502   9.777   6.157   6.564
12420WAT     H237503   9.828   6.153   6.719
12421WAT      O37504   0.987   4.884   5.339
12421WAT     H137505   1.027   4.808   5.390
12421WAT     H237506   1.052   4.915   5.269
12422WAT      O37507   3.723   9.707   7.432
12422WAT     H137508   3.817   9.739   7.437
12422WAT     H237509   3.690   9.713   7.338
12423WAT      O37510   9.760   4.797   5.104
12423WAT     H137511   9.797   4.801   5.011
12423WAT     H237512   9.834   4.774   5.168
12424WAT      O37513   2.484   1.573   4.989
12424WAT     H137514   2.569   1.576   4.936
12424WAT     H237515   2.406   1.591   4.928
12425WAT      O37516   1.529   3.981   9.510
12425WAT     H137517   1.559   3.912   9.575
12425WAT     H237518   1.441   4.018   9.538
12426WAT      O37519   3.336   8.508   9.315
12426WAT     H137520   3.362   8.504   9.218
12426WAT     H237521   3.237   8.495   9.324
12427WAT      O37522   5.532   3.421   3.753
12427WAT     H137523   5.488   3.511   3.754
12427WAT     H237524   5.592   3.414   3.673
12428WAT      O37525   2.936   5.361   4.717
12428WAT     H137526   3.022   5.341   4.669
12428WAT     H237527   2.870   5.398   4.652
12429WAT      O37528   5.154   5.106   2.587
12429WAT     H137529   5.126   5.019   2.629
12429WAT     H237530   5.109   5.115   2.498
12430WAT      O37531   0.846   3.385   3.195
12430WAT     H137532   0.832   3.378   3.096
12430WAT     H237533   0.921   3.448   3.214
12431WAT      O37534   4.055   6.835   5.649
12431WAT     H137535   3.959   6.861   5.658
12431WAT     H237536   4.062   6.735   5.642
12432WAT      O37537   9.307   5.456   0.026
12432WAT     H137538   9.224   5.403   0.004
12432WAT     H237539   9.338   5.431   0.118
12433WAT      O37540   1.798   9.442   1.707
12433WAT     H137541   1.758   9.531   1.687
12433WAT     H237542   1.814   9.434   1.806
12434WAT      O37543   4.547   9.570   0.411
12434WAT     H137544   4.581   9.502   0.346
12434WAT     H237545   4.596   9.561   0.497
12435WAT      O37546   7.037   1.497   0.443
12435WAT     H137547   7.041   1.576   0.505
12435WAT     H237548   6.942   1.468   0.431
12436WAT      O37549   7.163   3.010   1.519
12436WAT     H137550   7.245   3.037   1.569
12436WAT     H237551   7.131   2.922   1.552
12437WAT      O37552   1.048   4.718   4.366
12437WAT     H137553   1.012   4.770   4.444
12437WAT     H237554   1.094   4.636   4.400
12438WAT      O37555   6.575   7.314   2.376
12438WAT     H137556   6.564   7.380   2.302
12438WAT     H237557   6.546   7.356   2.463
12439WAT      O37558   8.796   6.769   0.467
12439WAT     H137559   8.792   6.754   0.368
12439WAT     H237560   8.739   6.702   0.514
12440WAT      O37561   8.781   3.875   9.087
12440WAT     H137562   8.726   3.807   9.136
12440WAT     H237563   8.813   3.835   9.001
12441WAT      O37564   6.311   5.613   5.667
12441WAT     H137565   6.353   5.702   5.686
12441WAT     H237566   6.228   5.627   5.613
12442WAT      O37567   9.639   1.693   1.589
12442WAT     H137568   9.727   1.657   1.617
12442WAT     H237569   9.638   1.706   1.489
12443WAT      O37570   5.801   0.324   8.042
12443WAT     H137571   5.778   0.245   7.985
12443WAT     H237572   5.894   0.314   8.076
12444WAT      O37573   0.021   8.967   7.404
12444WAT     H137574   0.037   8.916   7.488
12444WAT     H237575  -0.029   8.910   7.339
12445WAT      O37576   0.629   4.176   5.456
12445WAT     H137577   0.696   4.136   5.394
12445WAT     H237578   0.673   4.200   5.543
12446WAT      O37579   5.880   8.514   6.544
12446WAT     H137580   5.831   8.580   6.601
12446WAT     H237581   5.971   8.550   6.522
12447WAT      O37582   8.646   3.973   8.632
12447WAT     H137583   8.576   3.931   8.690
12447WAT     H237584   8.613   4.061   8.598
12448WAT      O37585   3.187   4.852   4.860
12448WAT     H137586   3.142   4.903   4.787
12448WAT     H237587   3.276   4.892   4.880
12449WAT      O37588   0.346   4.448   5.789
12449WAT     H137589   0.407   4.410   5.720
12449WAT     H237590   0.252   4.422   5.768
12450WAT      O37591   1.669   2.328   0.874
12450WAT     H137592   1.687   2.426   0.881
12450WAT     H237593   1.610   2.311   0.795
12451WAT      O37594   7.799   7.217   0.338
12451WAT     H137595   7.894   7.187   0.330
12451WAT     H237596   7.791   7.310   0.301
12452WAT      O37597   1.491   2.260   4.119
12452WAT     H137598   1.455   2.272   4.211
12452WAT     H237599   1.568   2.196   4.122
12453WAT      O37600   0.895   4.561   8.541
12453WAT     H137601   0.851   4.597   8.623
12453WAT     H237602   0.941   4.475   8.563
12454WAT      O37603   9.033   5.574   3.705
12454WAT     H137604   9.100   5.604   3.638
12454WAT     H237605   8.973   5.650   3.730
12455WAT      O37606   1.552   2.134   7.880
12455WAT     H137607   1.505   2.216   7.849
12455WAT     H237608   1.633   2.118   7.824
12456WAT      O37609   8.304   1.694   4.679
12456WAT     H137610   8.283   1.596   4.673
12456WAT     H237611   8.370   1.710   4.752
12457WAT      O37612   5.135   1.120   7.032
12457WAT     H137613   5.220   1.150   7.075
12457WAT     H237614   5.057   1.166   7.076
12458WAT      O37615   8.998   3.666   1.819
12458WAT     H137616   9.012   3.699   1.913
12458WAT     H237617   8.965   3.571   1.822
12459WAT      O37618   1.544   9.469   7.464
12459WAT     H137619   1.615   9.506   7.404
12459WAT     H237620   1.507   9.543   7.521
12460WAT      O37621   0.538   2.029   0.372
12460WAT     H137622   0.579   2.119   0.364
12460WAT     H237623   0.606   1.964   0.406
12461WAT      O37624   0.647   8.738   9.270
12461WAT     H137625   0.621   8.729   9.174
12461WAT     H237626   0.606   8.821   9.308
12462WAT      O37627   0.866   3.237   0.314
12462WAT     H137628   0.916   3.309   0.363
12462WAT     H237629   0.814   3.277   0.239
12463WAT      O37630   7.911   5.932   0.843
12463WAT     H137631   7.869   5.874   0.773
12463WAT     H237632   8.010   5.915   0.846
12464WAT      O37633   6.305   4.149   8.850
12464WAT     H137634   6.210   4.143   8.819
12464WAT     H237635   6.306   4.166   8.949
12465WAT      O37636   7.569   6.978   0.045
12465WAT     H137637   7.551   6.879   0.043
12465WAT     H237638   7.495   7.024   0.094
12466WAT      O37639   9.843   8.089   6.011
12466WAT     H137640   9.860   8.129   5.920
12466WAT     H237641   9.751   8.050   6.014
12467WAT      O37642   4.048   3.149   0.247
12467WAT     H137643   4.067   3.149   0.149
12467WAT     H237644   4.129   3.117   0.297
12468WAT      O37645   7.161   4.744   4.499
12468WAT     H137646   7.089   4.676   4.488
12468WAT     H237647   7.119   4.834   4.515
12469WAT      O37648   8.820   1.580   1.311
12469WAT     H137649   8.829   1.661   1.369
12469WAT     H237650   8.726   1.546   1.314
12470WAT      O37651   8.193   3.692   0.031
12470WAT     H137652   8.198   3.656  -0.062
12470WAT     H237653   8.286   3.711   0.064
12471WAT      O37654   2.209   5.672   1.176
12471WAT     H137655   2.191   5.765   1.207
12471WAT     H237656   2.295   5.640   1.215
12472WAT      O37657   1.147   6.808   1.814
12472WAT     H137658   1.059   6.829   1.856
12472WAT     H237659   1.177   6.718   1.844
12473WAT      O37660   3.241   3.489   7.547
12473WAT     H137661   3.283   3.567   7.501
12473WAT     H237662   3.175   3.445   7.486
12474WAT      O37663   5.128   2.000   7.803
12474WAT     H137664   5.105   2.088   7.844
12474WAT     H237665   5.136   2.010   7.704
12475WAT      O37666   1.648   6.104   0.898
12475WAT     H137667   1.646   6.103   0.998
12475WAT     H237668   1.560   6.073   0.862
12476WAT      O37669   0.808   4.292   4.903
12476WAT     H137670   0.897   4.253   4.926
12476WAT     H237671   0.755   4.224   4.852
12477WAT      O37672   1.145   2.911   6.716
12477WAT     H137673   1.128   2.823   6.671
12477WAT     H237674   1.057   2.954   6.738
12478WAT      O37675   9.121   1.619   7.371
12478WAT     H137676   9.174   1.632   7.455
12478WAT     H237677   9.033   1.667   7.379
12479WAT      O37678   6.928   6.126   0.086
12479WAT     H137679   6.920   6.115   0.185
12479WAT     H237680   6.837   6.123   0.045
12480WAT      O37681   0.590   4.792   8.008
12480WAT     H137682   0.517   4.846   7.967
12480WAT     H237683   0.551   4.720   8.066
12481WAT      O37684   4.422   5.621   6.703
12481WAT     H137685   4.342   5.582   6.658
12481WAT     H237686   4.487   5.652   6.634
12482WAT      O37687   6.257   2.306   0.187
12482WAT     H137688   6.285   2.368   0.260
12482WAT     H237689   6.159   2.291   0.192
12483WAT      O37690   1.531   4.344   1.039
12483WAT     H137691   1.532   4.245   1.055
12483WAT     H237692   1.497   4.362   0.947
12484WAT      O37693   1.055   9.528   8.364
12484WAT     H137694   0.992   9.474   8.307
12484WAT     H237695   1.147   9.488   8.358
12485WAT      O37696   0.818   8.550   1.437
12485WAT     H137697   0.723   8.582   1.435
12485WAT     H237698   0.880   8.628   1.427
12486WAT      O37699   7.813   3.799   5.284
12486WAT     H137700   7.784   3.768   5.193
12486WAT     H237701   7.736   3.842   5.330
12487WAT      O37702   3.229   0.829   4.748
12487WAT     H137703   3.133   0.804   4.750
12487WAT     H237704   3.240   0.919   4.707
12488WAT      O37705   2.459   0.860   3.090
12488WAT     H137706   2.422   0.915   3.165
12488WAT     H237707   2.518   0.788   3.127
12489WAT      O37708   3.261   0.413   8.071
12489WAT     H137709   3.203   0.377   7.997
12489WAT     H237710   3.214   0.400   8.158
12490WAT      O37711   1.832   6.553   7.428
12490WAT     H137712   1.804   6.636   7.476
12490WAT     H237713   1.837   6.571   7.329
12491WAT      O37714   8.188   8.963   3.307
12491WAT     H137715   8.273   8.917   3.331
12491WAT     H237716   8.200   9.014   3.222
12492WAT      O37717   8.569   8.623   0.700
12492WAT     H137718   8.624   8.575   0.632
12492WAT     H237719   8.552   8.562   0.778
12493WAT      O37720   0.070   5.661   1.113
12493WAT     H137721   0.033   5.576   1.074
12493WAT     H237722   0.122   5.641   1.196
12494WAT      O37723   1.153   4.848   4.132
12494WAT     H137724   1.142   4.776   4.201
12494WAT     H237725   1.135   4.810   4.041
12495WAT      O37726   8.758   6.270   6.307
12495WAT     H137727   8.847   6.265   6.352
12495WAT     H237728   8.746   6.361   6.269
12496WAT      O37729   7.075   1.949   3.390
12496WAT     H137730   7.011   1.877   3.419
12496WAT     H237731   7.026   2.016   3.334
12497WAT      O37732   7.547   6.472   4.079
12497WAT     H137733   7.504   6.407   4.017
12497WAT     H237734   7.551   6.562   4.036
12498WAT      O37735   8.997   5.157   8.949
12498WAT     H137736   8.998   5.059   8.972
12498WAT     H237737   9.086   5.182   8.910
12499WAT      O37738   7.897   7.797   4.727
12499WAT     H137739   7.874   7.799   4.630
12499WAT     H237740   7.991   7.829   4.740
12500WAT      O37741   6.966   4.633   2.910
12500WAT     H137742   7.006   4.705   2.852
12500WAT     H237743   7.027   4.554   2.911
12501WAT      O37744   4.285   8.250   0.658
12501WAT     H137745   4.218   8.321   0.678
12501WAT     H237746   4.255   8.196   0.579
12502WAT      O37747   9.866   4.892   2.882
12502WAT     H137748   9.831   4.969   2.828
12502WAT     H237749   9.960   4.872   2.855
12503WAT      O37750   7.890   0.540   8.563
12503WAT     H137751   7.859   0.446   8.550
12503WAT     H237752   7.854   0.576   8.649
12504WAT      O37753   2.376   0.862   5.604
12504WAT     H137754   2.395   0.958   5.624
12504WAT     H237755   2.278   0.844   5.616
12505WAT      O37756   9.529   9.390   6.581
12505WAT     H137757   9.594   9.318   6.604
12505WAT     H237758   9.503   9.382   6.485
12506WAT      O37759   0.681   5.758   0.766
12506WAT     H137760   0.753   5.757   0.835
12506WAT     H237761   0.621   5.836   0.781
12507WAT      O37762   7.155   9.022   6.736
12507WAT     H137763   7.250   9.006   6.709
12507WAT     H237764   7.139   8.981   6.826
12508WAT      O37765   4.628   1.780   3.378
12508WAT     H137766   4.565   1.703   3.374
12508WAT     H237767   4.657   1.804   3.285
12509WAT      O37768   0.866   0.480   5.613
12509WAT     H137769   0.864   0.476   5.513
12509WAT     H237770   0.775   0.461   5.649
12510WAT      O37771   7.991   8.316   2.519
12510WAT     H137772   8.074   8.268   2.492
12510WAT     H237773   7.982   8.314   2.619
12511WAT      O37774   6.154   1.334   6.498
12511WAT     H137775   6.100   1.302   6.420
12511WAT     H237776   6.123   1.425   6.525
12512WAT      O37777   3.849   6.073   9.393
12512WAT     H137778   3.856   5.976   9.369
12512WAT     H237779   3.766   6.112   9.353
12513WAT      O37780   3.917   6.765   9.735
12513WAT     H137781   3.870   6.821   9.668
12513WAT     H237782   4.016   6.781   9.730
12514WAT      O37783   7.432   6.331   5.893
12514WAT     H137784   7.389   6.372   5.974
12514WAT     H237785   7.361   6.306   5.827
12515WAT      O37786   1.618   3.234   4.043
12515WAT     H137787   1.599   3.331   4.027
12515WAT     H237788   1.576   3.206   4.130
12516WAT      O37789   4.747   3.883   7.759
12516WAT     H137790   4.780   3.905   7.851
12516WAT     H237791   4.663   3.935   7.740
12517WAT      O37792   8.129   2.783   2.278
12517WAT     H137793   8.052   2.753   2.335
12517WAT     H237794   8.121   2.742   2.187
12518WAT      O37795   5.608   5.929   5.060
12518WAT     H137796   5.646   5.959   5.148
12518WAT     H237797   5.544   5.998   5.027
12519WAT      O37798   1.370   7.961   7.008
12519WAT     H137799   1.419   7.874   7.008
12519WAT     H237800   1.403   8.018   7.084
12520WAT      O37801   0.665   8.906   4.110
12520WAT     H137802   0.712   8.956   4.182
12520WAT     H237803   0.627   8.821   4.147
12521WAT      O37804   4.457   1.650   0.999
12521WAT     H137805   4.452   1.698   0.911
12521WAT     H237806   4.524   1.696   1.058
12522WAT      O37807   9.574   7.785   2.351
12522WAT     H137808   9.616   7.874   2.370
12522WAT     H237809   9.540   7.783   2.257
12523WAT      O37810   5.895   5.971   4.255
12523WAT     H137811   5.849   5.882   4.252
12523WAT     H237812   5.891   6.013   4.164
12524WAT      O37813   7.806   4.936   4.450
12524WAT     H137814   7.884   4.898   4.400
12524WAT     H237815   7.733   4.959   4.387
12525WAT      O37816   5.995   7.357   4.218
12525WAT     H137817   5.994   7.295   4.296
12525WAT     H237818   5.951   7.314   4.140
12526WAT      O37819   4.742   9.235   6.587
12526WAT     H137820   4.687   9.181   6.651
12526WAT     H237821   4.812   9.177   6.546
12527WAT      O37822   6.942   8.083   2.923
12527WAT     H137823   6.947   8.020   2.845
12527WAT     H237824   6.850   8.082   2.961
12528WAT      O37825   0.889   1.333   0.427
12528WAT     H137826   0.974   1.304   0.383
12528WAT     H237827   0.851   1.256   0.479
12529WAT      O37828   4.653   8.447   3.857
12529WAT     H137829   4.564   8.424   3.897
12529WAT     H237830   4.713   8.485   3.927
12530WAT      O37831   7.618   5.706   7.909
12530WAT     H137832   7.552   5.636   7.881
12530WAT     H237833   7.658   5.680   7.997
12531WAT      O37834   2.092   1.437   3.845
12531WAT     H137835   2.066   1.515   3.788
12531WAT     H237836   2.161   1.465   3.911
12532WAT      O37837   3.052   7.897   5.108
12532WAT     H137838   3.011   7.842   5.181
12532WAT     H237839   3.017   7.866   5.019
12533WAT      O37840   2.907   5.560   8.381
12533WAT     H137841   2.849   5.507   8.444
12533WAT     H237842   2.848   5.611   8.318
12534WAT      O37843   3.821   7.621   6.561
12534WAT     H137844   3.898   7.659   6.509
12534WAT     H237845   3.851   7.605   6.656
12535WAT      O37846   3.977   3.641   9.071
12535WAT     H137847   3.911   3.624   9.145
12535WAT     H237848   3.935   3.701   9.003
12536WAT      O37849   7.940   6.576   3.221
12536WAT     H137850   7.982   6.515   3.154
12536WAT     H237851   7.969   6.549   3.313
12537WAT      O37852   8.916   6.120   4.658
12537WAT     H137853   8.909   6.195   4.593
12537WAT     H237854   8.843   6.129   4.726
12538WAT      O37855   1.602   8.671   5.317
12538WAT     H137856   1.545   8.673   5.234
12538WAT     H237857   1.574   8.595   5.375
12539WAT      O37858   1.030   3.357   9.542
12539WAT     H137859   1.008   3.279   9.483
12539WAT     H237860   0.954   3.375   9.604
12540WAT      O37861   0.717   3.559   6.026
12540WAT     H137862   0.726   3.485   6.091
12540WAT     H237863   0.796   3.560   5.965
12541WAT      O37864   8.843   9.185   5.382
12541WAT     H137865   8.799   9.205   5.470
12541WAT     H237866   8.776   9.143   5.320
12542WAT      O37867   6.021   6.734   0.915
12542WAT     H137868   6.110   6.726   0.871
12542WAT     H237869   6.007   6.657   0.977
12543WAT      O37870   7.203   7.541   0.367
12543WAT     H137871   7.130   7.592   0.322
12543WAT     H237872   7.197   7.444   0.343
12544WAT      O37873   3.744   2.976   7.337
12544WAT     H137874   3.717   3.037   7.412
12544WAT     H237875   3.728   3.022   7.249
12545WAT      O37876   3.481   2.546   9.198
12545WAT     H137877   3.411   2.612   9.224
12545WAT     H237878   3.481   2.536   9.098
12546WAT      O37879   8.885   0.160   8.686
12546WAT     H137880   8.906   0.223   8.612
12546WAT     H237881   8.836   0.080   8.650
12547WAT      O37882   7.574   7.711   5.259
12547WAT     H137883   7.522   7.719   5.175
12547WAT     H237884   7.574   7.616   5.290
12548WAT      O37885   5.029   0.999   9.735
12548WAT     H137886   5.089   1.071   9.770
12548WAT     H237887   5.041   0.916   9.789
12549WAT      O37888   0.281   8.079   4.837
12549WAT     H137889   0.282   7.981   4.815
12549WAT     H237890   0.243   8.129   4.759
12550WAT      O37891   2.123   4.897   0.707
12550WAT     H137892   2.063   4.975   0.721
12550WAT     H237893   2.068   4.813   0.703
12551WAT      O37894   7.132   6.958   1.245
12551WAT     H137895   7.085   7.036   1.204
12551WAT     H237896   7.092   6.873   1.211
12552WAT      O37897   7.495   7.814   4.629
12552WAT     H137898   7.408   7.864   4.637
12552WAT     H237899   7.537   7.834   4.540
12553WAT      O37900   8.136   5.039   6.510
12553WAT     H137901   8.178   5.005   6.595
12553WAT     H237902   8.185   5.002   6.431
12554WAT      O37903   8.758   7.866   7.233
12554WAT     H137904   8.699   7.809   7.290
12554WAT     H237905   8.702   7.919   7.169
12555WAT      O37906   0.172   0.264   5.542
12555WAT     H137907   0.079   0.291   5.566
12555WAT     H237908   0.170   0.208   5.459
12556WAT      O37909   0.011   4.077   7.591
12556WAT     H137910  -0.028   4.088   7.499
12556WAT     H237911   0.010   3.979   7.615
12557WAT      O37912   8.124   4.807   3.712
12557WAT     H137913   8.184   4.745   3.662
12557WAT     H237914   8.175   4.851   3.786
12558WAT      O37915   4.188   7.712   3.794
12558WAT     H137916   4.158   7.732   3.887
12558WAT     H237917   4.288   7.705   3.792
12559WAT      O37918   7.190   8.473   0.359
12559WAT     H137919   7.206   8.454   0.262
12559WAT     H237920   7.093   8.493   0.374
12560WAT      O37921   2.839   8.036   6.720
12560WAT     H137922   2.879   8.116   6.764
12560WAT     H237923   2.852   8.042   6.621
12561WAT      O37924   1.820   9.477   7.791
12561WAT     H137925   1.851   9.475   7.886
12561WAT     H237926   1.897   9.456   7.730
12562WAT      O37927   8.825   0.807   2.972
12562WAT     H137928   8.790   0.725   3.017
12562WAT     H237929   8.787   0.889   3.016
12563WAT      O37930   3.252   0.214   3.548
12563WAT     H137931   3.248   0.118   3.520
12563WAT     H237932   3.176   0.233   3.610
12564WAT      O37933   7.711   1.749   7.415
12564WAT     H137934   7.639   1.701   7.465
12564WAT     H237935   7.669   1.818   7.356
12565WAT      O37936   6.917   4.804   4.782
12565WAT     H137937   6.930   4.741   4.706
12565WAT     H237938   6.851   4.875   4.756
12566WAT      O37939   5.353   9.001   2.376
12566WAT     H137940   5.396   8.995   2.286
12566WAT     H237941   5.395   8.934   2.438
12567WAT      O37942   6.929   0.685   8.266
12567WAT     H137943   7.012   0.630   8.270
12567WAT     H237944   6.849   0.626   8.275
12568WAT      O37945   0.910   5.818   8.948
12568WAT     H137946   1.009   5.800   8.956
12568WAT     H237947   0.870   5.754   8.882
12569WAT      O37948   8.880   3.191   6.442
12569WAT     H137949   8.928   3.268   6.485
12569WAT     H237950   8.868   3.210   6.345
12570WAT      O37951   8.834   1.441   3.332
12570WAT     H137952   8.901   1.422   3.260
12570WAT     H237953   8.773   1.514   3.303
12571WAT      O37954   7.207   0.344   1.218
12571WAT     H137955   7.205   0.249   1.188
12571WAT     H237956   7.124   0.391   1.186
12572WAT      O37957   8.143   4.915   2.287
12572WAT     H137958   8.066   4.872   2.334
12572WAT     H237959   8.196   4.968   2.353
12573WAT      O37960   3.424   0.239   0.306
12573WAT     H137961   3.488   0.279   0.372
12573WAT     H237962   3.333   0.234   0.348
12574WAT      O37963   7.458   5.481   7.773
12574WAT     H137964   7.493   5.393   7.803
12574WAT     H237965   7.442   5.480   7.675
12575WAT      O37966   9.518   2.816   4.930
12575WAT     H137967   9.445   2.823   4.998
12575WAT     H237968   9.511   2.728   4.883
12576WAT      O37969   4.046   5.059   6.373
12576WAT     H137970   4.069   4.963   6.355
12576WAT     H237971   3.975   5.064   6.443
12577WAT      O37972   5.016   9.513   4.504
12577WAT     H137973   5.075   9.547   4.431
12577WAT     H237974   5.059   9.433   4.547
12578WAT      O37975   2.189   6.499   3.729
12578WAT     H137976   2.216   6.403   3.735
12578WAT     H237977   2.246   6.553   3.792
12579WAT      O37978   7.261   2.140   5.680
12579WAT     H137979   7.341   2.101   5.634
12579WAT     H237980   7.228   2.219   5.629
12580WAT      O37981   3.415   2.610   2.704
12580WAT     H137982   3.502   2.632   2.748
12580WAT     H237983   3.371   2.694   2.674
12581WAT      O37984   2.246   3.287   2.036
12581WAT     H137985   2.163   3.301   1.982
12581WAT     H237986   2.312   3.234   1.983
12582WAT      O37987   8.676   2.305   3.928
12582WAT     H137988   8.638   2.248   4.001
12582WAT     H237989   8.605   2.368   3.895
12583WAT      O37990   5.127   3.893   5.493
12583WAT     H137991   5.142   3.850   5.582
12583WAT     H237992   5.214   3.897   5.443
12584WAT      O37993   7.926   7.477   6.827
12584WAT     H137994   8.001   7.508   6.768
12584WAT     H237995   7.910   7.545   6.898
12585WAT      O37996   3.543   9.693   1.069
12585WAT     H137997   3.496   9.681   1.157
12585WAT     H237998   3.630   9.741   1.085
12586WAT      O37999   6.039   6.190   2.908
12586WAT     H138000   6.114   6.153   2.853
12586WAT     H238001   6.039   6.290   2.901
12587WAT      O38002   9.261   8.541   0.286
12587WAT     H138003   9.357   8.517   0.305
12587WAT     H238004   9.215   8.464   0.243
12588WAT      O38005   4.510   1.374   0.939
12588WAT     H138006   4.443   1.311   0.978
12588WAT     H238007   4.474   1.468   0.943
12589WAT      O38008   0.571   0.067   5.020
12589WAT     H138009   0.545   0.079   4.924
12589WAT     H238010   0.570   0.156   5.066
12590WAT      O38011   2.609   0.335   9.121
12590WAT     H138012   2.669   0.415   9.117
12590WAT     H238013   2.577   0.313   9.029
12591WAT      O38014   5.913   5.370   5.907
12591WAT     H138015   5.893   5.272   5.908
12591WAT     H238016   5.841   5.418   5.857
12592WAT      O38017   6.837   7.535   8.063
12592WAT     H138018   6.821   7.494   7.973
12592WAT     H238019   6.783   7.487   8.132
12593WAT      O38020   5.460   5.445   2.562
12593WAT     H138021   5.489   5.359   2.605
12593WAT     H238022   5.442   5.513   2.634
12594WAT      O38023   3.599   2.925   6.159
12594WAT     H138024   3.529   2.992   6.133
12594WAT     H238025   3.661   2.911   6.082
12595WAT      O38026   5.656   6.467   0.198
12595WAT     H138027   5.626   6.371   0.196
12595WAT     H238028   5.608   6.515   0.271
12596WAT      O38029   9.471   5.689   2.467
12596WAT     H138030   9.496   5.650   2.378
12596WAT     H238031   9.553   5.727   2.511
12597WAT      O38032   2.009   3.286   3.531
12597WAT     H138033   2.053   3.352   3.591
12597WAT     H238034   1.917   3.267   3.563
12598WAT      O38035   6.711   6.239   4.974
12598WAT     H138036   6.688   6.147   4.942
12598WAT     H238037   6.763   6.232   5.060
12599WAT      O38038   7.517   2.283   0.056
12599WAT     H138039   7.504   2.354   0.126
12599WAT     H238040   7.608   2.293   0.015
12600WAT      O38041   8.429   5.443   5.017
12600WAT     H138042   8.330   5.434   5.003
12600WAT     H238043   8.470   5.352   5.019
12601WAT      O38044   4.571   6.000   6.622
12601WAT     H138045   4.542   6.092   6.593
12601WAT     H238046   4.645   5.969   6.563
12602WAT      O38047   6.893   2.946   3.724
12602WAT     H138048   6.862   3.037   3.698
12602WAT     H238049   6.938   2.902   3.647
12603WAT      O38050   8.209   9.616   6.215
12603WAT     H138051   8.309   9.615   6.216
12603WAT     H238052   8.176   9.595   6.123
12604WAT      O38053   5.094   0.067   0.301
12604WAT     H138054   5.133  -0.024   0.319
12604WAT     H238055   4.996   0.064   0.320
12605WAT      O38056   0.090   6.295   3.765
12605WAT     H138057   0.133   6.221   3.817
12605WAT     H238058   0.160   6.359   3.735
12606WAT      O38059   1.411   7.669   5.037
12606WAT     H138060   1.419   7.758   4.992
12606WAT     H238061   1.492   7.613   5.015
12607WAT      O38062   2.471   6.116   5.151
12607WAT     H138063   2.411   6.194   5.134
12607WAT     H238064   2.557   6.148   5.192
12608WAT      O38065   4.830   0.451   3.960
12608WAT     H138066   4.814   0.353   3.946
12608WAT     H238067   4.743   0.498   3.966
12609WAT      O38068   3.066   2.286   5.205
12609WAT     H138069   3.079   2.343   5.124
12609WAT     H238070   3.040   2.343   5.283
12610WAT      O38071   7.983   2.689   9.438
12610WAT     H138072   8.039   2.750   9.383
12610WAT     H238073   7.961   2.733   9.525
12611WAT      O38074   5.575   0.104   6.777
12611WAT     H138075   5.641   0.119   6.703
12611WAT     H238076   5.582   0.178   6.844
12612WAT      O38077   6.984   8.724   2.245
12612WAT     H138078   7.035   8.705   2.162
12612WAT     H238079   7.012   8.660   2.317
12613WAT      O38080   2.449   9.457   7.352
12613WAT     H138081   2.453   9.422   7.446
12613WAT     H238082   2.394   9.396   7.296
12614WAT      O38083   2.837   8.088   8.177
12614WAT     H138084   2.934   8.106   8.186
12614WAT     H238085   2.796   8.077   8.267
12615WAT      O38086   4.487   5.439   7.194
12615WAT     H138087   4.394   5.416   7.221
12615WAT     H238088   4.496   5.431   7.095
12616WAT      O38089   6.554   4.630   1.459
12616WAT     H138090   6.458   4.628   1.429
12616WAT     H238091   6.612   4.652   1.381
12617WAT      O38092   4.250   7.168   4.271
12617WAT     H138093   4.272   7.155   4.175
12617WAT     H238094   4.295   7.097   4.325
12618WAT      O38095   5.209   7.381   9.160
12618WAT     H138096   5.120   7.413   9.192
12618WAT     H238097   5.199   7.292   9.117
12619WAT      O38098   1.096   7.396   2.254
12619WAT     H138099   1.181   7.415   2.204
12619WAT     H238100   1.031   7.470   2.238
12620WAT      O38101   3.878   8.564   0.167
12620WAT     H138102   3.809   8.492   0.155
12620WAT     H238103   3.908   8.595   0.077
12621WAT      O38104   7.612   3.753   5.069
12621WAT     H138105   7.617   3.653   5.067
12621WAT     H238106   7.516   3.782   5.066
12622WAT      O38107   8.360   5.952   8.663
12622WAT     H138108   8.392   5.992   8.577
12622WAT     H238109   8.424   5.881   8.692
12623WAT      O38110   6.895   6.459   1.325
12623WAT     H138111   6.926   6.503   1.241
12623WAT     H238112   6.823   6.393   1.304
12624WAT      O38113   0.933   6.341   7.842
12624WAT     H138114   0.890   6.352   7.752
12624WAT     H238115   1.014   6.284   7.834
12625WAT      O38116   7.980   8.268   2.799
12625WAT     H138117   7.947   8.185   2.753
12625WAT     H238118   7.932   8.280   2.886
12626WAT      O38119   7.785   7.967   6.079
12626WAT     H138120   7.735   7.968   5.992
12626WAT     H238121   7.878   7.935   6.063
12627WAT      O38122   5.198   8.465   4.779
12627WAT     H138123   5.243   8.410   4.709
12627WAT     H238124   5.104   8.432   4.790
12628WAT      O38125   3.717   0.249   6.668
12628WAT     H138126   3.785   0.317   6.695
12628WAT     H238127   3.735   0.163   6.715
12629WAT      O38128   4.401   7.909   7.737
12629WAT     H138129   4.449   7.995   7.753
12629WAT     H238130   4.467   7.835   7.726
12630WAT      O38131   4.256   2.830   0.317
12630WAT     H138132   4.197   2.819   0.237
12630WAT     H238133   4.351   2.831   0.288
12631WAT      O38134   8.821   2.088   9.500
12631WAT     H138135   8.874   2.120   9.421
12631WAT     H238136   8.765   2.010   9.473
12632WAT      O38137   7.112   4.499   2.076
12632WAT     H138138   7.012   4.504   2.080
12632WAT     H238139   7.141   4.489   1.980
12633WAT      O38140   2.741   5.772   8.920
12633WAT     H138141   2.684   5.822   8.855
12633WAT     H238142   2.772   5.835   8.991
12634WAT      O38143   2.474   4.659   8.652
12634WAT     H138144   2.401   4.590   8.650
12634WAT     H238145   2.444   4.737   8.706
12635WAT      O38146   8.431   7.030   2.053
12635WAT     H138147   8.522   7.011   2.089
12635WAT     H238148   8.430   7.121   2.011
12636WAT      O38149   1.407   4.519   6.375
12636WAT     H138150   1.497   4.509   6.332
12636WAT     H238151   1.398   4.610   6.414
12637WAT      O38152   9.262   9.113   8.474
12637WAT     H138153   9.208   9.057   8.536
12637WAT     H238154   9.246   9.082   8.380
12638WAT      O38155   5.188   4.843   9.339
12638WAT     H138156   5.163   4.779   9.412
12638WAT     H238157   5.244   4.795   9.271
12639WAT      O38158   4.088   0.409   0.148
12639WAT     H138159   4.121   0.324   0.108
12639WAT     H238160   4.120   0.486   0.092
12640WAT      O38161   0.866   4.529   4.725
12640WAT     H138162   0.770   4.517   4.699
12640WAT     H238163   0.882   4.487   4.814
12641WAT      O38164   5.481   8.526   4.458
12641WAT     H138165   5.539   8.481   4.390
12641WAT     H238166   5.537   8.585   4.516
12642WAT      O38167   1.783   2.048   8.073
12642WAT     H138168   1.703   2.076   8.019
12642WAT     H238169   1.752   1.993   8.150
12643WAT      O38170   2.518   7.694   9.515
12643WAT     H138171   2.549   7.613   9.466
12643WAT     H238172   2.582   7.714   9.590
12644WAT      O38173   8.105   8.229   9.388
12644WAT     H138174   8.023   8.286   9.378
12644WAT     H238175   8.106   8.159   9.317
12645WAT      O38176   3.321   1.691   1.909
12645WAT     H138177   3.366   1.606   1.881
12645WAT     H238178   3.316   1.753   1.830
12646WAT      O38179   9.377   6.876   5.112
12646WAT     H138180   9.442   6.838   5.046
12646WAT     H238181   9.365   6.812   5.188
12647WAT      O38182   8.218   4.558   5.892
12647WAT     H138183   8.120   4.541   5.896
12647WAT     H238184   8.267   4.481   5.931
12648WAT      O38185   4.600   2.256   9.674
12648WAT     H138186   4.668   2.185   9.657
12648WAT     H238187   4.546   2.232   9.755
12649WAT      O38188   7.292   1.197   7.562
12649WAT     H138189   7.351   1.239   7.493
12649WAT     H238190   7.227   1.136   7.518
12650WAT      O38191   4.441   8.245   1.156
12650WAT     H138192   4.452   8.200   1.067
12650WAT     H238193   4.478   8.337   1.152
12651WAT      O38194   7.091   2.952   3.484
12651WAT     H138195   7.118   3.021   3.551
12651WAT     H238196   7.081   2.994   3.394
12652WAT      O38197   6.834   5.925   0.572
12652WAT     H138198   6.771   5.848   0.558
12652WAT     H238199   6.912   5.895   0.626
12653WAT      O38200   0.130   0.308   5.147
12653WAT     H138201   0.159   0.226   5.196
12653WAT     H238202   0.207   0.370   5.136
12654WAT      O38203   3.337   1.243   3.440
12654WAT     H138204   3.320   1.204   3.349
12654WAT     H238205   3.374   1.336   3.430
12655WAT      O38206   5.752   0.778   0.581
12655WAT     H138207   5.741   0.709   0.652
12655WAT     H238208   5.683   0.765   0.510
12656WAT      O38209   5.152   2.468   8.285
12656WAT     H138210   5.194   2.504   8.368
12656WAT     H238211   5.223   2.446   8.218
12657WAT      O38212   1.061   4.552   1.263
12657WAT     H138213   0.971   4.571   1.224
12657WAT     H238214   1.090   4.630   1.319
12658WAT      O38215   3.708   9.375   0.822
12658WAT     H138216   3.664   9.401   0.908
12658WAT     H238217   3.644   9.388   0.746
12659WAT      O38218   6.077   2.472   7.333
12659WAT     H138219   6.175   2.476   7.313
12659WAT     H238220   6.062   2.489   7.430
12660WAT      O38221   6.450   6.798  -0.002
12660WAT     H138222   6.460   6.826   0.094
12660WAT     H238223   6.477   6.703  -0.012
12661WAT      O38224   7.324   3.181   5.298
12661WAT     H138225   7.405   3.154   5.350
12661WAT     H238226   7.337   3.273   5.262
12662WAT      O38227   2.837   9.665   6.848
12662WAT     H138228   2.759   9.635   6.794
12662WAT     H238229   2.853   9.600   6.922
12663WAT      O38230   2.356   7.823   1.549
12663WAT     H138231   2.269   7.795   1.507
12663WAT     H238232   2.431   7.784   1.497
12664WAT      O38233   0.505   0.539   0.289
12664WAT     H138234   0.576   0.496   0.344
12664WAT     H238235   0.542   0.623   0.248
12665WAT      O38236   7.529   4.863   8.104
12665WAT     H138237   7.543   4.774   8.062
12665WAT     H238238   7.602   4.926   8.076
12666WAT      O38239   0.566   4.597   7.639
12666WAT     H138240   0.491   4.540   7.605
12666WAT     H238241   0.539   4.693   7.635
12667WAT      O38242   2.959   5.326   2.882
12667WAT     H138243   2.952   5.410   2.828
12667WAT     H238244   3.050   5.320   2.922
12668WAT      O38245   7.422   1.202   6.224
12668WAT     H138246   7.436   1.301   6.221
12668WAT     H238247   7.334   1.180   6.181
12669WAT      O38248   7.035   9.517   4.800
12669WAT     H138249   7.123   9.543   4.759
12669WAT     H238250   7.044   9.427   4.844
12670WAT      O38251   6.552   7.581   8.424
12670WAT     H138252   6.477   7.647   8.432
12670WAT     H238253   6.530   7.498   8.476
12671WAT      O38254   8.311   9.405   5.636
12671WAT     H138255   8.355   9.418   5.726
12671WAT     H238256   8.213   9.389   5.649
12672WAT      O38257   1.374   3.067   2.372
12672WAT     H138258   1.346   3.010   2.294
12672WAT     H238259   1.355   3.162   2.351
12673WAT      O38260   3.664   7.168   8.449
12673WAT     H138261   3.629   7.261   8.454
12673WAT     H238262   3.755   7.164   8.490
12674WAT      O38263   2.292   4.783   7.959
12674WAT     H138264   2.217   4.809   8.020
12674WAT     H238265   2.258   4.717   7.892
12675WAT      O38266   4.013   8.003   4.032
12675WAT     H138267   3.934   8.051   4.070
12675WAT     H238268   4.009   8.007   3.932
12676WAT      O38269   0.069   7.487   1.010
12676WAT     H138270  -0.014   7.540   0.993
12676WAT     H238271   0.148   7.548   1.008
12677WAT      O38272   8.025   3.508   7.978
12677WAT     H138273   8.085   3.572   7.931
12677WAT     H238274   8.067   3.480   8.064
12678WAT      O38275   6.583   4.371   0.920
12678WAT     H138276   6.491   4.341   0.947
12678WAT     H238277   6.638   4.388   1.002
12679WAT      O38278   6.788   5.204   5.488
12679WAT     H138279   6.803   5.279   5.425
12679WAT     H238280   6.866   5.196   5.550
12680WAT      O38281   2.701   7.001   7.041
12680WAT     H138282   2.644   7.020   7.121
12680WAT     H238283   2.748   7.085   7.013
12681WAT      O38284   1.147   1.103   0.961
12681WAT     H138285   1.214   1.159   1.011
12681WAT     H238286   1.096   1.047   1.026
12682WAT      O38287   4.096   7.025   1.218
12682WAT     H138288   4.155   6.987   1.289
12682WAT     H238289   4.149   7.085   1.158
12683WAT      O38290   6.008   0.930   1.065
12683WAT     H138291   6.066   0.988   1.008
12683WAT     H238292   6.008   0.837   1.029
12684WAT      O38293   4.070   9.098   0.481
12684WAT     H138294   3.989   9.072   0.429
12684WAT     H238295   4.102   9.188   0.451
12685WAT      O38296   1.724   8.837   9.057
12685WAT     H138297   1.788   8.878   9.122
12685WAT     H238298   1.725   8.889   8.972
12686WAT      O38299   1.673   9.166   6.932
12686WAT     H138300   1.613   9.090   6.960
12686WAT     H238301   1.703   9.151   6.838
12687WAT      O38302   7.476   0.191   1.977
12687WAT     H138303   7.439   0.134   1.903
12687WAT     H238304   7.462   0.145   2.064
12688WAT      O38305   4.820   1.366   4.262
12688WAT     H138306   4.811   1.433   4.188
12688WAT     H238307   4.917   1.352   4.283
12689WAT      O38308   2.463   2.298   2.655
12689WAT     H138309   2.477   2.353   2.573
12689WAT     H238310   2.390   2.231   2.638
12690WAT      O38311   1.396   9.751   6.724
12690WAT     H138312   1.346   9.679   6.676
12690WAT     H238313   1.333   9.825   6.747
12691WAT      O38314   3.649   8.084   2.302
12691WAT     H138315   3.744   8.102   2.329
12691WAT     H238316   3.648   8.023   2.223
12692WAT      O38317   4.222   9.352   3.083
12692WAT     H138318   4.308   9.387   3.120
12692WAT     H238319   4.193   9.409   3.006
12693WAT      O38320   4.027   8.634   7.232
12693WAT     H138321   3.991   8.542   7.220
12693WAT     H238322   3.957   8.701   7.208
12694WAT      O38323   5.547   8.279   4.228
12694WAT     H138324   5.601   8.290   4.144
12694WAT     H238325   5.608   8.255   4.304
12695WAT      O38326   6.885   0.262   1.040
12695WAT     H138327   6.789   0.238   1.054
12695WAT     H238328   6.899   0.289   0.944
12696WAT      O38329   2.380   3.495   3.229
12696WAT     H138330   2.439   3.479   3.308
12696WAT     H238331   2.362   3.593   3.219
12697WAT      O38332   8.923   9.126   6.955
12697WAT     H138333   8.876   9.172   6.879
12697WAT     H238334   8.925   9.186   7.035
12698WAT      O38335   5.104   4.320   2.219
12698WAT     H138336   5.191   4.329   2.266
12698WAT     H238337   5.101   4.232   2.171
12699WAT      O38338   1.369   6.657   7.477
12699WAT     H138339   1.382   6.600   7.396
12699WAT     H238340   1.352   6.598   7.557
12700WAT      O38341   5.754   5.597   8.464
12700WAT     H138342   5.727   5.543   8.544
12700WAT     H238343   5.764   5.536   8.385
12701WAT      O38344   2.097   1.534   7.665
12701WAT     H138345   2.010   1.580   7.649
12701WAT     H238346   2.096   1.489   7.754
12702WAT      O38347   7.047   6.111   1.636
12702WAT     H138348   7.125   6.170   1.658
12702WAT     H238349   6.969   6.134   1.694
12703WAT      O38350   2.568   0.830   1.754
12703WAT     H138351   2.559   0.767   1.831
12703WAT     H238352   2.579   0.777   1.670
12704WAT      O38353   0.007   6.854   2.674
12704WAT     H138354  -0.082   6.898   2.679
12704WAT     H238355  -0.002   6.764   2.631
12705WAT      O38356   1.009   8.237   6.825
12705WAT     H138357   0.931   8.215   6.768
12705WAT     H238358   1.090   8.250   6.768
12706WAT      O38359   4.289   6.536   2.574
12706WAT     H138360   4.379   6.548   2.618
12706WAT     H238361   4.268   6.618   2.521
12707WAT      O38362   3.532   4.507   7.442
12707WAT     H138363   3.573   4.416   7.448
12707WAT     H238364   3.545   4.543   7.350
12708WAT      O38365   8.080   9.573   7.000
12708WAT     H138366   8.097   9.643   7.069
12708WAT     H238367   8.001   9.518   7.028
12709WAT      O38368   4.225   6.088   6.742
12709WAT     H138369   4.269   6.015   6.794
12709WAT     H238370   4.243   6.074   6.644
12710WAT      O38371   9.876   1.429   4.709
12710WAT     H138372   9.789   1.463   4.745
12710WAT     H238373   9.904   1.348   4.760
12711WAT      O38374   6.707   7.616   0.517
12711WAT     H138375   6.738   7.692   0.459
12711WAT     H238376   6.677   7.652   0.605
12712WAT      O38377   3.125   6.090   8.455
12712WAT     H138378   3.143   6.185   8.479
12712WAT     H238379   3.200   6.032   8.489
12713WAT      O38380   7.029   9.798   5.082
12713WAT     H138381   7.027   9.698   5.087
12713WAT     H238382   6.935   9.833   5.078
12714WAT      O38383   6.795   6.064   2.025
12714WAT     H138384   6.819   6.159   2.002
12714WAT     H238385   6.813   6.005   1.946
12715WAT      O38386   2.589   1.342   2.313
12715WAT     H138387   2.585   1.421   2.253
12715WAT     H238388   2.623   1.263   2.262
12716WAT      O38389   8.786   2.775   5.479
12716WAT     H138390   8.846   2.783   5.559
12716WAT     H238391   8.841   2.775   5.396
12717WAT      O38392   4.559   6.131   9.081
12717WAT     H138393   4.607   6.181   9.153
12717WAT     H238394   4.472   6.098   9.117
12718WAT      O38395   2.084   8.890   2.020
12718WAT     H138396   2.120   8.841   2.100
12718WAT     H238397   2.132   8.859   1.938
12719WAT      O38398   8.458   2.645   0.982
12719WAT     H138399   8.468   2.599   1.070
12719WAT     H238400   8.364   2.677   0.972
12720WAT      O38401   7.375   3.872   2.228
12720WAT     H138402   7.281   3.843   2.213
12720WAT     H238403   7.437   3.822   2.168
12721WAT      O38404   8.548   0.561   4.817
12721WAT     H138405   8.506   0.617   4.746
12721WAT     H238406   8.538   0.464   4.793
12722WAT      O38407   0.438   6.732   1.480
12722WAT     H138408   0.450   6.823   1.519
12722WAT     H238409   0.458   6.663   1.550
12723WAT      O38410   2.780   1.005   9.803
12723WAT     H138411   2.707   0.961   9.855
12723WAT     H238412   2.741   1.052   9.724
12724WAT      O38413   1.996   0.290   2.568
12724WAT     H138414   1.955   0.381   2.570
12724WAT     H238415   1.987   0.247   2.658
12725WAT      O38416   6.531   6.943   5.834
12725WAT     H138417   6.546   6.943   5.735
12725WAT     H238418   6.434   6.960   5.852
12726WAT      O38419   9.354   6.532   1.128
12726WAT     H138420   9.342   6.529   1.029
12726WAT     H238421   9.323   6.621   1.163
12727WAT      O38422   8.575   8.563   7.137
12727WAT     H138423   8.592   8.490   7.203
12727WAT     H238424   8.615   8.648   7.171
12728WAT      O38425   2.816   2.285   4.179
12728WAT     H138426   2.751   2.348   4.222
12728WAT     H238427   2.821   2.304   4.081
12729WAT      O38428   5.646   8.096   2.798
12729WAT     H138429   5.740   8.126   2.783
12729WAT     H238430   5.605   8.151   2.870
12730WAT      O38431   7.932   1.071   2.032
12730WAT     H138432   7.895   1.022   1.953
12730WAT     H238433   7.871   1.060   2.110
12731WAT      O38434   0.290   2.354   5.079
12731WAT     H138435   0.323   2.294   5.005
12731WAT     H238436   0.335   2.328   5.164
12732WAT      O38437   4.841   3.532   1.577
12732WAT     H138438   4.916   3.591   1.546
12732WAT     H238439   4.870   3.482   1.659
12733WAT      O38440   2.772   1.358   0.126
12733WAT     H138441   2.710   1.433   0.101
12733WAT     H238442   2.864   1.379   0.093
12734WAT      O38443   8.928   8.367   4.764
12734WAT     H138444   8.873   8.302   4.711
12734WAT     H238445   8.876   8.451   4.776
12735WAT      O38446   9.302   7.588   1.593
12735WAT     H138447   9.393   7.569   1.631
12735WAT     H238448   9.306   7.583   1.493
12736WAT      O38449   2.267   6.705   8.948
12736WAT     H138450   2.181   6.700   8.998
12736WAT     H238451   2.288   6.615   8.908
12737WAT      O38452   5.296   0.294   5.976
12737WAT     H138453   5.262   0.382   6.007
12737WAT     H238454   5.396   0.291   5.985
12738WAT      O38455   5.340   4.622   9.796
12738WAT     H138456   5.313   4.705   9.845
12738WAT     H238457   5.319   4.542   9.851
12739WAT      O38458   8.772   0.465   6.402
12739WAT     H138459   8.832   0.391   6.373
12739WAT     H238460   8.810   0.552   6.372
12740WAT      O38461   3.996   2.295   9.672
12740WAT     H138462   3.918   2.302   9.610
12740WAT     H238463   3.963   2.286   9.766
12741WAT      O38464   1.002   7.563   6.085
12741WAT     H138465   0.977   7.507   6.164
12741WAT     H238466   1.092   7.603   6.100
12742WAT      O38467   1.093   0.172   1.742
12742WAT     H138468   1.178   0.168   1.795
12742WAT     H238469   1.018   0.133   1.796
12743WAT      O38470   7.242   9.534   5.382
12743WAT     H138471   7.161   9.519   5.438
12743WAT     H238472   7.316   9.474   5.414
12744WAT      O38473   3.872   7.064   5.198
12744WAT     H138474   3.934   7.092   5.124
12744WAT     H238475   3.845   7.145   5.251
12745WAT      O38476   5.058   5.590   9.154
12745WAT     H138477   4.994   5.523   9.191
12745WAT     H238478   5.031   5.681   9.185
12746WAT      O38479   9.311   5.755   7.776
12746WAT     H138480   9.307   5.848   7.740
12746WAT     H238481   9.364   5.754   7.861
12747WAT      O38482   8.713   3.962   7.062
12747WAT     H138483   8.724   3.999   6.970
12747WAT     H238484   8.706   3.862   7.058
12748WAT      O38485   1.744   1.423   0.334
12748WAT     H138486   1.723   1.520   0.347
12748WAT     H238487   1.716   1.395   0.242
12749WAT      O38488   5.163   7.057   4.355
12749WAT     H138489   5.117   6.992   4.294
12749WAT     H238490   5.261   7.039   4.356
12750WAT      O38491   8.950   2.199   8.624
12750WAT     H138492   9.036   2.173   8.581
12750WAT     H238493   8.965   2.280   8.682
12751WAT      O38494   2.490   9.706   4.374
12751WAT     H138495   2.554   9.707   4.451
12751WAT     H238496   2.511   9.782   4.313
12752WAT      O38497   7.456   2.778   0.582
12752WAT     H138498   7.537   2.822   0.544
12752WAT     H238499   7.450   2.798   0.680
12753WAT      O38500   9.093   0.861   7.609
12753WAT     H138501   9.164   0.791   7.618
12753WAT     H238502   9.005   0.822   7.635
12754WAT      O38503   7.036   8.740   5.823
12754WAT     H138504   6.966   8.796   5.867
12754WAT     H238505   7.007   8.644   5.824
12755WAT      O38506   5.399   5.334   8.421
12755WAT     H138507   5.451   5.304   8.340
12755WAT     H238508   5.352   5.256   8.461
12756WAT      O38509   4.377   3.259   9.668
12756WAT     H138510   4.419   3.225   9.753
12756WAT     H238511   4.431   3.230   9.590
12757WAT      O38512   5.118   0.102   4.418
12757WAT     H138513   5.020   0.102   4.403
12757WAT     H238514   5.164   0.150   4.343
12758WAT      O38515   2.125   3.885   9.350
12758WAT     H138516   2.213   3.849   9.382
12758WAT     H238517   2.138   3.977   9.314
12759WAT      O38518   7.708   3.171   0.896
12759WAT     H138519   7.651   3.248   0.867
12759WAT     H238520   7.655   3.114   0.960
12760WAT      O38521   1.459   2.374   9.260
12760WAT     H138522   1.490   2.328   9.344
12760WAT     H238523   1.362   2.396   9.269
12761WAT      O38524   7.563   7.163   1.158
12761WAT     H138525   7.579   7.175   1.256
12761WAT     H238526   7.646   7.129   1.115
12762WAT      O38527   2.601   2.219   2.405
12762WAT     H138528   2.687   2.234   2.454
12762WAT     H238529   2.585   2.294   2.341
12763WAT      O38530   9.735   2.102   2.639
12763WAT     H138531   9.826   2.143   2.640
12763WAT     H238532   9.721   2.055   2.552
12764WAT      O38533   5.434   9.742   8.966
12764WAT     H138534   5.510   9.684   8.996
12764WAT     H238535   5.350   9.714   9.014
12765WAT      O38536   4.547   3.784   1.391
12765WAT     H138537   4.450   3.789   1.368
12765WAT     H238538   4.575   3.688   1.397
12766WAT      O38539   6.063   4.624   6.183
12766WAT     H138540   6.024   4.715   6.196
12766WAT     H238541   5.991   4.560   6.154
12767WAT      O38542   4.653   7.941   6.278
12767WAT     H138543   4.734   7.931   6.221
12767WAT     H238544   4.585   7.997   6.230
12768WAT      O38545   0.905   6.419   5.872
12768WAT     H138546   1.004   6.433   5.870
12768WAT     H238547   0.860   6.505   5.896
12769WAT      O38548   7.361   2.440   4.013
12769WAT     H138549   7.263   2.439   4.031
12769WAT     H238550   7.403   2.518   4.059
12770WAT      O38551   9.378   3.212   4.412
12770WAT     H138552   9.312   3.285   4.428
12770WAT     H238553   9.342   3.126   4.447
12771WAT      O38554   5.531   1.773   1.652
12771WAT     H138555   5.505   1.706   1.584
12771WAT     H238556   5.631   1.772   1.663
12772WAT      O38557   1.935   2.971   2.905
12772WAT     H138558   1.835   2.973   2.913
12772WAT     H238559   1.961   2.907   2.833
12773WAT      O38560   1.020   0.464   4.625
12773WAT     H138561   1.030   0.502   4.717
12773WAT     H238562   0.926   0.474   4.593
12774WAT      O38563   1.931   0.132   1.545
12774WAT     H138564   1.867   0.106   1.617
12774WAT     H238565   1.880   0.166   1.466
12775WAT      O38566   0.162   5.695   6.056
12775WAT     H138567   0.160   5.600   6.087
12775WAT     H238568   0.165   5.697   5.956
12776WAT      O38569   0.574   4.284   3.633
12776WAT     H138570   0.548   4.225   3.708
12776WAT     H238571   0.652   4.341   3.661
12777WAT      O38572   5.167   1.381   4.631
12777WAT     H138573   5.142   1.306   4.569
12777WAT     H238574   5.106   1.458   4.615
12778WAT      O38575   1.116   6.782   2.247
12778WAT     H138576   1.182   6.856   2.251
12778WAT     H238577   1.042   6.799   2.313
12779WAT      O38578   2.814   0.109   8.811
12779WAT     H138579   2.877   0.119   8.734
12779WAT     H238580   2.865   0.111   8.897
12780WAT      O38581   4.548   0.427   2.169
12780WAT     H138582   4.463   0.442   2.119
12780WAT     H238583   4.583   0.335   2.149
12781WAT      O38584   4.191   7.031   8.478
12781WAT     H138585   4.140   6.989   8.403
12781WAT     H238586   4.151   7.119   8.501
12782WAT      O38587   0.585   2.506   8.864
12782WAT     H138588   0.633   2.486   8.779
12782WAT     H238589   0.579   2.422   8.919
12783WAT      O38590   3.039   3.262   1.938
12783WAT     H138591   2.973   3.333   1.960
12783WAT     H238592   3.119   3.303   1.895
12784WAT      O38593   0.058   3.933   5.924
12784WAT     H138594   0.055   3.851   5.982
12784WAT     H238595   0.101   4.008   5.974
12785WAT      O38596   8.900   0.311   1.753
12785WAT     H138597   8.809   0.268   1.761
12785WAT     H238598   8.925   0.318   1.656
12786WAT      O38599   9.792   4.224   4.186
12786WAT     H138600   9.730   4.152   4.217
12786WAT     H238601   9.882   4.211   4.229
12787WAT      O38602   8.773   5.766   3.234
12787WAT     H138603   8.796   5.817   3.151
12787WAT     H238604   8.841   5.695   3.250
12788WAT      O38605   9.597   8.002   6.061
12788WAT     H138606   9.518   8.053   6.028
12788WAT     H238607   9.593   7.995   6.161
12789WAT      O38608   3.965   4.880   5.290
12789WAT     H138609   3.990   4.860   5.385
12789WAT     H238610   4.031   4.838   5.229
12790WAT      O38611   5.994   4.293   8.108
12790WAT     H138612   5.948   4.324   8.025
12790WAT     H238613   5.959   4.203   8.133
12791WAT      O38614   8.620   9.107   0.434
12791WAT     H138615   8.556   9.083   0.361
12791WAT     H238616   8.667   9.192   0.409
12792WAT      O38617   8.193   0.205   8.659
12792WAT     H138618   8.124   0.138   8.633
12792WAT     H238619   8.258   0.163   8.722
12793WAT      O38620   4.536   0.206   1.190
12793WAT     H138621   4.615   0.261   1.218
12793WAT     H238622   4.568   0.118   1.156
12794WAT      O38623   8.625   1.078   4.630
12794WAT     H138624   8.552   1.145   4.614
12794WAT     H238625   8.650   1.035   4.543
12795WAT      O38626   5.817   2.958   0.725
12795WAT     H138627   5.739   3.006   0.765
12795WAT     H238628   5.784   2.893   0.656
12796WAT      O38629   3.182   0.258   2.913
12796WAT     H138630   3.244   0.335   2.893
12796WAT     H238631   3.089   0.284   2.890
12797WAT      O38632   0.938   0.296   2.535
12797WAT     H138633   0.912   0.369   2.472
12797WAT     H238634   0.870   0.289   2.609
12798WAT      O38635   1.687   0.291   2.569
12798WAT     H138636   1.692   0.226   2.645
12798WAT     H238637   1.672   0.383   2.605
12799WAT      O38638   8.649   1.623   2.290
12799WAT     H138639   8.639   1.560   2.367
12799WAT     H238640   8.639   1.573   2.204
12800WAT      O38641   9.890   9.346   8.365
12800WAT     H138642   9.823   9.396   8.311
12800WAT     H238643   9.898   9.253   8.331
12801WAT      O38644   3.898   0.981   3.920
12801WAT     H138645   3.896   0.997   3.821
12801WAT     H238646   3.805   0.989   3.956
12802WAT      O38647   6.616   1.898   6.339
12802WAT     H138648   6.533   1.872   6.389
12802WAT     H238649   6.686   1.828   6.351
12803WAT      O38650   0.351   5.477   9.842
12803WAT     H138651   0.414   5.405   9.814
12803WAT     H238652   0.349   5.549   9.773
12804WAT      O38653   2.376   8.679   7.090
12804WAT     H138654   2.371   8.750   7.160
12804WAT     H238655   2.291   8.625   7.091
12805WAT      O38656   7.483   3.554   9.095
12805WAT     H138657   7.402   3.613   9.088
12805WAT     H238658   7.511   3.525   9.004
12806WAT      O38659   2.395   3.936   2.398
12806WAT     H138660   2.352   3.868   2.339
12806WAT     H238661   2.453   3.996   2.343
12807WAT      O38662   1.788   6.706   2.558
12807WAT     H138663   1.855   6.779   2.563
12807WAT     H238664   1.704   6.734   2.604
12808WAT      O38665   7.365   3.093   3.452
12808WAT     H138666   7.284   3.087   3.394
12808WAT     H238667   7.341   3.071   3.546
12809WAT      O38668   6.171   0.568   6.653
12809WAT     H138669   6.226   0.589   6.733
12809WAT     H238670   6.154   0.469   6.650
12810WAT      O38671   7.517   0.138   1.021
12810WAT     H138672   7.527   0.238   1.025
12810WAT     H238673   7.532   0.099   1.112
12811WAT      O38674   0.993   5.095   3.746
12811WAT     H138675   0.905   5.139   3.764
12811WAT     H238676   1.011   5.095   3.647
12812WAT      O38677   7.527   9.561   7.677
12812WAT     H138678   7.446   9.607   7.712
12812WAT     H238679   7.602   9.626   7.669
12813WAT      O38680   5.248   7.627   8.131
12813WAT     H138681   5.226   7.703   8.069
12813WAT     H238682   5.205   7.643   8.220
12814WAT      O38683   7.724   6.013   3.866
12814WAT     H138684   7.650   5.951   3.840
12814WAT     H238685   7.708   6.047   3.959
12815WAT      O38686   7.283   7.062   1.801
12815WAT     H138687   7.345   7.136   1.825
12815WAT     H238688   7.288   6.990   1.871
12816WAT      O38689   2.694   4.258   9.839
12816WAT     H138690   2.611   4.223   9.796
12816WAT     H238691   2.738   4.186   9.892
12817WAT      O38692   8.372   4.326   5.946
12817WAT     H138693   8.380   4.311   5.848
12817WAT     H238694   8.463   4.326   5.988
12818WAT      O38695   5.623   6.929   5.809
12818WAT     H138696   5.616   6.871   5.727
12818WAT     H238697   5.680   6.883   5.877
12819WAT      O38698   6.162   3.996   6.665
12819WAT     H138699   6.192   3.909   6.704
12819WAT     H238700   6.065   3.990   6.641
12820WAT      O38701   6.072   1.793   1.344
12820WAT     H138702   6.114   1.825   1.429
12820WAT     H238703   6.066   1.694   1.345
12821WAT      O38704   9.865   3.791   7.758
12821WAT     H138705   9.883   3.707   7.706
12821WAT     H238706   9.769   3.795   7.782
12822WAT      O38707   5.536   2.333   2.560
12822WAT     H138708   5.491   2.365   2.476
12822WAT     H238709   5.522   2.400   2.633
12823WAT      O38710   1.501   3.963   9.220
12823WAT     H138711   1.510   3.929   9.313
12823WAT     H238712   1.410   3.940   9.184
12824WAT      O38713   7.735   3.745   5.663
12824WAT     H138714   7.823   3.791   5.655
12824WAT     H238715   7.728   3.673   5.594
12825WAT      O38716   3.629   0.871   3.307
12825WAT     H138717   3.570   0.790   3.307
12825WAT     H238718   3.611   0.925   3.390
12826WAT      O38719   7.695   6.832   6.576
12826WAT     H138720   7.697   6.928   6.602
12826WAT     H238721   7.616   6.815   6.517
12827WAT      O38722   5.467   0.445   1.530
12827WAT     H138723   5.508   0.534   1.512
12827WAT     H238724   5.463   0.429   1.629
12828WAT      O38725   0.749   0.268   8.839
12828WAT     H138726   0.729   0.340   8.772
12828WAT     H238727   0.706   0.292   8.926
12829WAT      O38728   0.516   9.568   5.796
12829WAT     H138729   0.577   9.643   5.769
12829WAT     H238730   0.421   9.599   5.792
12830WAT      O38731   7.312   9.120   3.230
12830WAT     H138732   7.268   9.199   3.187
12830WAT     H238733   7.379   9.152   3.297
12831WAT      O38734   4.411   3.829   0.895
12831WAT     H138735   4.385   3.871   0.981
12831WAT     H238736   4.434   3.733   0.909
12832WAT      O38737   0.796   3.293   0.678
12832WAT     H138738   0.714   3.241   0.656
12832WAT     H238739   0.791   3.325   0.773
12833WAT      O38740   3.903   3.576   5.460
12833WAT     H138741   3.832   3.624   5.408
12833WAT     H238742   3.929   3.493   5.411
12834WAT      O38743   9.138   1.462   1.440
12834WAT     H138744   9.215   1.509   1.486
12834WAT     H238745   9.091   1.527   1.381
12835WAT      O38746   1.810   7.345   9.229
12835WAT     H138747   1.836   7.260   9.275
12835WAT     H238748   1.781   7.413   9.297
12836WAT      O38749   5.538   9.499   0.065
12836WAT     H138750   5.613   9.432   0.066
12836WAT     H238751   5.523   9.530  -0.029
12837WAT      O38752   9.256   2.052   9.204
12837WAT     H138753   9.215   1.963   9.184
12837WAT     H238754   9.352   2.040   9.229
12838WAT      O38755   0.639   9.670   6.238
12838WAT     H138756   0.630   9.602   6.166
12838WAT     H238757   0.698   9.634   6.311
12839WAT      O38758   7.725   9.057   1.706
12839WAT     H138759   7.772   9.084   1.790
12839WAT     H238760   7.758   8.967   1.677
12840WAT      O38761   1.047   5.021   3.456
12840WAT     H138762   1.016   5.055   3.368
12840WAT     H238763   1.143   4.994   3.450
12841WAT      O38764   9.741   5.954   0.444
12841WAT     H138765   9.794   6.015   0.503
12841WAT     H238766   9.802   5.904   0.383
12842WAT      O38767   2.651   3.451   0.559
12842WAT     H138768   2.597   3.385   0.507
12842WAT     H238769   2.675   3.412   0.648
12843WAT      O38770   1.739   9.685   9.238
12843WAT     H138771   1.666   9.636   9.189
12843WAT     H238772   1.713   9.781   9.249
12844WAT      O38773   0.227   1.007   6.301
12844WAT     H138774   0.180   0.952   6.232
12844WAT     H238775   0.325   0.987   6.299
12845WAT      O38776   0.993   4.848   7.755
12845WAT     H138777   1.019   4.908   7.679
12845WAT     H238778   1.033   4.757   7.740
12846WAT      O38779   4.583   5.386   5.417
12846WAT     H138780   4.658   5.452   5.422
12846WAT     H238781   4.580   5.346   5.326
12847WAT      O38782   9.673   2.427   4.294
12847WAT     H138783   9.715   2.356   4.238
12847WAT     H238784   9.743   2.495   4.319
12848WAT      O38785   9.449   1.334   5.189
12848WAT     H138786   9.521   1.397   5.162
12848WAT     H238787   9.396   1.373   5.264
12849WAT      O38788   1.203   0.170   2.525
12849WAT     H138789   1.106   0.197   2.523
12849WAT     H238790   1.249   0.216   2.601
12850WAT      O38791   3.284   4.760   3.217
12850WAT     H138792   3.251   4.665   3.214
12850WAT     H238793   3.333   4.776   3.302
12851WAT      O38794   6.811   4.496   9.311
12851WAT     H138795   6.800   4.574   9.248
12851WAT     H238796   6.886   4.438   9.280
12852WAT      O38797   0.135   8.828   7.668
12852WAT     H138798   0.215   8.854   7.614
12852WAT     H238799   0.153   8.846   7.765
12853WAT      O38800   2.922   4.646   3.459
12853WAT     H138801   2.833   4.676   3.425
12853WAT     H238802   2.914   4.623   3.556
12854WAT      O38803   8.939   4.095   0.526
12854WAT     H138804   8.979   4.105   0.435
12854WAT     H238805   8.852   4.144   0.530
12855WAT      O38806   6.994   3.141   3.974
12855WAT     H138807   6.926   3.068   3.971
12855WAT     H238808   7.085   3.100   3.984
12856WAT      O38809   5.044   7.058   0.910
12856WAT     H138810   5.078   6.966   0.930
12856WAT     H238811   5.098   7.125   0.961
12857WAT      O38812   0.288   5.926   0.673
12857WAT     H138813   0.271   5.829   0.656
12857WAT     H238814   0.206   5.978   0.652
12858WAT      O38815   3.030   0.088   1.397
12858WAT     H138816   2.959   0.109   1.329
12858WAT     H238817   3.104   0.155   1.390
12859WAT      O38818   7.935   0.725   6.247
12859WAT     H138819   7.942   0.632   6.282
12859WAT     H238820   7.846   0.738   6.203
12860WAT      O38821   7.409   2.459   5.342
12860WAT     H138822   7.490   2.405   5.365
12860WAT     H238823   7.437   2.544   5.297
12861WAT      O38824   9.072   1.869   4.662
12861WAT     H138825   9.162   1.832   4.686
12861WAT     H238826   9.002   1.826   4.718
12862WAT      O38827   8.848   6.669   1.138
12862WAT     H138828   8.945   6.674   1.159
12862WAT     H238829   8.795   6.678   1.222
12863WAT      O38830   1.843   9.181   7.170
12863WAT     H138831   1.773   9.171   7.241
12863WAT     H238832   1.801   9.168   7.080
12864WAT      O38833   8.192   7.848   6.870
12864WAT     H138834   8.147   7.854   6.959
12864WAT     H238835   8.236   7.936   6.849
12865WAT      O38836   9.363   5.791   9.398
12865WAT     H138837   9.324   5.734   9.326
12865WAT     H238838   9.442   5.744   9.439
12866WAT      O38839   2.454   7.109   5.662
12866WAT     H138840   2.422   7.123   5.569
12866WAT     H238841   2.434   7.015   5.690
12867WAT      O38842   7.297   8.449   8.848
12867WAT     H138843   7.325   8.545   8.850
12867WAT     H238844   7.251   8.429   8.762
12868WAT      O38845   3.823   0.037   4.296
12868WAT     H138846   3.765  -0.031   4.340
12868WAT     H238847   3.795   0.047   4.200
12869WAT      O38848   7.843   5.082   4.939
12869WAT     H138849   7.847   5.071   4.840
12869WAT     H238850   7.909   5.021   4.983
12870WAT      O38851   0.132   7.880   3.734
12870WAT     H138852   0.196   7.956   3.749
12870WAT     H238853   0.093   7.888   3.642
12871WAT      O38854   0.777   0.786   5.110
12871WAT     H138855   0.738   0.821   5.196
12871WAT     H238856   0.715   0.806   5.035
12872WAT      O38857   9.225   4.861   7.651
12872WAT     H138858   9.226   4.941   7.592
12872WAT     H238859   9.228   4.890   7.747
12873WAT      O38860   2.245   9.249   3.733
12873WAT     H138861   2.279   9.159   3.757
12873WAT     H238862   2.152   9.241   3.696
12874WAT      O38863   7.357   1.723   5.902
12874WAT     H138864   7.385   1.796   5.840
12874WAT     H238865   7.437   1.668   5.926
12875WAT      O38866   3.378   6.831   0.525
12875WAT     H138867   3.356   6.813   0.429
12875WAT     H238868   3.321   6.773   0.584
12876WAT      O38869   4.857   6.773   4.713
12876WAT     H138870   4.767   6.797   4.748
12876WAT     H238871   4.882   6.681   4.746
12877WAT      O38872   2.786   5.319   9.882
12877WAT     H138873   2.838   5.380   9.822
12877WAT     H238874   2.716   5.371   9.931
12878WAT      O38875   6.057   1.045   9.529
12878WAT     H138876   6.017   1.134   9.507
12878WAT     H238877   6.082   0.998   9.445
12879WAT      O38878   7.518   9.753   3.899
12879WAT     H138879   7.556   9.664   3.923
12879WAT     H238880   7.513   9.810   3.981
12880WAT      O38881   5.984   5.228   1.739
12880WAT     H138882   6.036   5.168   1.678
12880WAT     H238883   5.930   5.292   1.685
12881WAT      O38884   0.934   9.181   7.944
12881WAT     H138885   1.003   9.121   7.904
12881WAT     H238886   0.979   9.254   7.996
12882WAT      O38887   0.603   4.508   8.431
12882WAT     H138888   0.564   4.514   8.523
12882WAT     H238889   0.698   4.540   8.432
12883WAT      O38890   6.476   4.455   3.532
12883WAT     H138891   6.469   4.360   3.503
12883WAT     H238892   6.386   4.497   3.531
12884WAT      O38893   2.536   1.691   1.340
12884WAT     H138894   2.628   1.659   1.365
12884WAT     H238895   2.491   1.730   1.420
12885WAT      O38896   7.210   7.217   5.232
12885WAT     H138897   7.138   7.186   5.294
12885WAT     H238898   7.251   7.138   5.185
12886WAT      O38899   1.102   3.684   3.666
12886WAT     H138900   1.083   3.591   3.635
12886WAT     H238901   1.095   3.687   3.766
12887WAT      O38902   7.455   0.333   1.323
12887WAT     H138903   7.361   0.303   1.304
12887WAT     H238904   7.494   0.276   1.396
12888WAT      O38905   8.141   0.639   2.496
12888WAT     H138906   8.181   0.547   2.491
12888WAT     H238907   8.160   0.679   2.585
12889WAT      O38908   9.431   9.262   5.785
12889WAT     H138909   9.409   9.185   5.844
12889WAT     H238910   9.348   9.314   5.765
12890WAT      O38911   8.957   6.714   2.586
12890WAT     H138912   8.983   6.627   2.545
12890WAT     H238913   8.905   6.697   2.670
12891WAT      O38914   9.118   3.381   5.848
12891WAT     H138915   9.069   3.461   5.812
12891WAT     H238916   9.116   3.308   5.780
12892WAT      O38917   7.050   9.726   4.314
12892WAT     H138918   7.060   9.825   4.301
12892WAT     H238919   7.005   9.708   4.401
12893WAT      O38920   0.096   1.364   7.486
12893WAT     H138921   0.176   1.308   7.464
12893WAT     H238922   0.087   1.436   7.417
12894WAT      O38923   9.114   8.033   6.348
12894WAT     H138924   9.130   8.085   6.264
12894WAT     H238925   9.029   7.981   6.340
12895WAT      O38926   9.795   4.242   4.798
12895WAT     H138927   9.706   4.197   4.793
12895WAT     H238928   9.787   4.337   4.768
12896WAT      O38929   5.102   8.474   6.603
12896WAT     H138930   5.121   8.380   6.633
12896WAT     H238931   5.162   8.496   6.526
12897WAT      O38932   1.286   5.664   3.659
12897WAT     H138933   1.231   5.582   3.644
12897WAT     H238934   1.332   5.657   3.747
12898WAT      O38935   3.230   2.316   0.193
12898WAT     H138936   3.249   2.400   0.144
12898WAT     H238937   3.131   2.308   0.209
12899WAT      O38938   4.857   7.290   6.205
12899WAT     H138939   4.807   7.271   6.289
12899WAT     H238940   4.915   7.211   6.182
12900WAT      O38941   1.728   4.599   2.251
12900WAT     H138942   1.642   4.639   2.282
12900WAT     H238943   1.711   4.507   2.217
12901WAT      O38944   7.088   5.109   5.845
12901WAT     H138945   6.997   5.150   5.848
12901WAT     H238946   7.082   5.013   5.873
12902WAT      O38947   8.670   8.845   8.646
12902WAT     H138948   8.710   8.777   8.584
12902WAT     H238949   8.629   8.798   8.724
12903WAT      O38950   3.390   9.650   1.294
12903WAT     H138951   3.418   9.555   1.308
12903WAT     H238952   3.345   9.684   1.376
12904WAT      O38953   7.594   5.145   7.290
12904WAT     H138954   7.642   5.067   7.250
12904WAT     H238955   7.580   5.129   7.388
12905WAT      O38956   5.702   0.498   4.506
12905WAT     H138957   5.614   0.450   4.509
12905WAT     H238958   5.691   0.586   4.459
12906WAT      O38959   5.938   9.140   9.001
12906WAT     H138960   5.981   9.051   8.986
12906WAT     H238961   6.006   9.212   8.985
12907WAT      O38962   3.404   2.070   4.492
12907WAT     H138963   3.478   2.012   4.458
12907WAT     H238964   3.418   2.089   4.589
12908WAT      O38965   9.075   3.191   0.747
12908WAT     H138966   9.092   3.095   0.770
12908WAT     H238967   9.142   3.249   0.794
12909WAT      O38968   3.172   3.127   7.701
12909WAT     H138969   3.164   3.114   7.602
12909WAT     H238970   3.152   3.042   7.748
12910WAT      O38971   8.631   1.818   5.046
12910WAT     H138972   8.717   1.859   5.076
12910WAT     H238973   8.585   1.776   5.124
12911WAT      O38974   6.860   3.934   6.495
12911WAT     H138975   6.882   3.895   6.584
12911WAT     H238976   6.760   3.942   6.486
12912WAT      O38977   0.433   7.177   6.488
12912WAT     H138978   0.471   7.233   6.562
12912WAT     H238979   0.444   7.080   6.510
12913WAT      O38980   9.407   4.722   2.724
12913WAT     H138981   9.471   4.762   2.790
12913WAT     H238982   9.373   4.793   2.663
12914WAT      O38983   3.804   5.414   1.883
12914WAT     H138984   3.736   5.364   1.937
12914WAT     H238985   3.880   5.442   1.942
12915WAT      O38986   2.633   7.008   0.307
12915WAT     H138987   2.623   6.917   0.348
12915WAT     H238988   2.687   7.001   0.223
12916WAT      O38989   5.309   4.563   3.440
12916WAT     H138990   5.251   4.590   3.517
12916WAT     H238991   5.317   4.464   3.437
12917WAT      O38992   0.419   2.390   7.625
12917WAT     H138993   0.507   2.379   7.579
12917WAT     H238994   0.421   2.471   7.683
12918WAT      O38995   7.870   2.581   6.380
12918WAT     H138996   7.969   2.568   6.390
12918WAT     H238997   7.851   2.629   6.294
12919WAT      O38998   2.145   4.063   0.281
12919WAT     H138999   2.231   4.053   0.331
12919WAT     H239000   2.082   3.990   0.309
12920WAT      O39001   4.982   7.300   4.355
12920WAT     H139002   5.058   7.292   4.290
12920WAT     H239003   4.971   7.213   4.404
12921WAT      O39004   3.642   2.516   5.388
12921WAT     H139005   3.575   2.587   5.410
12921WAT     H239006   3.610   2.428   5.424
12922WAT      O39007   9.439   5.558   6.023
12922WAT     H139008   9.389   5.616   5.959
12922WAT     H239009   9.522   5.604   6.053
12923WAT      O39010   5.678   0.668   5.041
12923WAT     H139011   5.768   0.659   5.084
12923WAT     H239012   5.687   0.722   4.957
12924WAT      O39013   2.177   1.295   8.110
12924WAT     H139014   2.170   1.363   8.184
12924WAT     H239015   2.196   1.206   8.150
12925WAT      O39016   0.423   1.811   5.897
12925WAT     H139017   0.487   1.887   5.902
12925WAT     H239018   0.454   1.736   5.956
12926WAT      O39019   3.338   3.982   9.291
12926WAT     H139020   3.339   3.882   9.283
12926WAT     H239021   3.355   4.008   9.385
12927WAT      O39022   1.631   4.849   8.230
12927WAT     H139023   1.570   4.819   8.157
12927WAT     H239024   1.577   4.892   8.302
12928WAT      O39025   6.599   0.891   4.387
12928WAT     H139026   6.580   0.965   4.451
12928WAT     H239027   6.698   0.879   4.377
12929WAT      O39028   7.732   5.309   0.637
12929WAT     H139029   7.641   5.331   0.672
12929WAT     H239030   7.726   5.292   0.539
12930WAT      O39031   8.074   6.751   7.450
12930WAT     H139032   8.104   6.706   7.534
12930WAT     H239033   8.075   6.850   7.462
12931WAT      O39034   8.324   7.416   2.414
12931WAT     H139035   8.332   7.422   2.314
12931WAT     H239036   8.400   7.361   2.450
12932WAT      O39037   0.887   7.434   7.014
12932WAT     H139038   0.822   7.507   6.993
12932WAT     H239039   0.928   7.450   7.104
12933WAT      O39040   8.997   7.987   0.060
12933WAT     H139041   8.996   7.900   0.012
12933WAT     H239042   9.090   8.023   0.063
12934WAT      O39043   8.934   6.472   5.803
12934WAT     H139044   8.880   6.416   5.740
12934WAT     H239045   8.966   6.553   5.755
12935WAT      O39046   9.377   6.585   2.917
12935WAT     H139047   9.463   6.628   2.887
12935WAT     H239048   9.301   6.623   2.864
12936WAT      O39049   5.909   2.820   8.203
12936WAT     H139050   5.816   2.830   8.169
12936WAT     H239051   5.908   2.769   8.289
12937WAT      O39052   8.909   6.189   8.722
12937WAT     H139053   8.866   6.119   8.780
12937WAT     H239054   9.004   6.202   8.750
12938WAT      O39055   6.915   8.839   9.576
12938WAT     H139056   6.854   8.905   9.620
12938WAT     H239057   6.973   8.885   9.509
12939WAT      O39058   6.603   5.196   1.377
12939WAT     H139059   6.563   5.268   1.433
12939WAT     H239060   6.571   5.205   1.283
12940WAT      O39061   3.900   8.411   7.126
12940WAT     H139062   3.874   8.443   7.034
12940WAT     H239063   3.978   8.350   7.118
12941WAT      O39064   6.548   5.307   5.406
12941WAT     H139065   6.554   5.406   5.416
12941WAT     H239066   6.613   5.263   5.467
12942WAT      O39067   4.051   4.298   4.712
12942WAT     H139068   3.998   4.376   4.746
12942WAT     H239069   4.033   4.218   4.769
12943WAT      O39070   5.159   1.660   1.519
12943WAT     H139071   5.253   1.631   1.499
12943WAT     H239072   5.156   1.759   1.533
12944WAT      O39073   9.514   8.215   8.867
12944WAT     H139074   9.580   8.198   8.794
12944WAT     H239075   9.553   8.277   8.934
12945WAT      O39076   2.652   3.108   2.989
12945WAT     H139077   2.617   3.056   2.911
12945WAT     H239078   2.593   3.186   3.007
12946WAT      O39079   0.158   3.134   8.792
12946WAT     H139080   0.087   3.203   8.775
12946WAT     H239081   0.236   3.152   8.733
12947WAT      O39082   1.763   3.725   7.262
12947WAT     H139083   1.818   3.744   7.343
12947WAT     H239084   1.716   3.809   7.233
12948WAT      O39085   2.799   4.947   3.240
12948WAT     H139086   2.862   4.976   3.168
12948WAT     H239087   2.812   5.004   3.321
12949WAT      O39088   6.041   2.523   4.790
12949WAT     H139089   6.064   2.426   4.805
12949WAT     H239090   5.986   2.556   4.867
12950WAT      O39091   5.392   3.574   8.077
12950WAT     H139092   5.341   3.656   8.105
12950WAT     H239093   5.476   3.568   8.130
12951WAT      O39094   1.537   6.109   3.687
12951WAT     H139095   1.545   6.109   3.787
12951WAT     H239096   1.589   6.032   3.650
12952WAT      O39097   1.620   5.202   4.354
12952WAT     H139098   1.639   5.121   4.410
12952WAT     H239099   1.656   5.283   4.400
12953WAT      O39100   5.058   5.331   0.981
12953WAT     H139101   5.009   5.258   0.935
12953WAT     H239102   5.087   5.300   1.072
12954WAT      O39103   0.659   0.384   9.062
12954WAT     H139104   0.666   0.482   9.076
12954WAT     H239105   0.588   0.347   9.123
12955WAT      O39106   0.032   8.510   9.683
12955WAT     H139107   0.026   8.578   9.756
12955WAT     H239108   0.099   8.440   9.708
12956WAT      O39109   1.404   3.706   9.865
12956WAT     H139110   1.422   3.627   9.806
12956WAT     H239111   1.419   3.681   9.960
12957WAT      O39112   1.218   6.623   9.079
12957WAT     H139113   1.297   6.662   9.127
12957WAT     H239114   1.142   6.612   9.144
12958WAT      O39115   7.886   0.030   0.827
12958WAT     H139116   7.979   0.026   0.789
12958WAT     H239117   7.826  -0.030   0.774
12959WAT      O39118   2.635   7.775   7.280
12959WAT     H139119   2.635   7.863   7.233
12959WAT     H239120   2.722   7.728   7.263
12960WAT      O39121   1.587   6.024   2.230
12960WAT     H139122   1.557   5.943   2.180
12960WAT     H239123   1.625   6.091   2.166
12961WAT      O39124   2.043   5.594   2.844
12961WAT     H139125   2.069   5.676   2.792
12961WAT     H239126   2.000   5.528   2.783
12962WAT      O39127   4.287   9.562   0.457
12962WAT     H139128   4.384   9.559   0.434
12962WAT     H239129   4.274   9.623   0.535
12963WAT      O39130   3.562   5.917   5.700
12963WAT     H139131   3.656   5.885   5.689
12963WAT     H239132   3.552   5.959   5.790
12964WAT      O39133   9.853   9.775   3.768
12964WAT     H139134   9.918   9.733   3.832
12964WAT     H239135   9.763   9.778   3.810
12965WAT      O39136   1.523   2.935   9.129
12965WAT     H139137   1.424   2.928   9.117
12965WAT     H239138   1.569   2.883   9.057
12966WAT      O39139   2.461   8.455   7.452
12966WAT     H139140   2.374   8.457   7.501
12966WAT     H239141   2.458   8.384   7.382
12967WAT      O39142   3.050   8.216   5.058
12967WAT     H139143   3.110   8.174   4.990
12967WAT     H239144   3.041   8.314   5.040
12968WAT      O39145   3.013   7.243   2.663
12968WAT     H139146   3.108   7.245   2.631
12968WAT     H239147   2.973   7.154   2.642
12969WAT      O39148   8.554   0.877   5.055
12969WAT     H139149   8.587   0.884   4.961
12969WAT     H239150   8.526   0.782   5.073
12970WAT      O39151   3.295   8.575   1.511
12970WAT     H139152   3.340   8.645   1.567
12970WAT     H239153   3.197   8.577   1.527
12971WAT      O39154   4.688   6.786   6.780
12971WAT     H139155   4.677   6.689   6.800
12971WAT     H239156   4.601   6.834   6.795
12972WAT      O39157   1.091   1.615   7.211
12972WAT     H139158   1.138   1.701   7.227
12972WAT     H239159   1.133   1.543   7.267
12973WAT      O39160   2.742   5.497   2.370
12973WAT     H139161   2.729   5.535   2.462
12973WAT     H239162   2.717   5.400   2.371
12974WAT      O39163   2.040   6.476   2.144
12974WAT     H139164   1.973   6.429   2.203
12974WAT     H239165   2.122   6.420   2.137
12975WAT      O39166   7.184   6.904   9.857
12975WAT     H139167   7.267   6.873   9.903
12975WAT     H239168   7.108   6.844   9.883
12976WAT      O39169   6.330   9.560   1.231
12976WAT     H139170   6.306   9.465   1.250
12976WAT     H239171   6.418   9.563   1.184
12977WAT      O39172   8.460   4.162   4.136
12977WAT     H139173   8.422   4.204   4.054
12977WAT     H239174   8.459   4.229   4.211
12978WAT      O39175   9.477   2.530   0.053
12978WAT     H139176   9.442   2.608   0.002
12978WAT     H239177   9.429   2.523   0.140
12979WAT      O39178   9.771   6.839   2.990
12979WAT     H139179   9.871   6.846   2.988
12979WAT     H239180   9.733   6.927   3.019
12980WAT      O39181   8.752   6.101   1.380
12980WAT     H139182   8.683   6.120   1.310
12980WAT     H239183   8.835   6.067   1.336
12981WAT      O39184   0.023   7.708   8.540
12981WAT     H139185   0.082   7.664   8.471
12981WAT     H239186   0.048   7.805   8.547
12982WAT      O39187   5.985   4.130   3.353
12982WAT     H139188   6.020   4.056   3.412
12982WAT     H239189   6.051   4.205   3.352
12983WAT      O39190   0.449   7.712   9.392
12983WAT     H139191   0.428   7.805   9.361
12983WAT     H239192   0.384   7.648   9.352
12984WAT      O39193   4.594   6.504   1.318
12984WAT     H139194   4.526   6.436   1.348
12984WAT     H239195   4.546   6.585   1.283
12985WAT      O39196   2.870   5.406   3.591
12985WAT     H139197   2.947   5.350   3.559
12985WAT     H239198   2.875   5.497   3.549
12986WAT      O39199   1.701   2.206   0.028
12986WAT     H139200   1.657   2.263  -0.042
12986WAT     H239201   1.675   2.239   0.119
12987WAT      O39202   3.397   2.292   3.498
12987WAT     H139203   3.343   2.355   3.554
12987WAT     H239204   3.479   2.264   3.549
12988WAT      O39205   8.531   0.125   4.631
12988WAT     H139206   8.457   0.086   4.576
12988WAT     H239207   8.508   0.219   4.655
12989WAT      O39208   8.909   2.885   2.742
12989WAT     H139209   8.822   2.930   2.722
12989WAT     H239210   8.896   2.816   2.813
12990WAT      O39211   1.434   7.918   9.075
12990WAT     H139212   1.353   7.861   9.064
12990WAT     H239213   1.509   7.880   9.021
12991WAT      O39214   9.830   2.995   9.614
12991WAT     H139215   9.838   3.080   9.561
12991WAT     H239216   9.770   3.011   9.693
12992WAT      O39217   3.893   6.162   0.831
12992WAT     H139218   3.949   6.193   0.755
12992WAT     H239219   3.827   6.233   0.856
12993WAT      O39220   3.388   5.798   3.913
12993WAT     H139221   3.305   5.743   3.925
12993WAT     H239222   3.367   5.877   3.856
12994WAT      O39223   6.281   6.887   1.998
12994WAT     H139224   6.240   6.977   2.011
12994WAT     H239225   6.252   6.825   2.072
12995WAT      O39226   6.433   2.917   9.526
12995WAT     H139227   6.402   2.834   9.480
12995WAT     H239228   6.426   2.995   9.464
12996WAT      O39229   2.376   9.231   5.866
12996WAT     H139230   2.349   9.169   5.792
12996WAT     H239231   2.366   9.326   5.836
12997WAT      O39232   6.792   5.021   6.141
12997WAT     H139233   6.771   4.963   6.062
12997WAT     H239234   6.727   5.002   6.215
12998WAT      O39235   9.586   4.236   8.862
12998WAT     H139236   9.563   4.185   8.779
12998WAT     H239237   9.650   4.183   8.917
12999WAT      O39238   7.354   8.593   5.150
12999WAT     H139239   7.255   8.585   5.136
12999WAT     H239240   7.375   8.683   5.188
13000WAT      O39241   2.199   4.267   4.791
13000WAT     H139242   2.150   4.227   4.869
13000WAT     H239243   2.148   4.347   4.758
13001WAT      O39244   7.017   0.737   3.694
13001WAT     H139245   7.079   0.756   3.770
13001WAT     H239246   6.925   0.766   3.718
13002WAT      O39247   8.667   5.084   5.518
13002WAT     H139248   8.612   5.154   5.474
13002WAT     H239249   8.639   5.074   5.614
13003WAT      O39250   9.024   5.954   3.333
13003WAT     H139251   8.988   5.875   3.384
13003WAT     H239252   9.111   5.929   3.291
13004WAT      O39253   4.105   7.396   2.089
13004WAT     H139254   4.111   7.321   2.023
13004WAT     H239255   4.010   7.426   2.096
13005WAT      O39256   7.240   3.808   9.553
13005WAT     H139257   7.265   3.713   9.536
13005WAT     H239258   7.176   3.839   9.483
13006WAT      O39259   1.879   7.113   8.522
13006WAT     H139260   1.909   7.073   8.609
13006WAT     H239261   1.856   7.209   8.536
13007WAT      O39262   2.412   7.750   5.044
13007WAT     H139263   2.410   7.708   4.953
13007WAT     H239264   2.503   7.739   5.084
13008WAT      O39265   3.930   2.435   4.153
13008WAT     H139266   3.962   2.369   4.221
13008WAT     H239267   3.957   2.404   4.062
13009WAT      O39268   2.858   8.453   9.575
13009WAT     H139269   2.945   8.457   9.624
13009WAT     H239270   2.783   8.454   9.641
13010WAT      O39271   2.913   8.386   8.786
13010WAT     H139272   3.001   8.430   8.770
13010WAT     H239273   2.861   8.438   8.854
13011WAT      O39274   2.042   8.166   2.351
13011WAT     H139275   1.968   8.100   2.338
13011WAT     H239276   2.119   8.140   2.293
13012WAT      O39277   1.283   9.629   4.489
13012WAT     H139278   1.257   9.532   4.490
13012WAT     H239279   1.355   9.644   4.557
13013WAT      O39280   2.749   0.375   4.884
13013WAT     H139281   2.728   0.469   4.857
13013WAT     H239282   2.672   0.336   4.934
13014WAT      O39283   0.335   8.370   8.362
13014WAT     H139284   0.400   8.360   8.287
13014WAT     H239285   0.312   8.466   8.374
13015WAT      O39286   8.255   6.994   8.183
13015WAT     H139287   8.209   7.012   8.270
13015WAT     H239288   8.324   7.063   8.166
13016WAT      O39289   6.153   6.334   9.503
13016WAT     H139290   6.159   6.422   9.455
13016WAT     H239291   6.146   6.260   9.436
13017WAT      O39292   0.567   7.494   8.265
13017WAT     H139293   0.498   7.527   8.330
13017WAT     H239294   0.657   7.529   8.290
13018WAT      O39295   8.404   0.311   4.826
13018WAT     H139296   8.465   0.276   4.897
13018WAT     H239297   8.309   0.299   4.854
13019WAT      O39298   4.997   1.318   5.156
13019WAT     H139299   4.940   1.348   5.233
13019WAT     H239300   5.078   1.377   5.150
13020WAT      O39301   4.455   8.732   1.754
13020WAT     H139302   4.499   8.814   1.791
13020WAT     H239303   4.509   8.651   1.780
13021WAT      O39304   3.992   0.311   6.070
13021WAT     H139305   3.975   0.388   6.009
13021WAT     H239306   3.948   0.229   6.033
13022WAT      O39307   4.661   0.316   3.779
13022WAT     H139308   4.582   0.263   3.747
13022WAT     H239309   4.629   0.401   3.821
13023WAT      O39310   2.167   0.625   8.588
13023WAT     H139311   2.259   0.638   8.626
13023WAT     H239312   2.129   0.714   8.564
13024WAT      O39313   0.989   2.910   5.495
13024WAT     H139314   1.075   2.960   5.488
13024WAT     H239315   0.974   2.856   5.412
13025WAT      O39316   9.871   5.210   9.544
13025WAT     H139317   9.806   5.216   9.620
13025WAT     H239318   9.948   5.271   9.562
13026WAT      O39319   9.197   0.354   5.586
13026WAT     H139320   9.268   0.315   5.528
13026WAT     H239321   9.186   0.297   5.667
13027WAT      O39322   2.712   9.592   1.815
13027WAT     H139323   2.622   9.633   1.801
13027WAT     H239324   2.710   9.496   1.785
13028WAT      O39325   5.047   9.027   6.833
13028WAT     H139326   5.027   9.058   6.740
13028WAT     H239327   5.146   9.021   6.846
13029WAT      O39328   6.797   6.894   4.737
13029WAT     H139329   6.892   6.879   4.766
13029WAT     H239330   6.797   6.937   4.647
13030WAT      O39331   3.325   8.438   4.378
13030WAT     H139332   3.364   8.404   4.292
13030WAT     H239333   3.225   8.443   4.369
13031WAT      O39334   6.294   3.451   3.577
13031WAT     H139335   6.392   3.470   3.571
13031WAT     H239336   6.249   3.522   3.631
13032WAT      O39337   3.689   7.508   0.909
13032WAT     H139338   3.786   7.521   0.889
13032WAT     H239339   3.654   7.430   0.858
13033WAT      O39340   4.528   5.756   4.223
13033WAT     H139341   4.475   5.778   4.305
13033WAT     H239342   4.542   5.839   4.169
13034WAT      O39343   4.733   3.059   5.266
13034WAT     H139344   4.708   2.976   5.217
13034WAT     H239345   4.801   3.038   5.337
13035WAT      O39346   3.113   6.626   1.111
13035WAT     H139347   3.123   6.546   1.170
13035WAT     H239348   3.083   6.704   1.166
13036WAT      O39349   6.931   8.513   1.300
13036WAT     H139350   6.970   8.600   1.270
13036WAT     H239351   6.976   8.483   1.383
13037WAT      O39352   8.811   9.744   0.325
13037WAT     H139353   8.877   9.748   0.400
13037WAT     H239354   8.811   9.652   0.286
13038WAT      O39355   2.202   6.865   9.334
13038WAT     H139356   2.131   6.846   9.265
13038WAT     H239357   2.288   6.826   9.303
13039WAT      O39358   0.354   3.763   6.148
13039WAT     H139359   0.448   3.760   6.115
13039WAT     H239360   0.316   3.670   6.149
13040WAT      O39361   4.696   3.106   1.442
13040WAT     H139362   4.750   3.074   1.519
13040WAT     H239363   4.756   3.124   1.364
13041WAT      O39364   1.798   9.043   3.398
13041WAT     H139365   1.732   8.979   3.359
13041WAT     H239366   1.843   9.001   3.477
13042WAT      O39367   8.640   0.185   6.459
13042WAT     H139368   8.628   0.284   6.455
13042WAT     H239369   8.702   0.162   6.534
13043WAT      O39370   2.872   0.664   6.261
13043WAT     H139371   2.803   0.643   6.192
13043WAT     H239372   2.870   0.595   6.333
13044WAT      O39373   0.520   3.852   4.141
13044WAT     H139374   0.488   3.770   4.093
13044WAT     H239375   0.485   3.851   4.235
13045WAT      O39376   8.932   6.603   2.054
13045WAT     H139377   8.890   6.597   2.144
13045WAT     H239378   8.947   6.699   2.030
13046WAT      O39379   6.657   2.701   6.904
13046WAT     H139380   6.646   2.622   6.843
13046WAT     H239381   6.650   2.672   6.999
13047WAT      O39382   8.407   9.626   7.282
13047WAT     H139383   8.490   9.671   7.317
13047WAT     H239384   8.366   9.571   7.355
13048WAT      O39385   4.843   0.366   6.857
13048WAT     H139386   4.847   0.315   6.771
13048WAT     H239387   4.767   0.431   6.853
13049WAT      O39388   2.928   8.471   0.005
13049WAT     H139389   2.898   8.378  -0.014
13049WAT     H239390   2.859   8.536  -0.026
13050WAT      O39391   9.789   7.439   9.313
13050WAT     H139392   9.815   7.415   9.407
13050WAT     H239393   9.803   7.360   9.254
13051WAT      O39394   3.401   4.103   5.861
13051WAT     H139395   3.407   4.183   5.921
13051WAT     H239396   3.444   4.124   5.773
13052WAT      O39397   2.395   3.413   7.473
13052WAT     H139398   2.414   3.503   7.513
13052WAT     H239399   2.480   3.374   7.438
13053WAT      O39400   8.170   0.496   4.959
13053WAT     H139401   8.261   0.459   4.976
13053WAT     H239402   8.108   0.470   5.034
13054WAT      O39403   2.541   3.533   8.418
13054WAT     H139404   2.569   3.437   8.419
13054WAT     H239405   2.563   3.575   8.505
13055WAT      O39406   9.415   7.124   5.004
13055WAT     H139407   9.414   7.178   5.088
13055WAT     H239408   9.370   7.036   5.020
13056WAT      O39409   3.823   6.850   0.094
13056WAT     H139410   3.791   6.780   0.158
13056WAT     H239411   3.888   6.809   0.030
13057WAT      O39412   2.897   7.351   6.580
13057WAT     H139413   2.979   7.305   6.545
13057WAT     H239414   2.832   7.284   6.615
13058WAT      O39415   1.546   8.819   7.661
13058WAT     H139416   1.577   8.782   7.573
13058WAT     H239417   1.483   8.896   7.644
13059WAT      O39418   0.617   6.003   6.368
13059WAT     H139419   0.656   6.069   6.432
13059WAT     H239420   0.594   6.049   6.282
13060WAT      O39421   4.515   4.948   9.076
13060WAT     H139422   4.580   5.024   9.086
13060WAT     H239423   4.475   4.927   9.165
13061WAT      O39424   2.345   0.293   8.496
13061WAT     H139425   2.347   0.363   8.424
13061WAT     H239426   2.299   0.330   8.577
13062WAT      O39427   3.026   3.220   4.090
13062WAT     H139428   3.003   3.134   4.045
13062WAT     H239429   3.006   3.296   4.028
13063WAT      O39430   3.100   8.308   5.303
13063WAT     H139431   3.061   8.399   5.310
13063WAT     H239432   3.080   8.269   5.213
13064WAT      O39433   9.627   9.153   8.156
13064WAT     H139434   9.716   9.115   8.182
13064WAT     H239435   9.624   9.250   8.181
13065WAT      O39436   9.087   9.297   3.279
13065WAT     H139437   9.073   9.225   3.210
13065WAT     H239438   9.154   9.265   3.346
13066WAT      O39439   5.939   3.702   7.087
13066WAT     H139440   6.024   3.739   7.124
13066WAT     H239441   5.899   3.638   7.153
13067WAT      O39442   8.800   4.339   6.644
13067WAT     H139443   8.813   4.246   6.679
13067WAT     H239444   8.888   4.374   6.612
13068WAT      O39445   7.323   1.198   3.622
13068WAT     H139446   7.332   1.196   3.523
13068WAT     H239447   7.228   1.219   3.646
13069WAT      O39448   9.168   9.357   3.984
13069WAT     H139449   9.091   9.354   4.047
13069WAT     H239450   9.134   9.355   3.890
13070WAT      O39451   3.500   3.199   5.597
13070WAT     H139452   3.423   3.242   5.643
13070WAT     H239453   3.487   3.204   5.498
13071WAT      O39454   2.952   3.335   5.991
13071WAT     H139455   2.957   3.311   5.894
13071WAT     H239456   3.044   3.335   6.030
13072WAT      O39457   6.499   1.114   5.167
13072WAT     H139458   6.558   1.034   5.171
13072WAT     H239459   6.545   1.192   5.210
13073WAT      O39460   3.458   1.536   6.046
13073WAT     H139461   3.410   1.537   5.958
13073WAT     H239462   3.543   1.588   6.037
13074WAT      O39463   8.257   9.320   5.026
13074WAT     H139464   8.254   9.232   4.978
13074WAT     H239465   8.178   9.328   5.086
13075WAT      O39466   8.652   2.171   3.138
13075WAT     H139467   8.726   2.238   3.139
13075WAT     H239468   8.595   2.182   3.219
13076WAT      O39469   3.743   0.600   9.822
13076WAT     H139470   3.721   0.524   9.883
13076WAT     H239471   3.775   0.565   9.734
13077WAT      O39472   0.704   2.643   2.527
13077WAT     H139473   0.655   2.725   2.554
13077WAT     H239474   0.741   2.654   2.435
13078WAT      O39475   1.802   8.277   3.939
13078WAT     H139476   1.765   8.294   4.031
13078WAT     H239477   1.895   8.239   3.947
13079WAT      O39478   9.655   6.911   5.980
13079WAT     H139479   9.561   6.942   5.996
13079WAT     H239480   9.671   6.900   5.882
13080WAT      O39481   7.397   2.184   3.323
13080WAT     H139482   7.470   2.231   3.372
13080WAT     H239483   7.310   2.199   3.370
13081WAT      O39484   8.435   7.841   0.593
13081WAT     H139485   8.510   7.789   0.552
13081WAT     H239486   8.348   7.808   0.556
13082WAT      O39487   6.405   2.598   5.383
13082WAT     H139488   6.476   2.536   5.415
13082WAT     H239489   6.433   2.641   5.297
13083WAT      O39490   0.493   0.689   5.075
13083WAT     H139491   0.486   0.689   4.976
13083WAT     H239492   0.462   0.778   5.110
13084WAT      O39493   4.197   3.234   4.692
13084WAT     H139494   4.142   3.179   4.755
13084WAT     H239495   4.255   3.296   4.744
13085WAT      O39496   7.557   0.500   5.102
13085WAT     H139497   7.634   0.444   5.133
13085WAT     H239498   7.544   0.576   5.165
13086WAT      O39499   1.987   7.609   6.161
13086WAT     H139500   2.026   7.519   6.183
13086WAT     H239501   1.903   7.597   6.108
13087WAT      O39502   6.814   6.785   0.829
13087WAT     H139503   6.876   6.748   0.760
13087WAT     H239504   6.782   6.712   0.889
13088WAT      O39505   5.872   4.375   3.009
13088WAT     H139506   5.816   4.296   3.032
13088WAT     H239507   5.928   4.400   3.087
13089WAT      O39508   6.586   6.599   6.434
13089WAT     H139509   6.538   6.513   6.453
13089WAT     H239510   6.635   6.628   6.515
13090WAT      O39511   4.324   1.743   0.285
13090WAT     H139512   4.399   1.739   0.218
13090WAT     H239513   4.355   1.794   0.366
13091WAT      O39514   9.074   3.824   3.628
13091WAT     H139515   9.103   3.856   3.538
13091WAT     H239516   9.120   3.738   3.649
13092WAT      O39517   8.385   3.391   4.433
13092WAT     H139518   8.375   3.436   4.521
13092WAT     H239519   8.300   3.344   4.409
13093WAT      O39520   7.208   8.425   6.029
13093WAT     H139521   7.282   8.491   6.040
13093WAT     H239522   7.240   8.334   6.054
13094WAT      O39523   7.204   1.713   6.441
13094WAT     H139524   7.110   1.748   6.435
13094WAT     H239525   7.244   1.741   6.528
13095WAT      O39526   5.274   9.133   7.033
13095WAT     H139527   5.195   9.180   7.073
13095WAT     H239528   5.296   9.052   7.088
13096WAT      O39529   0.105   4.148   8.181
13096WAT     H139530   0.199   4.179   8.197
13096WAT     H239531   0.101   4.099   8.094
13097WAT      O39532   0.966   6.935   5.350
13097WAT     H139533   0.961   6.843   5.312
13097WAT     H239534   1.046   6.941   5.410
13098WAT      O39535   3.302   1.713   6.928
13098WAT     H139536   3.373   1.643   6.922
13098WAT     H239537   3.224   1.687   6.871
13099WAT      O39538   6.428   8.799   4.244
13099WAT     H139539   6.467   8.811   4.335
13099WAT     H239540   6.329   8.784   4.251
13100WAT      O39541   0.657   3.763   5.419
13100WAT     H139542   0.661   3.715   5.332
13100WAT     H239543   0.587   3.834   5.416
13101WAT      O39544   7.698   1.038   8.433
13101WAT     H139545   7.704   1.130   8.471
13101WAT     H239546   7.618   1.031   8.373
13102WAT      O39547   6.571   8.700   5.022
13102WAT     H139548   6.641   8.678   5.091
13102WAT     H239549   6.558   8.800   5.019
13103WAT      O39550   4.515   4.269   4.514
13103WAT     H139551   4.484   4.207   4.586
13103WAT     H239552   4.458   4.258   4.433
13104WAT      O39553   4.614   6.693   5.673
13104WAT     H139554   4.710   6.693   5.643
13104WAT     H239555   4.575   6.602   5.659
13105WAT      O39556   1.158   0.038   2.300
13105WAT     H139557   1.198   0.070   2.386
13105WAT     H239558   1.087   0.102   2.270
13106WAT      O39559   4.016   3.822   7.082
13106WAT     H139560   4.086   3.778   7.137
13106WAT     H239561   4.057   3.859   6.999
13107WAT      O39562   1.517   4.406   0.461
13107WAT     H139563   1.568   4.328   0.424
13107WAT     H239564   1.432   4.417   0.411
13108WAT      O39565   9.066   2.488   7.848
13108WAT     H139566   9.121   2.513   7.927
13108WAT     H239567   8.993   2.425   7.877
13109WAT      O39568   3.264   6.087   9.536
13109WAT     H139569   3.196   6.147   9.494
13109WAT     H239570   3.355   6.125   9.521
13110WAT      O39571   7.639   3.832   1.292
13110WAT     H139572   7.717   3.883   1.255
13110WAT     H239573   7.661   3.735   1.298
13111WAT      O39574   9.532   7.296   7.448
13111WAT     H139575   9.463   7.278   7.518
13111WAT     H239576   9.503   7.375   7.393
13112WAT      O39577   0.304   2.813   2.611
13112WAT     H139578   0.269   2.851   2.697
13112WAT     H239579   0.404   2.806   2.616
13113WAT      O39580   2.185   9.449   5.586
13113WAT     H139581   2.161   9.352   5.590
13113WAT     H239582   2.282   9.459   5.566
13114WAT      O39583   2.979   4.434   9.889
13114WAT     H139584   3.070   4.404   9.859
13114WAT     H239585   2.922   4.451   9.809
13115WAT      O39586   7.428   6.898   6.488
13115WAT     H139587   7.383   6.944   6.564
13115WAT     H239588   7.384   6.924   6.402
13116WAT      O39589   9.674   8.872   2.399
13116WAT     H139590   9.753   8.812   2.388
13116WAT     H239591   9.618   8.869   2.316
13117WAT      O39592   9.169   3.363   6.262
13117WAT     H139593   9.206   3.307   6.188
13117WAT     H239594   9.192   3.321   6.350
13118WAT      O39595   8.097   1.034   8.886
13118WAT     H139596   8.086   1.004   8.981
13118WAT     H239597   8.107   0.955   8.826
13119WAT      O39598   7.652   6.834   5.888
13119WAT     H139599   7.644   6.850   5.986
13119WAT     H239600   7.591   6.759   5.862
13120WAT      O39601   4.258   5.901   9.223
13120WAT     H139602   4.307   5.851   9.152
13120WAT     H239603   4.315   5.908   9.305
13121WAT      O39604   1.727   0.052   1.720
13121WAT     H139605   1.672   0.086   1.796
13121WAT     H239606   1.706  -0.044   1.705
13122WAT      O39607   3.701   7.988   0.647
13122WAT     H139608   3.734   7.974   0.741
13122WAT     H239609   3.648   7.909   0.618
13123WAT      O39610   2.077   7.261   2.725
13123WAT     H139611   2.085   7.361   2.720
13123WAT     H239612   1.994   7.237   2.775
13124WAT      O39613   8.399   1.207   6.739
13124WAT     H139614   8.492   1.172   6.752
13124WAT     H239615   8.362   1.172   6.653
13125WAT      O39616   3.428   5.411   6.126
13125WAT     H139617   3.477   5.326   6.110
13125WAT     H239618   3.407   5.420   6.224
13126WAT      O39619   6.266   4.067   8.372
13126WAT     H139620   6.356   4.098   8.403
13126WAT     H239621   6.268   3.968   8.356
13127WAT      O39622   3.818   0.167   1.636
13127WAT     H139623   3.763   0.087   1.614
13127WAT     H239624   3.763   0.250   1.621
13128WAT      O39625   6.293   1.552   5.331
13128WAT     H139626   6.265   1.479   5.393
13128WAT     H239627   6.223   1.624   5.330
13129WAT      O39628   6.251   9.707   2.178
13129WAT     H139629   6.195   9.639   2.131
13129WAT     H239630   6.347   9.679   2.173
13130WAT      O39631   1.391   4.981   4.882
13130WAT     H139632   1.351   5.059   4.834
13130WAT     H239633   1.378   4.899   4.826
13131WAT      O39634   9.107   2.882   1.540
13131WAT     H139635   9.019   2.904   1.582
13131WAT     H239636   9.167   2.962   1.546
13132WAT      O39637   2.038   8.338   5.096
13132WAT     H139638   2.084   8.390   5.168
13132WAT     H239639   2.101   8.270   5.058
13133WAT      O39640   6.938   5.815   7.453
13133WAT     H139641   6.981   5.730   7.487
13133WAT     H239642   6.953   5.823   7.355
13134WAT      O39643   0.461   7.775   4.577
13134WAT     H139644   0.503   7.688   4.602
13134WAT     H239645   0.479   7.795   4.481
13135WAT      O39646   0.912   5.282   4.111
13135WAT     H139647   0.976   5.221   4.064
13135WAT     H239648   0.840   5.229   4.154
13136WAT      O39649   4.119   2.270   0.741
13136WAT     H139650   4.030   2.225   0.729
13136WAT     H239651   4.181   2.209   0.789
13137WAT      O39652   2.112   9.469   5.070
13137WAT     H139653   2.148   9.551   5.112
13137WAT     H239654   2.170   9.442   4.993
13138WAT      O39655   0.415   1.092   2.463
13138WAT     H139656   0.348   1.055   2.527
13138WAT     H239657   0.446   1.018   2.402
13139WAT      O39658   4.041   5.728   6.342
13139WAT     H139659   4.089   5.649   6.303
13139WAT     H239660   3.949   5.734   6.303
13140WAT      O39661   2.826   2.446   7.787
13140WAT     H139662   2.789   2.465   7.696
13140WAT     H239663   2.888   2.520   7.814
13141WAT      O39664   9.253   6.502   5.134
13141WAT     H139665   9.322   6.432   5.116
13141WAT     H239666   9.183   6.499   5.063
13142WAT      O39667   3.220   0.130   8.937
13142WAT     H139668   3.189   0.172   9.022
13142WAT     H239669   3.180   0.039   8.929
13143WAT      O39670   3.671   5.635   2.619
13143WAT     H139671   3.770   5.651   2.613
13143WAT     H239672   3.630   5.644   2.529
13144WAT      O39673   0.654   7.170   2.415
13144WAT     H139674   0.704   7.120   2.345
13144WAT     H239675   0.587   7.230   2.372
13145WAT      O39676   0.045   3.067   0.783
13145WAT     H139677  -0.001   3.142   0.735
13145WAT     H239678  -0.022   3.017   0.837
13146WAT      O39679   4.206   6.566   5.424
13146WAT     H139680   4.295   6.585   5.465
13146WAT     H239681   4.136   6.564   5.496
13147WAT      O39682   1.914   3.606   2.836
13147WAT     H139683   1.934   3.576   2.743
13147WAT     H239684   1.999   3.613   2.888
13148WAT      O39685   3.904   3.655   0.041
13148WAT     H139686   3.807   3.635   0.058
13148WAT     H239687   3.925   3.746   0.078
13149WAT      O39688   7.732   7.306   5.628
13149WAT     H139689   7.687   7.382   5.674
13149WAT     H239690   7.831   7.315   5.637
13150WAT      O39691   3.120   7.118   1.317
13150WAT     H139692   3.105   7.217   1.308
13150WAT     H239693   3.211   7.101   1.353
13151WAT      O39694   6.151   2.032   0.914
13151WAT     H139695   6.066   1.986   0.889
13151WAT     H239696   6.227   1.967   0.910
13152WAT      O39697   2.310   5.279   0.685
13152WAT     H139698   2.344   5.196   0.730
13152WAT     H239699   2.217   5.262   0.651
13153WAT      O39700   6.231   6.057   2.761
13153WAT     H139701   6.226   6.010   2.673
13153WAT     H239702   6.327   6.078   2.782
13154WAT      O39703   7.132   1.776   9.478
13154WAT     H139704   7.139   1.775   9.578
13154WAT     H239705   7.223   1.785   9.438
13155WAT      O39706   2.314   3.510   0.531
13155WAT     H139707   2.253   3.493   0.609
13155WAT     H239708   2.373   3.430   0.518
13156WAT      O39709   3.525   3.837   4.068
13156WAT     H139710   3.484   3.856   4.157
13156WAT     H239711   3.493   3.748   4.035
13157WAT      O39712   6.460   0.179   5.213
13157WAT     H139713   6.522   0.130   5.274
13157WAT     H239714   6.380   0.123   5.195
13158WAT      O39715   4.642   1.724   4.641
13158WAT     H139716   4.651   1.671   4.557
13158WAT     H239717   4.590   1.672   4.709
13159WAT      O39718   5.432   7.860   5.324
13159WAT     H139719   5.335   7.881   5.311
13159WAT     H239720   5.446   7.762   5.312
13160WAT      O39721   1.264   6.420   0.181
13160WAT     H139722   1.284   6.330   0.220
13160WAT     H239723   1.345   6.478   0.188
13161WAT      O39724   2.830   4.307   5.046
13161WAT     H139725   2.828   4.249   4.964
13161WAT     H239726   2.925   4.322   5.073
13162WAT      O39727   0.344   5.890   6.059
13162WAT     H139728   0.289   5.808   6.077
13162WAT     H239729   0.285   5.964   6.029
13163WAT      O39730   2.739   5.460   8.611
13163WAT     H139731   2.651   5.498   8.581
13163WAT     H239732   2.795   5.532   8.651
13164WAT      O39733   4.221   6.706   8.808
13164WAT     H139734   4.321   6.696   8.813
13164WAT     H239735   4.191   6.687   8.715
13165WAT      O39736   2.896   4.371   2.539
13165WAT     H139737   2.849   4.405   2.621
13165WAT     H239738   2.990   4.345   2.563
13166WAT      O39739   6.974   5.023   4.537
13166WAT     H139740   6.883   5.045   4.574
13166WAT     H239741   7.040   5.021   4.612
13167WAT      O39742   4.503   0.768   7.060
13167WAT     H139743   4.473   0.674   7.043
13167WAT     H239744   4.461   0.801   7.145
13168WAT      O39745   0.268   3.818   7.706
13168WAT     H139746   0.297   3.908   7.736
13168WAT     H239747   0.168   3.811   7.711
13169WAT      O39748   5.301   3.168   8.573
13169WAT     H139749   5.205   3.170   8.547
13169WAT     H239750   5.325   3.076   8.606
13170WAT      O39751   5.238   1.367   6.225
13170WAT     H139752   5.145   1.329   6.226
13170WAT     H239753   5.282   1.344   6.138
13171WAT      O39754   6.506   9.514   2.832
13171WAT     H139755   6.467   9.591   2.782
13171WAT     H239756   6.474   9.428   2.792
13172WAT      O39757   2.128   9.238   1.993
13172WAT     H139758   2.031   9.252   1.970
13172WAT     H239759   2.135   9.210   2.089
13173WAT      O39760   9.056   9.196   7.582
13173WAT     H139761   9.031   9.265   7.651
13173WAT     H239762   9.133   9.142   7.616
13174WAT      O39763   9.165   1.273   9.464
13174WAT     H139764   9.089   1.277   9.529
13174WAT     H239765   9.195   1.179   9.452
13175WAT      O39766   6.588   9.813   0.944
13175WAT     H139767   6.546   9.816   0.854
13175WAT     H239768   6.590   9.905   0.984
13176WAT      O39769   8.081   5.071   0.058
13176WAT     H139770   8.026   5.018   0.123
13176WAT     H239771   8.027   5.147   0.022
13177WAT      O39772   7.459   6.441   1.007
13177WAT     H139773   7.391   6.513   1.027
13177WAT     H239774   7.489   6.400   1.093
13178WAT      O39775   9.694   8.323   9.600
13178WAT     H139776   9.643   8.375   9.531
13178WAT     H239777   9.783   8.367   9.615
13179WAT      O39778   6.449   1.814   4.369
13179WAT     H139779   6.460   1.739   4.304
13179WAT     H239780   6.371   1.870   4.343
13180WAT      O39781   2.925   7.682   2.544
13180WAT     H139782   2.998   7.743   2.575
13180WAT     H239783   2.837   7.727   2.556
13181WAT      O39784   2.250   5.766   8.864
13181WAT     H139785   2.330   5.713   8.836
13181WAT     H239786   2.272   5.863   8.861
13182WAT      O39787   3.650   4.293   6.522
13182WAT     H139788   3.688   4.243   6.600
13182WAT     H239789   3.669   4.244   6.437
13183WAT      O39790   2.299   7.130   7.133
13183WAT     H139791   2.377   7.084   7.174
13183WAT     H239792   2.291   7.222   7.170
13184WAT      O39793   9.295   1.680   2.983
13184WAT     H139794   9.371   1.731   3.020
13184WAT     H239795   9.273   1.603   3.044
13185WAT      O39796   0.274   8.545   9.863
13185WAT     H139797   0.258   8.457   9.909
13185WAT     H239798   0.191   8.600   9.865
13186WAT      O39799   5.852   1.622   4.634
13186WAT     H139800   5.832   1.530   4.600
13186WAT     H239801   5.768   1.662   4.673
13187WAT      O39802   3.920   6.787   0.884
13187WAT     H139803   3.970   6.755   0.965
13187WAT     H239804   3.872   6.710   0.842
13188WAT      O39805   6.774   5.186   8.536
13188WAT     H139806   6.822   5.119   8.479
13188WAT     H239807   6.695   5.141   8.579
13189WAT      O39808   1.896   8.397   9.598
13189WAT     H139809   1.944   8.319   9.638
13189WAT     H239810   1.943   8.425   9.514
13190WAT      O39811   0.625   3.123   6.220
13190WAT     H139812   0.701   3.060   6.206
13190WAT     H239813   0.601   3.126   6.317
13191WAT      O39814   8.364   4.663   4.801
13191WAT     H139815   8.368   4.579   4.856
13191WAT     H239816   8.385   4.641   4.705
13192WAT      O39817   3.190   3.161   1.005
13192WAT     H139818   3.142   3.201   0.927
13192WAT     H239819   3.187   3.061   0.999
13193WAT      O39820   4.996   3.110   0.691
13193WAT     H139821   4.898   3.115   0.677
13193WAT     H239822   5.044   3.153   0.614
13194WAT      O39823   6.431   4.169   7.841
13194WAT     H139824   6.358   4.150   7.907
13194WAT     H239825   6.421   4.109   7.762
13195WAT      O39826   0.797   2.686   9.829
13195WAT     H139827   0.880   2.741   9.840
13195WAT     H239828   0.758   2.703   9.739
13196WAT      O39829   0.577   9.201   6.100
13196WAT     H139830   0.579   9.183   6.199
13196WAT     H239831   0.483   9.216   6.070
13197WAT      O39832   4.762   3.294   9.502
13197WAT     H139833   4.675   3.316   9.457
13197WAT     H239834   4.767   3.195   9.518
13198WAT      O39835   4.034   8.958   1.714
13198WAT     H139836   4.018   8.929   1.620
13198WAT     H239837   4.050   9.057   1.716
13199WAT      O39838   7.119   7.861   6.700
13199WAT     H139839   7.201   7.832   6.748
13199WAT     H239840   7.107   7.960   6.710
13200WAT      O39841   9.510   1.278   8.258
13200WAT     H139842   9.450   1.201   8.235
13200WAT     H239843   9.521   1.282   8.357
13201WAT      O39844   7.198   5.286   1.816
13201WAT     H139845   7.282   5.336   1.837
13201WAT     H239846   7.150   5.264   1.900
13202WAT      O39847   5.710   3.817   2.351
13202WAT     H139848   5.621   3.771   2.360
13202WAT     H239849   5.782   3.748   2.341
13203WAT      O39850   4.513   6.434   2.693
13203WAT     H139851   4.487   6.395   2.782
13203WAT     H239852   4.611   6.454   2.693
13204WAT      O39853   6.162   8.796   7.992
13204WAT     H139854   6.116   8.822   7.907
13204WAT     H239855   6.115   8.717   8.031
13205WAT      O39856   4.230   8.538   0.847
13205WAT     H139857   4.197   8.490   0.765
13205WAT     H239858   4.211   8.482   0.928
13206WAT      O39859   4.582   1.966   7.840
13206WAT     H139860   4.525   1.982   7.920
13206WAT     H239861   4.665   1.918   7.867
13207WAT      O39862   7.803   7.231   2.311
13207WAT     H139863   7.726   7.184   2.354
13207WAT     H239864   7.787   7.330   2.313
13208WAT      O39865   2.266   6.950   0.465
13208WAT     H139866   2.308   7.007   0.395
13208WAT     H239867   2.327   6.944   0.544
13209WAT      O39868   1.026   8.036   2.345
13209WAT     H139869   1.030   8.111   2.279
13209WAT     H239870   1.096   7.968   2.323
13210WAT      O39871   2.367   7.944   9.703
13210WAT     H139872   2.378   7.884   9.624
13210WAT     H239873   2.358   7.889   9.786
13211WAT      O39874   8.814   6.001   2.607
13211WAT     H139875   8.831   5.908   2.574
13211WAT     H239876   8.718   6.009   2.635
13212WAT      O39877   6.617   0.489   7.941
13212WAT     H139878   6.554   0.547   7.993
13212WAT     H239879   6.644   0.537   7.857
13213WAT      O39880   7.178   4.786   8.770
13213WAT     H139881   7.161   4.853   8.697
13213WAT     H239882   7.105   4.792   8.838
13214WAT      O39883   4.933   8.357   4.787
13214WAT     H139884   4.839   8.335   4.811
13214WAT     H239885   4.986   8.273   4.777
13215WAT      O39886   1.635   1.594   8.329
13215WAT     H139887   1.584   1.525   8.277
13215WAT     H239888   1.674   1.661   8.266
13216WAT      O39889   4.541   3.718   0.540
13216WAT     H139890   4.585   3.684   0.456
13216WAT     H239891   4.524   3.816   0.531
13217WAT      O39892   9.844   9.409   0.473
13217WAT     H139893   9.832   9.501   0.437
13217WAT     H239894   9.761   9.356   0.458
13218WAT      O39895   6.849   0.591   6.258
13218WAT     H139896   6.903   0.646   6.323
13218WAT     H239897   6.877   0.612   6.165
13219WAT      O39898   8.466   6.339   8.377
13219WAT     H139899   8.377   6.307   8.411
13219WAT     H239900   8.463   6.345   8.278
13220WAT      O39901   2.074   1.248   1.577
13220WAT     H139902   2.141   1.322   1.565
13220WAT     H239903   2.028   1.259   1.664
13221WAT      O39904   5.834   2.874   4.775
13221WAT     H139905   5.748   2.922   4.759
13221WAT     H239906   5.903   2.906   4.709
13222WAT      O39907   2.700   1.078   1.736
13222WAT     H139908   2.648   0.994   1.720
13222WAT     H239909   2.772   1.087   1.667
13223WAT      O39910   2.432   8.372   6.689
13223WAT     H139911   2.401   8.466   6.681
13223WAT     H239912   2.448   8.350   6.786
13224WAT      O39913   6.086   7.943   7.811
13224WAT     H139914   6.151   7.867   7.815
13224WAT     H239915   5.994   7.909   7.831
13225WAT      O39916   0.729   6.994   8.913
13225WAT     H139917   0.796   6.947   8.971
13225WAT     H239918   0.699   6.933   8.840
13226WAT      O39919   9.886   1.378   6.529
13226WAT     H139920   9.796   1.355   6.491
13226WAT     H239921   9.954   1.313   6.496
13227WAT      O39922   5.697   0.039   0.563
13227WAT     H139923   5.767   0.076   0.625
13227WAT     H239924   5.740   0.013   0.477
13228WAT      O39925   6.380   5.328   2.214
13228WAT     H139926   6.364   5.331   2.116
13228WAT     H239927   6.432   5.245   2.236
13229WAT      O39928   3.620   7.784   6.498
13229WAT     H139929   3.581   7.831   6.578
13229WAT     H239930   3.701   7.734   6.526
13230WAT      O39931   0.762   8.566   6.691
13230WAT     H139932   0.679   8.588   6.743
13230WAT     H239933   0.756   8.474   6.654
13231WAT      O39934   9.375   6.354   1.637
13231WAT     H139935   9.431   6.389   1.713
13231WAT     H239936   9.279   6.361   1.661
13232WAT      O39937   1.461   1.153   5.811
13232WAT     H139938   1.478   1.069   5.761
13232WAT     H239939   1.531   1.165   5.882
13233WAT      O39940   0.085   8.651   4.023
13233WAT     H139941   0.156   8.635   3.955
13233WAT     H239942   0.113   8.609   4.110
13234WAT      O39943   3.573   6.766   6.831
13234WAT     H139944   3.503   6.785   6.762
13234WAT     H239945   3.537   6.699   6.896
13235WAT      O39946   0.052   2.303   1.048
13235WAT     H139947   0.122   2.254   1.099
13235WAT     H239948  -0.029   2.246   1.038
13236WAT      O39949   0.673   8.091   5.168
13236WAT     H139950   0.672   8.189   5.187
13236WAT     H239951   0.579   8.055   5.169
13237WAT      O39952   7.223   0.522   0.257
13237WAT     H139953   7.141   0.532   0.313
13237WAT     H239954   7.221   0.433   0.210
13238WAT      O39955   4.190   8.365   6.256
13238WAT     H139956   4.179   8.288   6.193
13238WAT     H239957   4.154   8.448   6.214
13239WAT      O39958   8.118   9.003   2.750
13239WAT     H139959   8.125   9.097   2.785
13239WAT     H239960   8.145   9.001   2.654
13240WAT      O39961   9.047   6.324   2.764
13240WAT     H139962   9.107   6.302   2.842
13240WAT     H239963   9.098   6.376   2.696
13241WAT      O39964   4.327   3.417   5.357
13241WAT     H139965   4.426   3.416   5.367
13241WAT     H239966   4.303   3.427   5.260
13242WAT      O39967   1.249   4.504   6.884
13242WAT     H139968   1.204   4.566   6.820
13242WAT     H239969   1.299   4.556   6.953
13243WAT      O39970   4.644   1.962   6.471
13243WAT     H139971   4.548   1.975   6.444
13243WAT     H239972   4.692   1.910   6.401
13244WAT      O39973   6.012   9.188   0.672
13244WAT     H139974   6.104   9.192   0.633
13244WAT     H239975   6.019   9.176   0.771
13245WAT      O39976   4.819   1.090   6.790
13245WAT     H139977   4.905   1.055   6.754
13245WAT     H239978   4.760   1.014   6.816
13246WAT      O39979   4.397   7.914   6.772
13246WAT     H139980   4.370   7.970   6.850
13246WAT     H239981   4.391   7.967   6.688
13247WAT      O39982   7.801   4.241   9.276
13247WAT     H139983   7.792   4.307   9.202
13247WAT     H239984   7.898   4.230   9.299
13248WAT      O39985   8.437   6.889   5.483
13248WAT     H139986   8.407   6.859   5.392
13248WAT     H239987   8.474   6.982   5.476
13249WAT      O39988   7.736   5.138   1.841
13249WAT     H139989   7.753   5.130   1.743
13249WAT     H239990   7.647   5.098   1.863
13250WAT      O39991   9.650   7.766   5.976
13250WAT     H139992   9.646   7.861   6.007
13250WAT     H239993   9.664   7.763   5.877
13251WAT      O39994   0.596   1.850   7.186
13251WAT     H139995   0.539   1.805   7.117
13251WAT     H239996   0.693   1.840   7.162
13252WAT      O39997   9.703   7.041   1.039
13252WAT     H139998   9.710   6.941   1.038
13252WAT     H239999   9.762   7.078   1.111
13253WAT      O40000   1.304   0.301   5.231
13253WAT     H140001   1.372   0.357   5.278
13253WAT     H240002   1.268   0.233   5.295
13254WAT      O40003   8.402   8.525   4.504
13254WAT     H140004   8.315   8.554   4.465
13254WAT     H240005   8.444   8.455   4.446
13255WAT      O40006   1.643   2.010   4.152
13255WAT     H140007   1.739   2.016   4.127
13255WAT     H240008   1.609   1.918   4.131
13256WAT      O40009   5.003   0.190   4.708
13256WAT     H140010   5.089   0.203   4.759
13256WAT     H240011   5.022   0.196   4.610
13257WAT      O40012   6.783   3.585   5.100
13257WAT     H140013   6.864   3.567   5.045
13257WAT     H240014   6.764   3.683   5.101
13258WAT      O40015   8.410   6.401   2.981
13258WAT     H140016   8.492   6.457   2.994
13258WAT     H240017   8.343   6.453   2.927
13259WAT      O40018   2.574   8.453   4.038
13259WAT     H140019   2.656   8.492   3.997
13259WAT     H240020   2.550   8.505   4.121
13260WAT      O40021   2.957   8.276   1.809
13260WAT     H140022   3.041   8.329   1.816
13260WAT     H240023   2.979   8.178   1.808
13261WAT      O40024   8.640   0.749   3.435
13261WAT     H140025   8.602   0.771   3.345
13261WAT     H240026   8.738   0.730   3.426
13262WAT      O40027   2.440   8.510   9.655
13262WAT     H140028   2.482   8.429   9.613
13262WAT     H240029   2.341   8.507   9.642
13263WAT      O40030   1.851   5.261   4.626
13263WAT     H140031   1.938   5.308   4.638
13263WAT     H240032   1.814   5.236   4.716
13264WAT      O40033   3.700   8.258   4.261
13264WAT     H140034   3.753   8.231   4.181
13264WAT     H240035   3.757   8.312   4.323
13265WAT      O40036   2.959   1.110   1.898
13265WAT     H140037   2.927   1.150   1.984
13265WAT     H240038   2.885   1.058   1.856
13266WAT      O40039   2.036   2.996   3.918
13266WAT     H140040   2.004   2.986   3.823
13266WAT     H240041   1.956   3.006   3.978
13267WAT      O40042   4.700   0.426   4.375
13267WAT     H140043   4.600   0.423   4.381
13267WAT     H240044   4.730   0.522   4.374
13268WAT      O40045   9.724   8.621   6.435
13268WAT     H140046   9.714   8.534   6.485
13268WAT     H240047   9.635   8.666   6.429
13269WAT      O40048   1.790   9.124   4.952
13269WAT     H140049   1.784   9.057   5.027
13269WAT     H240050   1.796   9.216   4.990
13270WAT      O40051   4.930   9.456   5.671
13270WAT     H140052   4.861   9.498   5.613
13270WAT     H240053   4.892   9.375   5.716
13271WAT      O40054   6.550   8.234   6.124
13271WAT     H140055   6.458   8.194   6.125
13271WAT     H240056   6.608   8.182   6.061
13272WAT      O40057   1.251   0.958   6.569
13272WAT     H140058   1.320   1.020   6.607
13272WAT     H240059   1.161   0.983   6.604
13273WAT      O40060   0.842   2.533   3.949
13273WAT     H140061   0.782   2.472   3.897
13273WAT     H240062   0.833   2.626   3.914
13274WAT      O40063   3.103   8.392   7.303
13274WAT     H140064   3.062   8.479   7.277
13274WAT     H240065   3.194   8.408   7.341
13275WAT      O40066   5.933   5.366   2.354
13275WAT     H140067   5.972   5.283   2.393
13275WAT     H240068   5.873   5.343   2.277
13276WAT      O40069   1.552   8.403   1.969
13276WAT     H140070   1.557   8.304   1.984
13276WAT     H240071   1.557   8.450   2.057
13277WAT      O40072   2.641   3.020   3.220
13277WAT     H140073   2.652   3.066   3.132
13277WAT     H240074   2.566   3.062   3.271
13278WAT      O40075   6.703   6.884   8.646
13278WAT     H140076   6.735   6.979   8.648
13278WAT     H240077   6.604   6.882   8.657
13279WAT      O40078   1.983   3.426   4.209
13279WAT     H140079   2.077   3.401   4.184
13279WAT     H240080   1.945   3.355   4.268
13280WAT      O40081   8.747   5.531   4.928
13280WAT     H140082   8.706   5.458   4.982
13280WAT     H240083   8.829   5.565   4.974
13281WAT      O40084   5.546   2.043   3.249
13281WAT     H140085   5.612   2.037   3.324
13281WAT     H240086   5.593   2.073   3.166
13282WAT      O40087   2.820   4.846   1.231
13282WAT     H140088   2.756   4.872   1.159
13282WAT     H240089   2.811   4.910   1.308
13283WAT      O40090   9.417   8.143   5.665
13283WAT     H140091   9.417   8.235   5.624
13283WAT     H240092   9.329   8.099   5.649
13284WAT      O40093   1.008   5.462   2.442
13284WAT     H140094   1.047   5.489   2.354
13284WAT     H240095   0.994   5.543   2.499
13285WAT      O40096   5.128   4.373   8.418
13285WAT     H140097   5.200   4.325   8.367
13285WAT     H240098   5.063   4.306   8.453
13286WAT      O40099   5.670   3.077   9.480
13286WAT     H140100   5.749   3.022   9.452
13286WAT     H240101   5.683   3.172   9.451
13287WAT      O40102   2.320   9.472   3.876
13287WAT     H140103   2.359   9.550   3.828
13287WAT     H240104   2.316   9.393   3.814
13288WAT      O40105   2.529   3.710   4.247
13288WAT     H140106   2.494   3.755   4.329
13288WAT     H240107   2.594   3.771   4.201
13289WAT      O40108   2.805   0.769   5.073
13289WAT     H140109   2.707   0.779   5.091
13289WAT     H240110   2.829   0.822   4.991
13290WAT      O40111   6.432   7.546   1.178
13290WAT     H140112   6.349   7.492   1.193
13290WAT     H240113   6.430   7.627   1.237
13291WAT      O40114   8.125   5.230   3.729
13291WAT     H140115   8.057   5.206   3.799
13291WAT     H240116   8.082   5.285   3.658
13292WAT      O40117   6.738   4.124   3.773
13292WAT     H140118   6.692   4.068   3.704
13292WAT     H240119   6.706   4.219   3.766
13293WAT      O40120   5.447   3.040   9.637
13293WAT     H140121   5.428   2.952   9.593
13293WAT     H240122   5.538   3.072   9.610
13294WAT      O40123   5.235   9.228   2.151
13294WAT     H140124   5.260   9.285   2.229
13294WAT     H240125   5.231   9.132   2.179
13295WAT      O40126   9.110   8.487   7.607
13295WAT     H140127   9.139   8.395   7.579
13295WAT     H240128   9.017   8.482   7.643
13296WAT      O40129   3.623   1.284   7.620
13296WAT     H140130   3.563   1.235   7.683
13296WAT     H240131   3.718   1.255   7.635
13297WAT      O40132   9.000   9.833   6.472
13297WAT     H140133   9.022   9.789   6.559
13297WAT     H240134   9.052   9.790   6.399
13298WAT      O40135   5.402   7.271   0.615
13298WAT     H140136   5.450   7.208   0.675
13298WAT     H240137   5.385   7.226   0.527
13299WAT      O40138   1.454   5.139   9.433
13299WAT     H140139   1.554   5.151   9.430
13299WAT     H240140   1.415   5.156   9.343
13300WAT      O40141   4.018   9.556   2.119
13300WAT     H140142   4.011   9.649   2.082
13300WAT     H240143   4.114   9.534   2.137
13301WAT      O40144   1.822   5.454   9.251
13301WAT     H140145   1.889   5.466   9.324
13301WAT     H240146   1.741   5.509   9.270
13302WAT      O40147   0.845   3.280   2.324
13302WAT     H140148   0.891   3.219   2.389
13302WAT     H240149   0.805   3.226   2.250
13303WAT      O40150   5.084   8.029   2.152
13303WAT     H140151   5.010   7.972   2.187
13303WAT     H240152   5.172   7.992   2.182
13304WAT      O40153   5.527   2.711   4.807
13304WAT     H140154   5.458   2.756   4.750
13304WAT     H240155   5.538   2.763   4.892
13305WAT      O40156   7.433   9.655   2.318
13305WAT     H140157   7.500   9.698   2.379
13305WAT     H240158   7.419   9.714   2.239
13306WAT      O40159   0.712   0.608   4.603
13306WAT     H140160   0.774   0.686   4.612
13306WAT     H240161   0.696   0.568   4.694
13307WAT      O40162   4.503   3.297   1.812
13307WAT     H140163   4.428   3.232   1.827
13307WAT     H240164   4.497   3.333   1.719
13308WAT      O40165   2.507   5.179   8.593
13308WAT     H140166   2.520   5.159   8.496
13308WAT     H240167   2.592   5.217   8.630
13309WAT      O40168   4.607   3.433   6.593
13309WAT     H140169   4.623   3.491   6.673
13309WAT     H240170   4.509   3.415   6.584
13310WAT      O40171   2.642   9.407   3.935
13310WAT     H140172   2.585   9.406   4.017
13310WAT     H240173   2.649   9.314   3.898
13311WAT      O40174   8.402   4.066   3.354
13311WAT     H140175   8.490   4.112   3.360
13311WAT     H240176   8.329   4.134   3.354
13312WAT      O40177   7.142   8.208   2.796
13312WAT     H140178   7.061   8.164   2.834
13312WAT     H240179   7.222   8.150   2.810
13313WAT      O40180   4.310   8.679   8.320
13313WAT     H140181   4.378   8.633   8.377
13313WAT     H240182   4.356   8.739   8.254
13314WAT      O40183   8.016   4.810   4.665
13314WAT     H140184   7.943   4.876   4.647
13314WAT     H240185   8.008   4.733   4.602
13315WAT      O40186   0.575   8.697   4.258
13315WAT     H140187   0.498   8.709   4.320
13315WAT     H240188   0.656   8.670   4.309
13316WAT      O40189   8.293   1.737   8.650
13316WAT     H140190   8.368   1.692   8.697
13316WAT     H240191   8.226   1.770   8.718
13317WAT      O40192   9.845   9.117   1.493
13317WAT     H140193   9.932   9.164   1.508
13317WAT     H240194   9.829   9.109   1.394
13318WAT      O40195   7.328   8.893   9.370
13318WAT     H140196   7.379   8.818   9.330
13318WAT     H240197   7.389   8.970   9.387
13319WAT      O40198   6.186   4.224   9.079
13319WAT     H140199   6.139   4.191   9.161
13319WAT     H240200   6.119   4.252   9.010
13320WAT      O40201   8.064   8.819   6.829
13320WAT     H140202   8.089   8.839   6.924
13320WAT     H240203   8.086   8.724   6.808
13321WAT      O40204   1.033   8.179   8.145
13321WAT     H140205   1.064   8.149   8.235
13321WAT     H240206   1.068   8.270   8.126
13322WAT      O40207   4.054   8.935   3.854
13322WAT     H140208   4.092   8.999   3.788
13322WAT     H240209   3.958   8.916   3.831
13323WAT      O40210   9.576   5.996   5.363
13323WAT     H140211   9.478   6.010   5.372
13323WAT     H240212   9.621   6.023   5.448
13324WAT      O40213   4.716   0.902   4.381
13324WAT     H140214   4.704   0.911   4.480
13324WAT     H240215   4.630   0.922   4.334
13325WAT      O40216   5.460   9.459   5.718
13325WAT     H140217   5.507   9.391   5.663
13325WAT     H240218   5.514   9.544   5.720
13326WAT      O40219   0.876   1.876   7.412
13326WAT     H140220   0.891   1.796   7.471
13326WAT     H240221   0.887   1.849   7.317
13327WAT      O40222   5.945   4.467   3.483
13327WAT     H140223   5.919   4.561   3.504
13327WAT     H240224   5.967   4.460   3.385
13328WAT      O40225   4.269   8.824   5.203
13328WAT     H140226   4.268   8.876   5.118
13328WAT     H240227   4.292   8.729   5.183
13329WAT      O40228   2.554   2.568   4.764
13329WAT     H140229   2.510   2.490   4.718
13329WAT     H240230   2.491   2.645   4.767
13330WAT      O40231   2.326   6.832   5.442
13330WAT     H140232   2.383   6.845   5.523
13330WAT     H240233   2.301   6.736   5.434
13331WAT      O40234   8.015   9.514   1.585
13331WAT     H140235   8.080   9.529   1.659
13331WAT     H240236   7.948   9.446   1.614
13332WAT      O40237   3.799   5.133   4.423
13332WAT     H140238   3.864   5.111   4.496
13332WAT     H240239   3.731   5.197   4.458
13333WAT      O40240   1.806   2.431   7.082
13333WAT     H140241   1.719   2.407   7.125
13333WAT     H240242   1.789   2.475   6.994
13334WAT      O40243   2.029   0.498   8.249
13334WAT     H140244   2.000   0.570   8.311
13334WAT     H240245   1.965   0.492   8.172
13335WAT      O40246   6.481   4.161   2.956
13335WAT     H140247   6.411   4.203   3.014
13335WAT     H240248   6.461   4.064   2.945
13336WAT      O40249   3.325   4.082   4.494
13336WAT     H140250   3.225   4.085   4.494
13336WAT     H240251   3.356   4.006   4.551
13337WAT      O40252   1.367   2.437   8.091
13337WAT     H140253   1.290   2.482   8.045
13337WAT     H240254   1.452   2.484   8.067
13338WAT      O40255   6.777   7.001   6.689
13338WAT     H140256   6.723   7.085   6.693
13338WAT     H240257   6.856   7.009   6.750
13339WAT      O40258   2.165   1.775   1.463
13339WAT     H140259   2.096   1.728   1.518
13339WAT     H240260   2.256   1.754   1.498
13340WAT      O40261   5.949   7.940   3.249
13340WAT     H140262   5.863   7.980   3.280
13340WAT     H240263   5.940   7.840   3.247
13341WAT      O40264   5.471   1.258   9.731
13341WAT     H140265   5.447   1.290   9.640
13341WAT     H240266   5.570   1.260   9.742
13342WAT      O40267   2.546   5.990   9.336
13342WAT     H140268   2.522   6.008   9.432
13342WAT     H240269   2.469   5.944   9.291
13343WAT      O40270   3.667   5.616   1.648
13343WAT     H140271   3.594   5.624   1.580
13343WAT     H240272   3.749   5.578   1.604
13344WAT      O40273   5.318   1.852   3.854
13344WAT     H140274   5.348   1.834   3.761
13344WAT     H240275   5.219   1.836   3.860
13345WAT      O40276   3.124   0.162   0.084
13345WAT     H140277   3.132   0.069   0.121
13345WAT     H240278   3.133   0.228   0.159
13346WAT      O40279   9.538   9.647   6.933
13346WAT     H140280   9.533   9.738   6.975
13346WAT     H240281   9.607   9.592   6.980
13347WAT      O40282   9.536   8.381   4.975
13347WAT     H140283   9.545   8.291   4.933
13347WAT     H240284   9.607   8.442   4.939
13348WAT      O40285   9.502   6.050   2.453
13348WAT     H140286   9.564   5.983   2.494
13348WAT     H240287   9.466   6.014   2.367
13349WAT      O40288   8.423   1.311   1.201
13349WAT     H140289   8.424   1.232   1.263
13349WAT     H240290   8.448   1.394   1.252
13350WAT      O40291   2.152   4.115   7.738
13350WAT     H140292   2.228   4.157   7.688
13350WAT     H240293   2.121   4.178   7.810
13351WAT      O40294   7.022   7.606   0.165
13351WAT     H140295   6.956   7.530   0.174
13351WAT     H240296   6.997   7.662   0.086
13352WAT      O40297   5.602   8.623   0.542
13352WAT     H140298   5.652   8.683   0.481
13352WAT     H240299   5.531   8.574   0.491
13353WAT      O40300   5.909   7.213   3.558
13353WAT     H140301   5.866   7.178   3.641
13353WAT     H240302   5.986   7.154   3.534
13354WAT      O40303   7.780   6.928   5.660
13354WAT     H140304   7.693   6.954   5.618
13354WAT     H240305   7.763   6.894   5.753
13355WAT      O40306   8.220   7.865   4.540
13355WAT     H140307   8.185   7.841   4.449
13355WAT     H240308   8.317   7.888   4.533
13356WAT      O40309   1.919   8.930   9.518
13356WAT     H140310   1.973   9.012   9.538
13356WAT     H240311   1.827   8.957   9.489
13357WAT      O40312   9.364   1.902   8.950
13357WAT     H140313   9.381   1.998   8.971
13357WAT     H240314   9.296   1.865   9.012
13358WAT      O40315   7.910   1.476   7.335
13358WAT     H140316   7.931   1.501   7.241
13358WAT     H240317   7.986   1.502   7.394
13359WAT      O40318   3.608   1.530   1.523
13359WAT     H140319   3.581   1.436   1.541
13359WAT     H240320   3.599   1.549   1.425
13360WAT      O40321   6.268   8.387   6.254
13360WAT     H140322   6.232   8.447   6.183
13360WAT     H240323   6.277   8.294   6.218
13361WAT      O40324   1.025   6.086   0.020
13361WAT     H140325   1.076   6.001   0.013
13361WAT     H240326   1.038   6.140  -0.063
13362WAT      O40327   3.566   1.384   2.773
13362WAT     H140328   3.615   1.425   2.696
13362WAT     H240329   3.566   1.285   2.764
13363WAT      O40330   7.724   9.761   7.166
13363WAT     H140331   7.748   9.827   7.094
13363WAT     H240332   7.629   9.775   7.193
13364WAT      O40333   6.407   2.487   6.721
13364WAT     H140334   6.365   2.423   6.657
13364WAT     H240335   6.499   2.511   6.689
13365WAT      O40336   4.306   1.408   3.267
13365WAT     H140337   4.388   1.402   3.211
13365WAT     H240338   4.328   1.380   3.361
13366WAT      O40339   0.597   5.727   7.578
13366WAT     H140340   0.544   5.812   7.580
13366WAT     H240341   0.549   5.658   7.525
13367WAT      O40342   1.250   5.834   9.672
13367WAT     H140343   1.292   5.746   9.653
13367WAT     H240344   1.209   5.832   9.763
13368WAT      O40345   5.404   9.440   6.710
13368WAT     H140346   5.478   9.497   6.674
13368WAT     H240347   5.324   9.448   6.650
13369WAT      O40348   8.828   3.563   9.769
13369WAT     H140349   8.872   3.570   9.680
13369WAT     H240350   8.878   3.620   9.835
13370WAT      O40351   9.264   4.422   9.722
13370WAT     H140352   9.308   4.388   9.805
13370WAT     H240353   9.295   4.515   9.704
13371WAT      O40354   0.316   2.839   9.017
13371WAT     H140355   0.330   2.938   9.012
13371WAT     H240356   0.223   2.821   9.050
13372WAT      O40357   2.887   1.254   4.580
13372WAT     H140358   2.976   1.285   4.546
13372WAT     H240359   2.876   1.280   4.676
13373WAT      O40360   0.953   3.090   8.033
13373WAT     H140361   0.866   3.044   8.045
13373WAT     H240362   0.994   3.062   7.945
13374WAT      O40363   9.688   4.852   7.780
13374WAT     H140364   9.655   4.887   7.692
13374WAT     H240365   9.778   4.811   7.768
13375WAT      O40366   7.064   2.827   4.148
13375WAT     H140367   7.049   2.835   4.246
13375WAT     H240368   6.979   2.847   4.099
13376WAT      O40369   6.796   0.863   8.436
13376WAT     H140370   6.823   0.788   8.375
13376WAT     H240371   6.810   0.836   8.531
13377WAT      O40372   5.998   7.146   6.075
13377WAT     H140373   5.898   7.143   6.070
13377WAT     H240374   6.026   7.226   6.128
13378WAT      O40375   5.336   8.670   7.244
13378WAT     H140376   5.422   8.692   7.200
13378WAT     H240377   5.348   8.590   7.304
13379WAT      O40378   4.023   4.435   6.790
13379WAT     H140379   3.958   4.509   6.772
13379WAT     H240380   3.995   4.352   6.743
13380WAT      O40381   2.727   1.961   4.535
13380WAT     H140382   2.732   2.057   4.508
13380WAT     H240383   2.819   1.925   4.552
13381WAT      O40384   1.162   6.923   7.733
13381WAT     H140385   1.162   7.003   7.793
13381WAT     H240386   1.132   6.843   7.785
13382WAT      O40387   1.337   8.215   7.600
13382WAT     H140388   1.368   8.179   7.688
13382WAT     H240389   1.302   8.308   7.613
13383WAT      O40390   3.319   3.779   7.598
13383WAT     H140391   3.344   3.761   7.694
13383WAT     H240392   3.399   3.763   7.540
13384WAT      O40393   2.322   1.805   4.128
13384WAT     H140394   2.249   1.795   4.195
13384WAT     H240395   2.401   1.849   4.170
13385WAT      O40396   9.556   2.600   0.882
13385WAT     H140397   9.499   2.639   0.809
13385WAT     H240398   9.573   2.503   0.862
13386WAT      O40399   7.257   4.024   5.977
13386WAT     H140400   7.321   4.087   5.933
13386WAT     H240401   7.215   3.965   5.908
13387WAT      O40402   7.037   8.495   3.152
13387WAT     H140403   7.017   8.538   3.240
13387WAT     H240404   6.957   8.442   3.122
13388WAT      O40405   9.286   7.255   2.809
13388WAT     H140406   9.237   7.329   2.763
13388WAT     H240407   9.304   7.182   2.743
13389WAT      O40408   7.771   1.459   3.891
13389WAT     H140409   7.746   1.540   3.838
13389WAT     H240410   7.771   1.379   3.831
13390WAT      O40411   7.883   9.713   3.502
13390WAT     H140412   7.849   9.626   3.536
13390WAT     H240413   7.824   9.787   3.535
13391WAT      O40414   7.148   4.306   8.451
13391WAT     H140415   7.141   4.338   8.545
13391WAT     H240416   7.058   4.310   8.407
13392WAT      O40417   5.030   8.959   7.782
13392WAT     H140418   5.104   9.026   7.787
13392WAT     H240419   5.065   8.869   7.809
13393WAT      O40420   9.526   6.702   4.938
13393WAT     H140421   9.591   6.762   4.890
13393WAT     H240422   9.574   6.621   4.971
13394WAT      O40423   5.928   1.096   8.268
13394WAT     H140424   5.853   1.140   8.219
13394WAT     H240425   5.907   1.000   8.285
13395WAT      O40426   6.648   0.300   8.628
13395WAT     H140427   6.746   0.292   8.645
13395WAT     H240428   6.600   0.312   8.715
13396WAT      O40429   2.127   1.655   1.747
13396WAT     H140430   2.148   1.595   1.824
13396WAT     H240431   2.149   1.609   1.662
13397WAT      O40432   4.287   9.077   3.947
13397WAT     H140433   4.206   9.019   3.952
13397WAT     H240434   4.369   9.019   3.942
13398WAT      O40435   7.141   5.424   2.294
13398WAT     H140436   7.097   5.471   2.217
13398WAT     H240437   7.088   5.440   2.377
13399WAT      O40438   9.007   1.951   2.974
13399WAT     H140439   9.025   1.913   3.065
13399WAT     H240440   9.024   1.881   2.905
13400WAT      O40441   6.971   0.736   9.163
13400WAT     H140442   7.070   0.741   9.147
13400WAT     H240443   6.933   0.659   9.111
13401WAT      O40444   8.476   5.884   6.260
13401WAT     H140445   8.560   5.833   6.280
13401WAT     H240446   8.500   5.976   6.229
13402WAT      O40447   8.071   8.991   6.618
13402WAT     H140448   8.089   9.070   6.676
13402WAT     H240449   8.068   8.908   6.675
13403WAT      O40450   1.027   8.311   9.208
13403WAT     H140451   0.982   8.222   9.208
13403WAT     H240452   1.119   8.302   9.170
13404WAT      O40453   5.252   9.235   9.782
13404WAT     H140454   5.351   9.231   9.789
13404WAT     H240455   5.217   9.313   9.834
13405WAT      O40456   6.207   3.264   2.006
13405WAT     H140457   6.115   3.233   2.028
13405WAT     H240458   6.203   3.337   1.938
13406WAT      O40459   3.422   2.146   8.646
13406WAT     H140460   3.507   2.189   8.616
13406WAT     H240461   3.374   2.109   8.567
13407WAT      O40462   3.987   3.814   2.993
13407WAT     H140463   4.049   3.840   3.067
13407WAT     H240464   3.926   3.741   3.026
13408WAT      O40465   1.481   2.878   6.187
13408WAT     H140466   1.516   2.880   6.281
13408WAT     H240467   1.413   2.951   6.176
13409WAT      O40468   3.352   6.004   3.739
13409WAT     H140469   3.306   5.944   3.673
13409WAT     H240470   3.326   6.099   3.721
13410WAT      O40471   7.463   0.338   7.861
13410WAT     H140472   7.406   0.264   7.896
13410WAT     H240473   7.534   0.359   7.929
13411WAT      O40474   5.162   2.637   2.023
13411WAT     H140475   5.161   2.558   1.961
13411WAT     H240476   5.075   2.641   2.073
13412WAT      O40477   8.163   6.424   1.629
13412WAT     H140478   8.157   6.511   1.580
13412WAT     H240479   8.071   6.392   1.652
13413WAT      O40480   8.709   7.467   3.368
13413WAT     H140481   8.734   7.522   3.288
13413WAT     H240482   8.649   7.520   3.428
13414WAT      O40483   6.941   2.408   0.099
13414WAT     H140484   6.946   2.339   0.027
13414WAT     H240485   6.937   2.499   0.058
13415WAT      O40486   7.782   8.715   8.168
13415WAT     H140487   7.781   8.639   8.233
13415WAT     H240488   7.869   8.763   8.174
13416WAT      O40489   0.493   3.521   6.909
13416WAT     H140490   0.488   3.429   6.949
13416WAT     H240491   0.572   3.526   6.848
13417WAT      O40492   6.369   6.054   2.208
13417WAT     H140493   6.371   5.977   2.144
13417WAT     H240494   6.389   6.139   2.159
13418WAT      O40495   5.444   6.430   4.299
13418WAT     H140496   5.540   6.439   4.327
13418WAT     H240497   5.436   6.361   4.227
13419WAT      O40498   7.206   1.157   5.785
13419WAT     H140499   7.140   1.232   5.791
13419WAT     H240500   7.270   1.176   5.711
13420WAT      O40501   6.967   9.688   2.045
13420WAT     H140502   6.882   9.726   2.081
13420WAT     H240503   7.007   9.627   2.114
13421WAT      O40504   0.036   2.962   0.046
13421WAT     H140505   0.095   3.010   0.111
13421WAT     H240506  -0.049   3.013   0.034
13422WAT      O40507   6.065   0.782   6.039
13422WAT     H140508   6.059   0.774   5.940
13422WAT     H240509   6.104   0.699   6.078
13423WAT      O40510   7.341   5.750   2.680
13423WAT     H140511   7.399   5.669   2.672
13423WAT     H240512   7.259   5.738   2.624
13424WAT      O40513   8.361   8.436   8.378
13424WAT     H140514   8.272   8.457   8.417
13424WAT     H240515   8.353   8.427   8.279
13425WAT      O40516   9.863   1.503   3.313
13425WAT     H140517   9.764   1.504   3.324
13425WAT     H240518   9.886   1.464   3.224
13426WAT      O40519   5.774   4.886   0.141
13426WAT     H140520   5.851   4.841   0.096
13426WAT     H240521   5.777   4.868   0.239
13427WAT      O40522   2.676   0.754   4.442
13427WAT     H140523   2.629   0.674   4.478
13427WAT     H240524   2.763   0.725   4.401
13428WAT      O40525   4.598   5.972   1.772
13428WAT     H140526   4.601   6.038   1.847
13428WAT     H240527   4.624   6.018   1.687
13429WAT      O40528   7.255   2.287   2.432
13429WAT     H140529   7.246   2.295   2.333
13429WAT     H240530   7.311   2.208   2.455
13430WAT      O40531   0.533   6.608   5.062
13430WAT     H140532   0.484   6.655   4.988
13430WAT     H240533   0.583   6.675   5.117
13431WAT      O40534   8.080   2.936   6.627
13431WAT     H140535   8.017   2.965   6.698
13431WAT     H240536   8.040   2.953   6.537
13432WAT      O40537   0.527   2.073   9.271
13432WAT     H140538   0.595   2.126   9.221
13432WAT     H240539   0.535   2.091   9.369
13433WAT      O40540   0.800   3.381   7.449
13433WAT     H140541   0.764   3.465   7.489
13433WAT     H240542   0.868   3.341   7.511
13434WAT      O40543   9.106   7.468   8.730
13434WAT     H140544   9.030   7.465   8.665
13434WAT     H240545   9.151   7.558   8.726
13435WAT      O40546   4.967   2.391   3.082
13435WAT     H140547   5.014   2.338   3.153
13435WAT     H240548   5.021   2.388   2.998
13436WAT      O40549   7.664   1.318   0.298
13436WAT     H140550   7.754   1.361   0.295
13436WAT     H240551   7.674   1.222   0.322
13437WAT      O40552   9.572   4.835   5.756
13437WAT     H140553   9.500   4.788   5.807
13437WAT     H240554   9.532   4.879   5.675
13438WAT      O40555   3.243   6.106   6.579
13438WAT     H140556   3.328   6.154   6.559
13438WAT     H240557   3.238   6.086   6.677
13439WAT      O40558   4.558   4.209   7.131
13439WAT     H140559   4.641   4.163   7.100
13439WAT     H240560   4.502   4.235   7.053
13440WAT      O40561   0.783   5.849   9.727
13440WAT     H140562   0.755   5.874   9.820
13440WAT     H240563   0.831   5.927   9.685
13441WAT      O40564   1.560   3.135   5.386
13441WAT     H140565   1.470   3.156   5.349
13441WAT     H240566   1.626   3.204   5.355
13442WAT      O40567   6.504   9.498   9.318
13442WAT     H140568   6.550   9.556   9.385
13442WAT     H240569   6.435   9.552   9.270
13443WAT      O40570   1.623   0.861   1.621
13443WAT     H140571   1.577   0.891   1.705
13443WAT     H240572   1.670   0.938   1.580
13444WAT      O40573   1.171   1.432   1.443
13444WAT     H140574   1.079   1.393   1.438
13444WAT     H240575   1.195   1.473   1.355
13445WAT      O40576   5.353   8.405   5.491
13445WAT     H140577   5.351   8.454   5.578
13445WAT     H240578   5.274   8.431   5.436
13446WAT      O40579   7.307   2.437   0.878
13446WAT     H140580   7.330   2.354   0.928
13446WAT     H240581   7.269   2.413   0.788
13447WAT      O40582   6.864   3.554   7.822
13447WAT     H140583   6.937   3.623   7.825
13447WAT     H240584   6.831   3.544   7.729
13448WAT      O40585   6.241   8.813   2.068
13448WAT     H140586   6.178   8.857   2.132
13448WAT     H240587   6.329   8.798   2.113
13449WAT      O40588   7.982   5.684   4.819
13449WAT     H140589   7.946   5.777   4.810
13449WAT     H240590   7.909   5.619   4.800
13450WAT      O40591   2.969   5.573   3.803
13450WAT     H140592   3.046   5.583   3.740
13450WAT     H240593   2.914   5.494   3.776
13451WAT      O40594   1.858   5.410   7.511
13451WAT     H140595   1.922   5.483   7.537
13451WAT     H240596   1.764   5.445   7.517
13452WAT      O40597   4.284   3.657   9.514
13452WAT     H140598   4.288   3.619   9.422
13452WAT     H240599   4.359   3.618   9.569
13453WAT      O40600   6.671   0.794   4.650
13453WAT     H140601   6.584   0.755   4.618
13453WAT     H240602   6.725   0.823   4.572
13454WAT      O40603   2.377   7.113   5.413
13454WAT     H140604   2.288   7.159   5.412
13454WAT     H240605   2.365   7.017   5.387
13455WAT      O40606   7.241   3.011   4.059
13455WAT     H140607   7.189   2.938   4.102
13455WAT     H240608   7.339   2.997   4.077
13456WAT      O40609   3.462   6.839   6.589
13456WAT     H140610   3.461   6.747   6.550
13456WAT     H240611   3.520   6.898   6.534
13457WAT      O40612   1.280   2.923   2.168
13457WAT     H140613   1.308   2.996   2.106
13457WAT     H240614   1.348   2.850   2.167
13458WAT      O40615   5.689   9.152   3.043
13458WAT     H140616   5.619   9.083   3.025
13458WAT     H240617   5.721   9.143   3.137
13459WAT      O40618   5.884   3.854   0.938
13459WAT     H140619   5.798   3.906   0.933
13459WAT     H240620   5.960   3.913   0.912
13460WAT      O40621   0.702   0.476   4.344
13460WAT     H140622   0.722   0.526   4.428
13460WAT     H240623   0.603   0.458   4.339
13461WAT      O40624   2.750   1.415   9.656
13461WAT     H140625   2.709   1.327   9.631
13461WAT     H240626   2.731   1.483   9.585
13462WAT      O40627   2.137   8.275   9.064
13462WAT     H140628   2.108   8.183   9.039
13462WAT     H240629   2.234   8.274   9.091
13463WAT      O40630   2.017   8.152   1.394
13463WAT     H140631   2.006   8.227   1.459
13463WAT     H240632   2.046   8.070   1.443
13464WAT      O40633   9.793   5.393   9.067
13464WAT     H140634   9.775   5.373   9.163
13464WAT     H240635   9.892   5.396   9.051
13465WAT      O40636   9.101   9.377   0.281
13465WAT     H140637   9.200   9.386   0.281
13465WAT     H240638   9.076   9.280   0.272
13466WAT      O40639   0.557   2.505   1.460
13466WAT     H140640   0.600   2.595   1.461
13466WAT     H240641   0.469   2.510   1.509
13467WAT      O40642   8.915   8.621   4.500
13467WAT     H140643   8.949   8.712   4.477
13467WAT     H240644   8.901   8.614   4.598
13468WAT      O40645   5.264   9.695   7.583
13468WAT     H140646   5.322   9.731   7.656
13468WAT     H240647   5.168   9.706   7.610
13469WAT      O40648   0.498   3.133   0.913
13469WAT     H140649   0.463   3.089   0.996
13469WAT     H240650   0.440   3.108   0.836
13470WAT      O40651   2.576   0.905   3.965
13470WAT     H140652   2.565   0.805   3.966
13470WAT     H240653   2.610   0.935   4.054
13471WAT      O40654   5.502   1.768   5.356
13471WAT     H140655   5.531   1.862   5.372
13471WAT     H240656   5.508   1.717   5.442
13472WAT      O40657   2.640   8.935   5.921
13472WAT     H140658   2.627   9.031   5.946
13472WAT     H240659   2.641   8.879   6.004
13473WAT      O40660   5.612   1.011   3.865
13473WAT     H140661   5.572   0.920   3.853
13473WAT     H240662   5.544   1.081   3.844
13474WAT      O40663   5.396   7.335   4.181
13474WAT     H140664   5.374   7.419   4.133
13474WAT     H240665   5.353   7.336   4.272
13475WAT      O40666   7.522   0.430   8.345
13475WAT     H140667   7.606   0.411   8.396
13475WAT     H240668   7.537   0.505   8.281
13476WAT      O40669   7.871   8.913   6.457
13476WAT     H140670   7.939   8.961   6.512
13476WAT     H240671   7.779   8.933   6.492
13477WAT      O40672   4.411   4.330   3.196
13477WAT     H140673   4.383   4.237   3.175
13477WAT     H240674   4.356   4.365   3.272
13478WAT      O40675   4.296   9.308   2.636
13478WAT     H140676   4.255   9.392   2.601
13478WAT     H240677   4.224   9.251   2.677
13479WAT      O40678   9.213   4.154   9.298
13479WAT     H140679   9.243   4.133   9.391
13479WAT     H240680   9.125   4.201   9.301
13480WAT      O40681   4.191   3.333   8.057
13480WAT     H140682   4.135   3.344   8.140
13480WAT     H240683   4.287   3.347   8.081
13481WAT      O40684   3.979   8.374   3.925
13481WAT     H140685   3.996   8.390   4.023
13481WAT     H240686   4.060   8.332   3.884
13482WAT      O40687   3.230   4.923   1.221
13482WAT     H140688   3.229   4.993   1.149
13482WAT     H240689   3.168   4.849   1.196
13483WAT      O40690   4.072   4.686   1.712
13483WAT     H140691   4.122   4.773   1.724
13483WAT     H240692   4.134   4.610   1.731
13484WAT      O40693   4.015   0.682   7.111
13484WAT     H140694   4.103   0.731   7.110
13484WAT     H240695   3.941   0.747   7.128
13485WAT      O40696   8.184   8.116   8.866
13485WAT     H140697   8.219   8.098   8.958
13485WAT     H240698   8.250   8.082   8.799
13486WAT      O40699   8.343   4.307   3.917
13486WAT     H140700   8.355   4.388   3.860
13486WAT     H240701   8.288   4.240   3.868
13487WAT      O40702   1.473   6.564   9.551
13487WAT     H140703   1.404   6.582   9.620
13487WAT     H240704   1.548   6.512   9.591
13488WAT      O40705   6.009   7.468   1.029
13488WAT     H140706   5.948   7.402   0.985
13488WAT     H240707   6.003   7.556   0.982
13489WAT      O40708   4.576   9.296   5.310
13489WAT     H140709   4.588   9.394   5.323
13489WAT     H240710   4.656   9.258   5.262
13490WAT      O40711   1.076   5.466   6.897
13490WAT     H140712   1.082   5.389   6.960
13490WAT     H240713   0.985   5.507   6.903
13491WAT      O40714   3.214   4.436   6.865
13491WAT     H140715   3.286   4.462   6.801
13491WAT     H240716   3.233   4.475   6.955
13492WAT      O40717   0.027   6.802   7.591
13492WAT     H140718   0.061   6.757   7.509
13492WAT     H240719   0.029   6.738   7.668
13493WAT      O40720   9.773   0.681   3.888
13493WAT     H140721   9.805   0.631   3.807
13493WAT     H240722   9.782   0.779   3.872
13494WAT      O40723   1.452   1.132   4.607
13494WAT     H140724   1.551   1.144   4.599
13494WAT     H240725   1.424   1.049   4.559
13495WAT      O40726   5.278   0.978   3.444
13495WAT     H140727   5.207   0.907   3.444
13495WAT     H240728   5.367   0.936   3.459
13496WAT      O40729   8.477   5.377   1.803
13496WAT     H140730   8.531   5.317   1.862
13496WAT     H240731   8.538   5.443   1.758
13497WAT      O40732   3.921   6.252   8.620
13497WAT     H140733   3.958   6.173   8.669
13497WAT     H240734   3.941   6.243   8.522
13498WAT      O40735   7.923   6.290   0.527
13498WAT     H140736   7.942   6.308   0.431
13498WAT     H240737   7.856   6.356   0.560
13499WAT      O40738   2.856   9.060   6.429
13499WAT     H140739   2.889   9.056   6.523
13499WAT     H240740   2.759   9.086   6.430
13500WAT      O40741   2.749   8.379   3.609
13500WAT     H140742   2.746   8.418   3.517
13500WAT     H240743   2.656   8.352   3.637
13501WAT      O40744   7.504   1.818   0.061
13501WAT     H140745   7.499   1.882  -0.016
13501WAT     H240746   7.432   1.749   0.051
13502WAT      O40747   2.507   5.354   3.997
13502WAT     H140748   2.532   5.450   3.996
13502WAT     H240749   2.573   5.301   3.945
13503WAT      O40750   4.438   3.344   8.176
13503WAT     H140751   4.425   3.443   8.166
13503WAT     H240752   4.509   3.313   8.113
13504WAT      O40753   9.434   6.856   2.793
13504WAT     H140754   9.446   6.872   2.891
13504WAT     H240755   9.342   6.819   2.776
13505WAT      O40756   1.164   6.294   5.282
13505WAT     H140757   1.173   6.338   5.371
13505WAT     H240758   1.069   6.302   5.251
13506WAT      O40759   7.842   4.077   3.872
13506WAT     H140760   7.814   3.983   3.892
13506WAT     H240761   7.914   4.104   3.936
13507WAT      O40762   8.219   1.116   4.646
13507WAT     H140763   8.262   1.051   4.708
13507WAT     H240764   8.160   1.068   4.582
13508WAT      O40765   4.167   8.513   1.404
13508WAT     H140766   4.113   8.431   1.382
13508WAT     H240767   4.159   8.579   1.329
13509WAT      O40768   6.165   5.147   5.390
13509WAT     H140769   6.147   5.102   5.303
13509WAT     H240770   6.109   5.230   5.396
13510WAT      O40771   4.387   7.057   7.446
13510WAT     H140772   4.468   7.006   7.476
13510WAT     H240773   4.322   6.994   7.403
13511WAT      O40774   7.080   1.981   2.893
13511WAT     H140775   7.049   2.073   2.918
13511WAT     H240776   7.009   1.935   2.840
13512WAT      O40777   6.261   5.650   8.561
13512WAT     H140778   6.164   5.629   8.566
13512WAT     H240779   6.281   5.695   8.474
13513WAT      O40780   5.788   4.930   7.180
13513WAT     H140781   5.833   4.860   7.124
13513WAT     H240782   5.689   4.923   7.169
13514WAT      O40783   2.094   4.150   0.022
13514WAT     H140784   2.112   4.111   0.112
13514WAT     H240785   1.996   4.156   0.007
13515WAT      O40786   0.634   9.624   2.793
13515WAT     H140787   0.695   9.546   2.784
13515WAT     H240788   0.642   9.682   2.711
13516WAT      O40789   1.345   2.062   4.670
13516WAT     H140790   1.321   2.041   4.576
13516WAT     H240791   1.310   1.991   4.731
13517WAT      O40792   2.767   4.912   7.436
13517WAT     H140793   2.847   4.967   7.460
13517WAT     H240794   2.690   4.938   7.494
13518WAT      O40795   9.719   2.875   6.111
13518WAT     H140796   9.696   2.863   6.014
13518WAT     H240797   9.818   2.883   6.121
13519WAT      O40798   6.109   3.412   2.788
13519WAT     H140799   6.035   3.345   2.797
13519WAT     H240800   6.192   3.365   2.758
13520WAT      O40801   9.003   5.378   2.432
13520WAT     H140802   9.012   5.478   2.431
13520WAT     H240803   9.088   5.337   2.464
13521WAT      O40804   0.057   4.058   4.941
13521WAT     H140805   0.008   4.059   5.028
13521WAT     H240806   0.021   4.130   4.881
13522WAT      O40807   3.877   5.080   0.319
13522WAT     H140808   3.797   5.036   0.359
13522WAT     H240809   3.849   5.131   0.237
13523WAT      O40810   7.865   0.674   1.495
13523WAT     H140811   7.850   0.578   1.519
13523WAT     H240812   7.782   0.727   1.516
13524WAT      O40813   5.479   5.005   8.746
13524WAT     H140814   5.444   5.085   8.795
13524WAT     H240815   5.410   4.973   8.681
13525WAT      O40816   6.032   4.938   7.553
13525WAT     H140817   6.125   4.971   7.568
13525WAT     H240818   5.995   4.902   7.638
13526WAT      O40819   2.927   3.917   1.197
13526WAT     H140820   2.935   3.925   1.296
13526WAT     H240821   2.834   3.939   1.169
13527WAT      O40822   8.638   7.292   1.730
13527WAT     H140823   8.730   7.330   1.743
13527WAT     H240824   8.585   7.304   1.813
13528WAT      O40825   8.306   4.869   7.700
13528WAT     H140826   8.369   4.805   7.656
13528WAT     H240827   8.226   4.819   7.733
13529WAT      O40828   7.277   5.311   9.351
13529WAT     H140829   7.194   5.257   9.338
13529WAT     H240830   7.355   5.250   9.360
13530WAT      O40831   8.926   8.455   9.653
13530WAT     H140832   8.851   8.456   9.587
13530WAT     H240833   8.993   8.525   9.628
13531WAT      O40834   2.192   0.897   3.868
13531WAT     H140835   2.151   0.846   3.944
13531WAT     H240836   2.204   0.992   3.895
13532WAT      O40837   4.694   0.107   6.146
13532WAT     H140838   4.700   0.019   6.193
13532WAT     H240839   4.768   0.114   6.079
13533WAT      O40840   1.656   4.496   6.265
13533WAT     H140841   1.712   4.421   6.231
13533WAT     H240842   1.694   4.530   6.351
13534WAT      O40843   8.380   1.604   2.563
13534WAT     H140844   8.398   1.511   2.532
13534WAT     H240845   8.289   1.633   2.533
13535WAT      O40846   3.509   5.096   3.458
13535WAT     H140847   3.444   5.166   3.487
13535WAT     H240848   3.490   5.070   3.364
13536WAT      O40849   8.220   3.682   9.017
13536WAT     H140850   8.149   3.688   9.087
13536WAT     H240851   8.201   3.746   8.943
13537WAT      O40852   4.248   9.725   6.945
13537WAT     H140853   4.169   9.744   7.004
13537WAT     H240854   4.221   9.660   6.874
13538WAT      O40855   4.320   4.779   8.281
13538WAT     H140856   4.320   4.715   8.357
13538WAT     H240857   4.401   4.763   8.224
13539WAT      O40858   3.324   8.979   5.075
13539WAT     H140859   3.293   9.004   4.983
13539WAT     H240860   3.244   8.962   5.133
13540WAT      O40861   0.004   4.550   1.863
13540WAT     H140862  -0.020   4.535   1.959
13540WAT     H240863   0.099   4.581   1.857
13541WAT      O40864   0.023   0.129   3.316
13541WAT     H140865   0.021   0.031   3.298
13541WAT     H240866   0.011   0.144   3.414
13542WAT      O40867   2.289   4.802   0.892
13542WAT     H140868   2.211   4.825   0.835
13542WAT     H240869   2.258   4.759   0.977
13543WAT      O40870   4.316   8.050   3.451
13543WAT     H140871   4.267   7.989   3.513
13543WAT     H240872   4.414   8.030   3.455
13544WAT      O40873   4.942   8.359   5.534
13544WAT     H140874   4.880   8.303   5.480
13544WAT     H240875   5.028   8.310   5.548
13545WAT      O40876   2.476   3.210   3.965
13545WAT     H140877   2.517   3.129   3.923
13545WAT     H240878   2.538   3.247   4.034
13546WAT      O40879   9.337   7.334   2.206
13546WAT     H140880   9.403   7.262   2.185
13546WAT     H240881   9.244   7.297   2.202
13547WAT      O40882   7.229   0.946   3.217
13547WAT     H140883   7.170   0.901   3.283
13547WAT     H240884   7.183   1.026   3.179
13548WAT      O40885   5.160   4.479   8.822
13548WAT     H140886   5.149   4.385   8.788
13548WAT     H240887   5.155   4.479   8.922
13549WAT      O40888   4.004   2.490   9.015
13549WAT     H140889   3.957   2.428   8.953
13549WAT     H240890   4.049   2.437   9.087
13550WAT      O40891   4.878   8.547   8.241
13550WAT     H140892   4.862   8.559   8.143
13550WAT     H240893   4.977   8.543   8.258
13551WAT      O40894   5.712   1.340   9.130
13551WAT     H140895   5.810   1.354   9.148
13551WAT     H240896   5.681   1.406   9.062
13552WAT      O40897   6.259   3.258   5.494
13552WAT     H140898   6.198   3.317   5.440
13552WAT     H240899   6.266   3.169   5.450
13553WAT      O40900   9.342   5.262   0.845
13553WAT     H140901   9.362   5.343   0.789
13553WAT     H240902   9.414   5.194   0.831
13554WAT      O40903   6.818   5.894   4.724
13554WAT     H140904   6.777   5.942   4.801
13554WAT     H240905   6.875   5.819   4.757
13555WAT      O40906   6.392   5.241   9.728
13555WAT     H140907   6.342   5.162   9.764
13555WAT     H240908   6.476   5.209   9.683
13556WAT      O40909   6.451   9.706   6.945
13556WAT     H140910   6.509   9.713   6.864
13556WAT     H240911   6.384   9.781   6.944
13557WAT      O40912   0.085   4.924   6.874
13557WAT     H140913   0.009   4.987   6.891
13557WAT     H240914   0.049   4.840   6.832
13558WAT      O40915   8.870   3.249   3.668
13558WAT     H140916   8.861   3.348   3.662
13558WAT     H240917   8.909   3.224   3.756
13559WAT      O40918   4.330   4.621   3.597
13559WAT     H140919   4.263   4.696   3.593
13559WAT     H240920   4.281   4.534   3.595
13560WAT      O40921   3.501   4.898   6.061
13560WAT     H140922   3.570   4.950   6.113
13560WAT     H240923   3.547   4.837   5.997
13561WAT      O40924   3.608   7.469   6.623
13561WAT     H140925   3.531   7.532   6.618
13561WAT     H240926   3.690   7.512   6.585
13562WAT      O40927   2.318   2.708   1.724
13562WAT     H140928   2.294   2.615   1.695
13562WAT     H240929   2.410   2.708   1.762
13563WAT      O40930   2.291   0.616   4.460
13563WAT     H140931   2.195   0.606   4.432
13563WAT     H240932   2.305   0.709   4.495
13564WAT      O40933   4.459   7.948   5.689
13564WAT     H140934   4.539   7.905   5.730
13564WAT     H240935   4.452   7.922   5.593
13565WAT      O40936   6.693   1.969   8.256
13565WAT     H140937   6.765   1.900   8.262
13565WAT     H240938   6.732   2.056   8.226
13566WAT      O40939   9.632   4.914   3.749
13566WAT     H140940   9.532   4.908   3.745
13566WAT     H240941   9.672   4.833   3.706
13567WAT      O40942   8.587   7.558   1.159
13567WAT     H140943   8.618   7.609   1.078
13567WAT     H240944   8.551   7.623   1.227
13568WAT      O40945   1.144   6.666   3.449
13568WAT     H140946   1.114   6.715   3.531
13568WAT     H240947   1.123   6.569   3.460
13569WAT      O40948   8.771   1.729   6.710
13569WAT     H140949   8.729   1.695   6.794
13569WAT     H240950   8.714   1.802   6.671
13570WAT      O40951   3.166   5.296   7.313
13570WAT     H140952   3.067   5.295   7.326
13570WAT     H240953   3.187   5.302   7.215
13571WAT      O40954   6.836   8.890   6.444
13571WAT     H140955   6.927   8.867   6.478
13571WAT     H240956   6.784   8.806   6.427
13572WAT      O40957   0.450   2.700   7.094
13572WAT     H140958   0.458   2.792   7.132
13572WAT     H240959   0.532   2.648   7.114
13573WAT      O40960   6.200   8.595   3.169
13573WAT     H140961   6.150   8.660   3.113
13573WAT     H240962   6.232   8.640   3.252
13574WAT      O40963   7.491   3.372   6.602
13574WAT     H140964   7.540   3.396   6.686
13574WAT     H240965   7.394   3.357   6.623
13575WAT      O40966   2.366   9.677   2.018
13575WAT     H140967   2.458   9.653   2.049
13575WAT     H240968   2.316   9.593   1.996
13576WAT      O40969   0.853   4.781   2.167
13576WAT     H140970   0.834   4.757   2.262
13576WAT     H240971   0.919   4.856   2.164
13577WAT      O40972   4.183   4.219   9.352
13577WAT     H140973   4.108   4.266   9.306
13577WAT     H240974   4.146   4.151   9.415
13578WAT      O40975   3.639   3.364   4.360
13578WAT     H140976   3.576   3.306   4.413
13578WAT     H240977   3.630   3.459   4.389
13579WAT      O40978   8.281   0.492   3.597
13579WAT     H140979   8.297   0.449   3.686
13579WAT     H240980   8.358   0.473   3.536
13580WAT      O40981   6.106   4.917   3.565
13580WAT     H140982   6.026   4.904   3.507
13580WAT     H240983   6.080   4.969   3.646
13581WAT      O40984   3.810   4.275   3.957
13581WAT     H140985   3.907   4.261   3.978
13581WAT     H240986   3.757   4.197   3.990
13582WAT      O40987   5.681   5.664   7.099
13582WAT     H140988   5.713   5.618   7.182
13582WAT     H240989   5.584   5.644   7.085
13583WAT      O40990   2.415   8.191   1.763
13583WAT     H140991   2.433   8.289   1.775
13583WAT     H240992   2.316   8.176   1.759
13584WAT      O40993   3.301   9.554   3.049
13584WAT     H140994   3.396   9.573   3.074
13584WAT     H240995   3.278   9.460   3.074
13585WAT      O40996   6.528   8.637   1.856
13585WAT     H140997   6.465   8.709   1.826
13585WAT     H240998   6.533   8.566   1.786
13586WAT      O40999   7.139   4.550   7.819
13586WAT     H141000   7.051   4.504   7.807
13586WAT     H241001   7.205   4.486   7.858
13587WAT      O41002   9.163   7.825   1.342
13587WAT     H141003   9.116   7.866   1.264
13587WAT     H241004   9.185   7.729   1.322
13588WAT      O41005   5.397   1.695   8.687
13588WAT     H141006   5.394   1.761   8.611
13588WAT     H241007   5.459   1.729   8.757
13589WAT      O41008   0.609   7.292   2.022
13589WAT     H141009   0.653   7.282   1.933
13589WAT     H241010   0.526   7.237   2.024
13590WAT      O41011   1.100   2.646   3.943
13590WAT     H141012   1.186   2.597   3.957
13590WAT     H241013   1.024   2.594   3.981
13591WAT      O41014   4.604   7.801   4.019
13591WAT     H141015   4.640   7.724   3.967
13591WAT     H241016   4.679   7.852   4.061
13592WAT      O41017   4.492   3.135   9.463
13592WAT     H141018   4.482   3.102   9.369
13592WAT     H241019   4.579   3.102   9.500
13593WAT      O41020   2.979   8.067   5.330
13593WAT     H141021   3.020   8.027   5.249
13593WAT     H241022   3.016   8.159   5.345
13594WAT      O41023   2.686   1.096   7.096
13594WAT     H141024   2.780   1.062   7.085
13594WAT     H241025   2.689   1.194   7.117
13595WAT      O41026   8.257   7.079   5.320
13595WAT     H141027   8.181   7.140   5.297
13595WAT     H241028   8.339   7.133   5.339
13596WAT      O41029   4.325   1.666   7.559
13596WAT     H141030   4.351   1.733   7.629
13596WAT     H241031   4.226   1.659   7.556
13597WAT      O41032   1.001   9.558   7.442
13597WAT     H141033   1.078   9.593   7.496
13597WAT     H241034   1.006   9.594   7.349
13598WAT      O41035   6.744   8.907   3.102
13598WAT     H141036   6.687   8.965   3.043
13598WAT     H241037   6.840   8.928   3.086
13599WAT      O41038   0.329   0.163   4.369
13599WAT     H141039   0.331   0.079   4.423
13599WAT     H241040   0.401   0.159   4.299
13600WAT      O41041   8.912   3.452   4.369
13600WAT     H141042   8.848   3.388   4.327
13600WAT     H241043   8.899   3.543   4.331
13601WAT      O41044   6.478   2.163   0.784
13601WAT     H141045   6.505   2.079   0.831
13601WAT     H241046   6.548   2.189   0.718
13602WAT      O41047   1.088   3.455   1.603
13602WAT     H141048   1.108   3.541   1.650
13602WAT     H241049   1.041   3.474   1.517
13603WAT      O41050   1.360   4.735   2.095
13603WAT     H141051   1.290   4.805   2.111
13603WAT     H241052   1.374   4.724   1.996
13604WAT      O41053   6.349   2.166   6.861
13604WAT     H141054   6.326   2.076   6.823
13604WAT     H241055   6.328   2.237   6.794
13605WAT      O41056   9.579   6.961   2.421
13605WAT     H141057   9.594   6.957   2.520
13605WAT     H241058   9.665   6.983   2.375
13606WAT      O41059   5.825   4.430   4.336
13606WAT     H141060   5.875   4.467   4.257
13606WAT     H241061   5.879   4.444   4.419
13607WAT      O41062   3.229   3.892   6.879
13607WAT     H141063   3.159   3.847   6.825
13607WAT     H241064   3.320   3.869   6.842
13608WAT      O41065   0.722   5.567   9.096
13608WAT     H141066   0.720   5.516   9.182
13608WAT     H241067   0.788   5.642   9.103
13609WAT      O41068   8.329   7.097   2.485
13609WAT     H141069   8.261   7.124   2.417
13609WAT     H241070   8.373   7.012   2.457
13610WAT      O41071   8.799   8.388   5.129
13610WAT     H141072   8.702   8.408   5.125
13610WAT     H241073   8.823   8.358   5.222
13611WAT      O41074   1.339   7.028   1.585
13611WAT     H141075   1.288   7.072   1.511
13611WAT     H241076   1.312   6.933   1.593
13612WAT      O41077   3.744   5.681   6.214
13612WAT     H141078   3.653   5.689   6.173
13612WAT     H241079   3.814   5.697   6.144
13613WAT      O41080   8.898   5.861   5.394
13613WAT     H141081   8.980   5.827   5.347
13613WAT     H241082   8.922   5.887   5.488
13614WAT      O41083   7.731   6.429   7.316
13614WAT     H141084   7.776   6.340   7.327
13614WAT     H241085   7.796   6.495   7.278
13615WAT      O41086   4.216   6.811   6.863
13615WAT     H141087   4.274   6.733   6.885
13615WAT     H241088   4.134   6.809   6.920
13616WAT      O41089   0.013   2.263   7.773
13616WAT     H141090   0.040   2.359   7.783
13616WAT     H241091   0.089   2.204   7.801
13617WAT      O41092   6.475   1.158   4.018
13617WAT     H141093   6.504   1.238   3.964
13617WAT     H241094   6.426   1.189   4.099
13618WAT      O41095   9.302   3.986   1.652
13618WAT     H141096   9.215   3.969   1.606
13618WAT     H241097   9.325   4.083   1.644
13619WAT      O41098   5.614   0.962   4.303
13619WAT     H141099   5.540   0.952   4.237
13619WAT     H241100   5.662   1.048   4.286
13620WAT      O41101   6.198   4.653   6.714
13620WAT     H141102   6.189   4.598   6.631
13620WAT     H241103   6.226   4.746   6.691
13621WAT      O41104   1.311   0.401   4.136
13621WAT     H141105   1.355   0.311   4.133
13621WAT     H241106   1.228   0.396   4.192
13622WAT      O41107   4.699   1.670   7.701
13622WAT     H141108   4.770   1.706   7.640
13622WAT     H241109   4.666   1.582   7.666
13623WAT      O41110   9.575   0.478   5.566
13623WAT     H141111   9.509   0.418   5.520
13623WAT     H241112   9.532   0.565   5.587
13624WAT      O41113   5.272   9.369   3.772
13624WAT     H141114   5.197   9.302   3.775
13624WAT     H241115   5.334   9.352   3.849
13625WAT      O41116   4.217   7.918   8.775
13625WAT     H141117   4.129   7.935   8.730
13625WAT     H241118   4.211   7.836   8.832
13626WAT      O41119   5.383   4.428   2.296
13626WAT     H141120   5.404   4.406   2.201
13626WAT     H241121   5.371   4.527   2.305
13627WAT      O41122   9.702   4.051   2.636
13627WAT     H141123   9.774   4.117   2.613
13627WAT     H241124   9.645   4.035   2.556
13628WAT      O41125   4.069   1.525   5.540
13628WAT     H141126   4.023   1.519   5.451
13628WAT     H241127   4.011   1.575   5.604
13629WAT      O41128   6.694   0.913   5.124
13629WAT     H141129   6.755   0.873   5.192
13629WAT     H241130   6.660   0.841   5.063
13630WAT      O41131   2.653   9.039   4.083
13630WAT     H141132   2.630   9.104   4.155
13630WAT     H241133   2.655   9.087   3.995
13631WAT      O41134   1.181   0.238   5.833
13631WAT     H141135   1.203   0.290   5.915
13631WAT     H241136   1.259   0.181   5.807
13632WAT      O41137   4.276   8.192   8.731
13632WAT     H141138   4.241   8.104   8.762
13632WAT     H241139   4.207   8.263   8.744
13633WAT      O41140   5.133   7.906   5.941
13633WAT     H141141   5.118   7.810   5.920
13633WAT     H241142   5.196   7.915   6.018
13634WAT      O41143   9.693   4.717   3.562
13634WAT     H141144   9.743   4.759   3.486
13634WAT     H241145   9.747   4.643   3.601
13635WAT      O41146   2.526   7.186   2.142
13635WAT     H141147   2.569   7.145   2.061
13635WAT     H241148   2.546   7.284   2.144
13636WAT      O41149   4.854   6.561   8.858
13636WAT     H141150   4.755   6.549   8.872
13636WAT     H241151   4.879   6.655   8.878
13637WAT      O41152   9.874   9.133   9.156
13637WAT     H141153   9.942   9.129   9.082
13637WAT     H241154   9.883   9.053   9.214
13638WAT      O41155   2.259   2.422   6.983
13638WAT     H141156   2.335   2.456   6.927
13638WAT     H241157   2.247   2.482   7.062
13639WAT      O41158   9.015   5.938   7.562
13639WAT     H141159   9.013   5.922   7.463
13639WAT     H241160   8.924   5.961   7.594
13640WAT      O41161   5.176   7.385   0.870
13640WAT     H141162   5.163   7.340   0.782
13640WAT     H241163   5.184   7.315   0.942
13641WAT      O41164   1.533   1.756   4.096
13641WAT     H141165   1.623   1.722   4.068
13641WAT     H241166   1.498   1.699   4.170
13642WAT      O41167   9.308   6.405   3.124
13642WAT     H141168   9.298   6.453   3.211
13642WAT     H241169   9.342   6.469   3.054
13643WAT      O41170   1.531   3.178   0.575
13643WAT     H141171   1.441   3.162   0.534
13643WAT     H241172   1.557   3.274   0.562
13644WAT      O41173   7.405   7.809   6.774
13644WAT     H141174   7.452   7.737   6.824
13644WAT     H241175   7.449   7.897   6.792
13645WAT      O41176   5.894   9.173   9.846
13645WAT     H141177   5.828   9.125   9.788
13645WAT     H241178   5.848   9.245   9.897
13646WAT      O41179   8.613   8.094   0.145
13646WAT     H141180   8.671   8.131   0.217
13646WAT     H241181   8.519   8.126   0.158
13647WAT      O41182   7.211   9.209   2.270
13647WAT     H141183   7.296   9.260   2.256
13647WAT     H241184   7.210   9.129   2.209
13648WAT      O41185   5.068   0.697   9.585
13648WAT     H141186   5.005   0.724   9.512
13648WAT     H241187   5.161   0.688   9.548
13649WAT      O41188   2.765   0.879   1.407
13649WAT     H141189   2.665   0.866   1.406
13649WAT     H241190   2.786   0.973   1.431
13650WAT      O41191   4.230   3.752   3.943
13650WAT     H141192   4.188   3.667   3.910
13650WAT     H241193   4.214   3.761   4.041
13651WAT      O41194   9.533   4.075   8.053
13651WAT     H141195   9.514   4.156   7.998
13651WAT     H241196   9.489   4.084   8.143
13652WAT      O41197   1.935   3.227   5.623
13652WAT     H141198   2.013   3.289   5.626
13652WAT     H241199   1.922   3.195   5.529
13653WAT      O41200   7.343   9.753   6.755
13653WAT     H141201   7.416   9.709   6.807
13653WAT     H241202   7.304   9.827   6.809
13654WAT      O41203   7.577   8.521   3.024
13654WAT     H141204   7.549   8.452   2.958
13654WAT     H241205   7.600   8.605   2.976
13655WAT      O41206   0.753   5.970   0.094
13655WAT     H141207   0.766   5.890   0.153
13655WAT     H241208   0.818   6.042   0.120
13656WAT      O41209   6.180   4.377   3.895
13656WAT     H141210   6.140   4.310   3.958
13656WAT     H241211   6.234   4.444   3.946
13657WAT      O41212   9.090   9.217   5.176
13657WAT     H141213   9.133   9.305   5.194
13657WAT     H241214   9.019   9.200   5.244
13658WAT      O41215   6.279   2.892   0.291
13658WAT     H141216   6.320   2.910   0.380
13658WAT     H241217   6.191   2.845   0.303
13659WAT      O41218   5.453   0.841   8.950
13659WAT     H141219   5.506   0.925   8.961
13659WAT     H241220   5.470   0.780   9.027
13660WAT      O41221   3.160   2.066   1.971
13660WAT     H141222   3.191   2.158   1.948
13660WAT     H241223   3.167   2.052   2.070
13661WAT      O41224   5.789   2.609   1.384
13661WAT     H141225   5.698   2.623   1.423
13661WAT     H241226   5.839   2.696   1.384
13662WAT      O41227   8.966   3.819   5.662
13662WAT     H141228   9.026   3.892   5.694
13662WAT     H241229   8.871   3.849   5.670
13663WAT      O41230   4.101   2.635   8.493
13663WAT     H141231   4.019   2.689   8.511
13663WAT     H241232   4.076   2.544   8.462
13664WAT      O41233   2.456   9.811   1.078
13664WAT     H141234   2.431   9.871   1.002
13664WAT     H241235   2.523   9.858   1.136
13665WAT      O41236   0.968   2.372   7.318
13665WAT     H141237   0.929   2.447   7.372
13665WAT     H241238   0.919   2.365   7.231
13666WAT      O41239   5.812   7.311   3.134
13666WAT     H141240   5.907   7.331   3.160
13666WAT     H241241   5.805   7.308   3.034
13667WAT      O41242   5.724   2.054   7.523
13667WAT     H141243   5.703   2.016   7.433
13667WAT     H241244   5.641   2.094   7.563
13668WAT      O41245   0.297   3.756   9.835
13668WAT     H141246   0.365   3.777   9.905
13668WAT     H241247   0.304   3.660   9.809
13669WAT      O41248   3.629   4.695   4.451
13669WAT     H141249   3.539   4.711   4.493
13669WAT     H241250   3.620   4.624   4.381
13670WAT      O41251   4.232   2.613   6.421
13670WAT     H141252   4.273   2.704   6.431
13670WAT     H241253   4.241   2.563   6.508
13671WAT      O41254   5.521   3.637   7.070
13671WAT     H141255   5.621   3.633   7.072
13671WAT     H241256   5.487   3.653   7.163
13672WAT      O41257   9.795   2.291   5.322
13672WAT     H141258   9.794   2.222   5.249
13672WAT     H241259   9.835   2.376   5.287
13673WAT      O41260   6.837   2.068   1.982
13673WAT     H141261   6.841   2.164   1.953
13673WAT     H241262   6.837   2.063   2.081
13674WAT      O41263   2.962   2.369   3.362
13674WAT     H141264   2.905   2.448   3.341
13674WAT     H241265   2.942   2.295   3.298
13675WAT      O41266   9.017   0.066   5.040
13675WAT     H141267   8.926   0.092   5.073
13675WAT     H241268   9.007   0.012   4.956
13676WAT      O41269   4.484   3.673   2.947
13676WAT     H141270   4.537   3.639   3.024
13676WAT     H241271   4.542   3.730   2.889
13677WAT      O41272   4.345   2.681   3.515
13677WAT     H141273   4.346   2.746   3.439
13677WAT     H241274   4.435   2.680   3.558
13678WAT      O41275   8.375   3.400   0.728
13678WAT     H141276   8.407   3.324   0.785
13678WAT     H241277   8.357   3.368   0.635
13679WAT      O41278   2.643   1.565   2.091
13679WAT     H141279   2.589   1.525   2.016
13679WAT     H241280   2.602   1.652   2.118
13680WAT      O41281   0.277   5.127   9.760
13680WAT     H141282   0.253   5.077   9.677
13680WAT     H241283   0.309   5.062   9.829
13681WAT      O41284   2.422   6.873   0.672
13681WAT     H141285   2.395   6.777   0.682
13681WAT     H241286   2.473   6.902   0.753
13682WAT      O41287   9.841   4.948   1.741
13682WAT     H141288   9.829   4.870   1.680
13682WAT     H241289   9.934   4.947   1.779
13683WAT      O41290   1.146   7.299   6.907
13683WAT     H141291   1.170   7.243   6.828
13683WAT     H241292   1.049   7.288   6.927
13684WAT      O41293   6.150   3.723   9.175
13684WAT     H141294   6.124   3.753   9.266
13684WAT     H241295   6.210   3.643   9.183
13685WAT      O41296   5.185   0.133   0.573
13685WAT     H141297   5.148   0.091   0.491
13685WAT     H241298   5.284   0.144   0.564
13686WAT      O41299   4.782   9.153   0.613
13686WAT     H141300   4.794   9.251   0.631
13686WAT     H241301   4.871   9.109   0.609
13687WAT      O41302   7.322   9.692   5.174
13687WAT     H141303   7.326   9.775   5.230
13687WAT     H241304   7.294   9.615   5.231
13688WAT      O41305   2.533   7.514   2.229
13688WAT     H141306   2.572   7.547   2.142
13688WAT     H241307   2.445   7.560   2.245
13689WAT      O41308   8.296   4.134   6.124
13689WAT     H141309   8.389   4.108   6.150
13689WAT     H241310   8.298   4.190   6.042
13690WAT      O41311   8.331   8.153   0.139
13690WAT     H141312   8.272   8.123   0.213
13690WAT     H241313   8.316   8.095   0.059
13691WAT      O41314   0.311   0.846   7.097
13691WAT     H141315   0.266   0.911   7.158
13691WAT     H241316   0.401   0.821   7.136
13692WAT      O41317   9.578   5.487   8.690
13692WAT     H141318   9.658   5.444   8.649
13692WAT     H241319   9.603   5.529   8.777
13693WAT      O41320   2.261   3.337   8.680
13693WAT     H141321   2.191   3.393   8.634
13693WAT     H241322   2.269   3.249   8.634
13694WAT      O41323   4.264   6.905   7.274
13694WAT     H141324   4.341   6.869   7.221
13694WAT     H241325   4.188   6.840   7.270
13695WAT      O41326   2.015   9.477   7.623
13695WAT     H141327   2.099   9.422   7.627
13695WAT     H241328   2.038   9.572   7.602
13696WAT      O41329   5.813   6.778   5.922
13696WAT     H141330   5.817   6.771   6.022
13696WAT     H241331   5.880   6.715   5.882
13697WAT      O41332   9.480   6.157   1.953
13697WAT     H141333   9.555   6.222   1.945
13697WAT     H241334   9.394   6.207   1.964
13698WAT      O41335   2.043   0.809   8.937
13698WAT     H141336   1.956   0.853   8.956
13698WAT     H241337   2.094   0.864   8.871
13699WAT      O41338   6.755   4.838   2.341
13699WAT     H141339   6.804   4.924   2.331
13699WAT     H241340   6.733   4.801   2.250
13700WAT      O41341   5.161   9.672   9.070
13700WAT     H141342   5.145   9.600   9.002
13700WAT     H241343   5.092   9.743   9.060
13701WAT      O41344   5.474   5.682   5.668
13701WAT     H141345   5.376   5.668   5.681
13701WAT     H241346   5.494   5.780   5.660
13702WAT      O41347   7.341   0.526   7.190
13702WAT     H141348   7.338   0.462   7.113
13702WAT     H241349   7.254   0.523   7.239
13703WAT      O41350   4.639   6.916   5.291
13703WAT     H141351   4.721   6.858   5.295
13703WAT     H241352   4.603   6.928   5.383
13704WAT      O41353   5.043   9.518   0.235
13704WAT     H141354   5.113   9.570   0.284
13704WAT     H241355   5.016   9.439   0.291
13705WAT      O41356   2.796   8.996   1.520
13705WAT     H141357   2.873   9.042   1.475
13705WAT     H241358   2.827   8.960   1.608
13706WAT      O41359   1.600   7.085   1.550
13706WAT     H141360   1.508   7.057   1.577
13706WAT     H241361   1.667   7.025   1.594
13707WAT      O41362   2.229   5.509   6.851
13707WAT     H141363   2.129   5.506   6.847
13707WAT     H241364   2.258   5.596   6.891
13708WAT      O41365   5.693   6.493   0.607
13708WAT     H141366   5.743   6.417   0.565
13708WAT     H241367   5.677   6.472   0.704
13709WAT      O41368   2.299   4.638   7.448
13709WAT     H141369   2.377   4.658   7.508
13709WAT     H241370   2.232   4.583   7.498
13710WAT      O41371   1.124   2.166   9.060
13710WAT     H141372   1.160   2.074   9.077
13710WAT     H241373   1.174   2.209   8.985
13711WAT      O41374   8.897   9.401   3.537
13711WAT     H141375   8.918   9.445   3.449
13711WAT     H241376   8.819   9.340   3.526
13712WAT      O41377   4.226   9.233   2.283
13712WAT     H141378   4.315   9.219   2.327
13712WAT     H241379   4.210   9.331   2.270
13713WAT      O41380   8.558   4.334   6.772
13713WAT     H141381   8.575   4.427   6.805
13713WAT     H241382   8.633   4.307   6.712
13714WAT      O41383   0.410   3.298   4.196
13714WAT     H141384   0.428   3.395   4.214
13714WAT     H241385   0.399   3.250   4.283
13715WAT      O41386   4.646   5.522   1.866
13715WAT     H141387   4.546   5.524   1.865
13715WAT     H241388   4.678   5.427   1.862
13716WAT      O41389   6.664   1.964   6.797
13716WAT     H141390   6.572   1.970   6.757
13716WAT     H241391   6.690   1.868   6.808
13717WAT      O41392   4.307   8.582   5.105
13717WAT     H141393   4.244   8.553   5.033
13717WAT     H241394   4.395   8.537   5.092
13718WAT      O41395   7.205   5.218   6.581
13718WAT     H141396   7.300   5.199   6.555
13718WAT     H241397   7.145   5.196   6.504
13719WAT      O41398   7.620   2.625   7.184
13719WAT     H141399   7.561   2.595   7.259
13719WAT     H241400   7.567   2.629   7.099
13720WAT      O41401   8.752   4.468   0.743
13720WAT     H141402   8.728   4.529   0.818
13720WAT     H241403   8.690   4.483   0.666
13721WAT      O41404   1.962   1.989   9.491
13721WAT     H141405   2.027   1.969   9.564
13721WAT     H241406   1.868   1.977   9.525
13722WAT      O41407   5.998   8.475   1.963
13722WAT     H141408   6.041   8.393   1.924
13722WAT     H241409   5.923   8.504   1.903
13723WAT      O41410   5.971   4.842   7.792
13723WAT     H141411   6.001   4.756   7.833
13723WAT     H241412   5.901   4.884   7.850
13724WAT      O41413   7.353   5.616   0.333
13724WAT     H141414   7.285   5.574   0.392
13724WAT     H241415   7.435   5.559   0.329
13725WAT      O41416   2.807   2.042   7.317
13725WAT     H141417   2.852   2.109   7.376
13725WAT     H241418   2.835   2.057   7.222
13726WAT      O41419   8.994   4.806   8.170
13726WAT     H141420   8.949   4.850   8.248
13726WAT     H241421   9.020   4.713   8.196
13727WAT      O41422   1.945   8.958   6.803
13727WAT     H141423   2.043   8.940   6.813
13727WAT     H241424   1.901   8.949   6.892
13728WAT      O41425   2.374   9.472   6.660
13728WAT     H141426   2.342   9.429   6.576
13728WAT     H241427   2.328   9.432   6.738
13729WAT      O41428   5.981   8.037   9.541
13729WAT     H141429   5.912   8.106   9.523
13729WAT     H241430   5.954   7.950   9.498
13730WAT      O41431   0.442   1.265   4.131
13730WAT     H141432   0.399   1.188   4.178
13730WAT     H241433   0.534   1.240   4.103
13731WAT      O41434   9.772   1.092   8.688
13731WAT     H141435   9.740   1.024   8.754
13731WAT     H241436   9.841   1.150   8.730
13732WAT      O41437   0.456   8.799   7.282
13732WAT     H141438   0.405   8.767   7.202
13732WAT     H241439   0.542   8.749   7.289
13733WAT      O41440   5.354   3.297   0.691
13733WAT     H141441   5.451   3.318   0.687
13733WAT     H241442   5.310   3.355   0.760
13734WAT      O41443   8.034   7.944   5.093
13734WAT     H141444   7.943   7.919   5.126
13734WAT     H241445   8.044   7.916   4.998
13735WAT      O41446   5.629   4.609   7.508
13735WAT     H141447   5.549   4.616   7.448
13735WAT     H241448   5.705   4.660   7.469
13736WAT      O41449   3.480   7.664   2.783
13736WAT     H141450   3.397   7.608   2.787
13736WAT     H241451   3.505   7.693   2.876
13737WAT      O41452   0.237   4.501   7.337
13737WAT     H141453   0.262   4.598   7.332
13737WAT     H241454   0.138   4.492   7.340
13738WAT      O41455   4.337   7.287   6.327
13738WAT     H141456   4.403   7.316   6.396
13738WAT     H241457   4.253   7.339   6.338
13739WAT      O41458   6.767   6.846   5.988
13739WAT     H141459   6.754   6.847   6.087
13739WAT     H241460   6.690   6.892   5.944
13740WAT      O41461   6.937   7.469   6.874
13740WAT     H141462   6.960   7.438   6.782
13740WAT     H241463   7.018   7.466   6.932
13741WAT      O41464   6.709   6.647   2.852
13741WAT     H141465   6.764   6.644   2.769
13741WAT     H241466   6.628   6.703   2.836
13742WAT      O41467   1.619   1.387   1.646
13742WAT     H141468   1.526   1.416   1.664
13742WAT     H241469   1.683   1.441   1.700
13743WAT      O41470   6.264   2.671   4.777
13743WAT     H141471   6.310   2.669   4.688
13743WAT     H241472   6.180   2.618   4.772
13744WAT      O41473   8.876   7.999   3.328
13744WAT     H141474   8.846   8.053   3.406
13744WAT     H241475   8.913   8.060   3.257
13745WAT      O41476   1.385   8.468   0.391
13745WAT     H141477   1.306   8.434   0.443
13745WAT     H241478   1.469   8.438   0.436
13746WAT      O41479   1.915   2.711   9.057
13746WAT     H141480   1.959   2.791   9.017
13746WAT     H241481   1.848   2.741   9.125
13747WAT      O41482   5.076   5.948   9.520
13747WAT     H141483   5.029   6.020   9.470
13747WAT     H241484   5.142   5.902   9.460
13748WAT      O41485   2.381   7.930   3.443
13748WAT     H141486   2.322   7.945   3.522
13748WAT     H241487   2.325   7.934   3.359
13749WAT      O41488   9.746   8.107   5.487
13749WAT     H141489   9.744   8.102   5.387
13749WAT     H241490   9.742   8.015   5.525
13750WAT      O41491   0.096   3.688   4.005
13750WAT     H141492   0.059   3.670   3.914
13750WAT     H241493   0.044   3.761   4.049
13751WAT      O41494   7.262   1.779   1.735
13751WAT     H141495   7.260   1.681   1.757
13751WAT     H241496   7.172   1.818   1.750
13752WAT      O41497   8.572   6.109   9.148
13752WAT     H141498   8.651   6.137   9.093
13752WAT     H241499   8.551   6.179   9.215
13753WAT      O41500   6.603   1.736   9.480
13753WAT     H141501   6.684   1.705   9.531
13753WAT     H241502   6.545   1.790   9.541
13754WAT      O41503   4.177   4.509   4.574
13754WAT     H141504   4.127   4.428   4.603
13754WAT     H241505   4.171   4.518   4.474
13755WAT      O41506   5.756   7.643   5.323
13755WAT     H141507   5.685   7.679   5.383
13755WAT     H241508   5.841   7.632   5.374
13756WAT      O41509   3.939   3.119   7.696
13756WAT     H141510   3.975   3.066   7.620
13756WAT     H241511   4.000   3.196   7.716
13757WAT      O41512   4.266   2.656   1.567
13757WAT     H141513   4.263   2.622   1.661
13757WAT     H241514   4.320   2.594   1.511
13758WAT      O41515   0.702   3.003   8.044
13758WAT     H141516   0.645   3.073   8.088
13758WAT     H241517   0.645   2.946   7.985
13759WAT      O41518   3.987   3.797   3.408
13759WAT     H141519   3.959   3.733   3.479
13759WAT     H241520   3.910   3.816   3.347
13760WAT      O41521   0.622   7.820   3.397
13760WAT     H141522   0.597   7.814   3.494
13760WAT     H241523   0.620   7.915   3.368
13761WAT      O41524   4.654   5.255   3.917
13761WAT     H141525   4.651   5.155   3.913
13761WAT     H241526   4.580   5.288   3.976
13762WAT      O41527   3.913   2.535   6.172
13762WAT     H141528   3.900   2.633   6.189
13762WAT     H241529   4.000   2.506   6.211
13763WAT      O41530   4.142   7.389   4.877
13763WAT     H141531   4.228   7.423   4.915
13763WAT     H241532   4.145   7.396   4.777
13764WAT      O41533   1.196   3.231   1.471
13764WAT     H141534   1.279   3.242   1.416
13764WAT     H241535   1.177   3.317   1.518
13765WAT      O41536   8.467   1.416   5.124
13765WAT     H141537   8.507   1.363   5.049
13765WAT     H241538   8.468   1.360   5.207
13766WAT      O41539   9.389   5.156   3.883
13766WAT     H141540   9.386   5.059   3.857
13766WAT     H241541   9.475   5.175   3.929
13767WAT      O41542   7.468   1.969   2.053
13767WAT     H141543   7.453   2.034   1.979
13767WAT     H241544   7.468   2.018   2.140
13768WAT      O41545   8.706   4.478   0.351
13768WAT     H141546   8.662   4.521   0.272
13768WAT     H241547   8.799   4.514   0.360
13769WAT      O41548   0.664   8.377   2.529
13769WAT     H141549   0.587   8.333   2.484
13769WAT     H241550   0.649   8.381   2.627
13770WAT      O41551   6.847   1.640   9.197
13770WAT     H141552   6.780   1.604   9.132
13770WAT     H241553   6.939   1.623   9.161
13771WAT      O41554   6.349   9.392   7.186
13771WAT     H141555   6.299   9.478   7.200
13771WAT     H241556   6.289   9.326   7.141
13772WAT      O41557   5.658   8.104   5.160
13772WAT     H141558   5.735   8.159   5.195
13772WAT     H241559   5.686   8.009   5.152
13773WAT      O41560   2.124   8.198   1.804
13773WAT     H141561   2.102   8.133   1.877
13773WAT     H241562   2.129   8.150   1.716
13774WAT      O41563   1.717   8.906   8.463
13774WAT     H141564   1.768   8.820   8.458
13774WAT     H241565   1.722   8.953   8.375
13775WAT      O41566   5.517   3.111   0.270
13775WAT     H141567   5.490   3.080   0.361
13775WAT     H241568   5.516   3.033   0.207
13776WAT      O41569   1.182   8.595   6.324
13776WAT     H141570   1.206   8.632   6.414
13776WAT     H241571   1.111   8.652   6.282
13777WAT      O41572   0.959   4.706   1.662
13777WAT     H141573   0.933   4.729   1.568
13777WAT     H241574   0.878   4.672   1.711
13778WAT      O41575   1.522   8.481   2.735
13778WAT     H141576   1.541   8.382   2.733
13778WAT     H241577   1.600   8.530   2.697
13779WAT      O41578   8.778   0.405   1.259
13779WAT     H141579   8.873   0.373   1.253
13779WAT     H241580   8.717   0.340   1.214
13780WAT      O41581   0.738   6.540   4.127
13780WAT     H141582   0.834   6.534   4.101
13780WAT     H241583   0.687   6.590   4.058
13781WAT      O41584   1.407   6.191   6.983
13781WAT     H141585   1.482   6.173   6.919
13781WAT     H241586   1.445   6.205   7.075
13782WAT      O41587   4.068   7.318   0.277
13782WAT     H141588   4.139   7.349   0.214
13782WAT     H241589   3.997   7.268   0.227
13783WAT      O41590   5.934   8.865   7.282
13783WAT     H141591   6.017   8.918   7.270
13783WAT     H241592   5.855   8.918   7.252
13784WAT      O41593   7.604   2.100   2.757
13784WAT     H141594   7.574   2.064   2.845
13784WAT     H241595   7.679   2.043   2.722
13785WAT      O41596   1.369   7.528   0.587
13785WAT     H141597   1.429   7.598   0.550
13785WAT     H241598   1.386   7.517   0.685
13786WAT      O41599   8.664   5.006   6.601
13786WAT     H141600   8.712   5.009   6.513
13786WAT     H241601   8.669   5.096   6.645
13787WAT      O41602   1.313   1.120   4.970
13787WAT     H141603   1.260   1.086   4.893
13787WAT     H241604   1.262   1.191   5.018
13788WAT      O41605   9.828   0.259   4.362
13788WAT     H141606   9.897   0.286   4.295
13788WAT     H241607   9.781   0.340   4.396
13789WAT      O41608   2.673   5.070   0.865
13789WAT     H141609   2.592   5.055   0.808
13789WAT     H241610   2.663   5.018   0.950
13790WAT      O41611   5.320   1.012   9.322
13790WAT     H141612   5.304   0.918   9.289
13790WAT     H241613   5.254   1.034   9.394
13791WAT      O41614   6.771   3.743   0.570
13791WAT     H141615   6.684   3.697   0.586
13791WAT     H241616   6.845   3.675   0.575
13792WAT      O41617   5.483   6.354   1.176
13792WAT     H141618   5.475   6.452   1.193
13792WAT     H241619   5.395   6.310   1.190
13793WAT      O41620   0.823   9.553   1.692
13793WAT     H141621   0.769   9.634   1.715
13793WAT     H241622   0.894   9.540   1.762
13794WAT      O41623   8.395   6.340   0.108
13794WAT     H141624   8.333   6.301   0.176
13794WAT     H241625   8.416   6.435   0.132
13795WAT      O41626   8.775   8.831   0.907
13795WAT     H141627   8.733   8.752   0.861
13795WAT     H241628   8.706   8.901   0.923
13796WAT      O41629   5.215   3.470   5.806
13796WAT     H141630   5.149   3.416   5.858
13796WAT     H241631   5.236   3.554   5.856
13797WAT      O41632   3.867   2.317   2.961
13797WAT     H141633   3.927   2.298   2.883
13797WAT     H241634   3.772   2.311   2.932
13798WAT      O41635   3.344   7.920   5.121
13798WAT     H141636   3.251   7.951   5.100
13798WAT     H241637   3.409   7.963   5.058
13799WAT      O41638   5.931   1.749   7.817
13799WAT     H141639   5.848   1.760   7.762
13799WAT     H241640   6.007   1.722   7.759
13800WAT      O41641   6.314   1.388   5.793
13800WAT     H141642   6.345   1.326   5.865
13800WAT     H241643   6.240   1.446   5.829
13801WAT      O41644   8.559   5.735   0.236
13801WAT     H141645   8.512   5.712   0.151
13801WAT     H241646   8.590   5.830   0.233
13802WAT      O41647   9.254   2.036   5.814
13802WAT     H141648   9.246   2.106   5.886
13802WAT     H241649   9.283   1.950   5.855
13803WAT      O41650   6.608   9.293   7.896
13803WAT     H141651   6.570   9.216   7.948
13803WAT     H241652   6.541   9.326   7.830
13804WAT      O41653   6.338   3.521   1.123
13804WAT     H141654   6.408   3.570   1.177
13804WAT     H241655   6.289   3.586   1.066
13805WAT      O41656   3.735   4.941   2.163
13805WAT     H141657   3.655   4.909   2.113
13805WAT     H241658   3.723   5.038   2.186
13806WAT      O41659   1.795   2.918   0.658
13806WAT     H141660   1.826   2.997   0.712
13806WAT     H241661   1.712   2.881   0.699
13807WAT      O41662   1.469   5.331   0.946
13807WAT     H141663   1.560   5.333   0.985
13807WAT     H241664   1.475   5.321   0.846
13808WAT      O41665   5.855   8.612   5.855
13808WAT     H141666   5.821   8.526   5.818
13808WAT     H241667   5.946   8.630   5.819
13809WAT      O41668   9.539   0.939   8.563
13809WAT     H141669   9.604   0.867   8.588
13809WAT     H241670   9.587   1.027   8.563
13810WAT      O41671   9.760   4.750   1.570
13810WAT     H141672   9.707   4.690   1.630
13810WAT     H241673   9.825   4.696   1.517
13811WAT      O41674   8.182   9.742   7.180
13811WAT     H141675   8.272   9.714   7.214
13811WAT     H241676   8.142   9.807   7.244
13812WAT      O41677   7.799   8.748   7.168
13812WAT     H141678   7.878   8.778   7.115
13812WAT     H241679   7.770   8.821   7.230
13813WAT      O41680   3.007   6.120   2.277
13813WAT     H141681   2.985   6.029   2.241
13813WAT     H241682   3.101   6.144   2.252
13814WAT      O41683   5.797   9.567   5.608
13814WAT     H141684   5.824   9.578   5.704
13814WAT     H241685   5.785   9.656   5.566
13815WAT      O41686   8.383   0.020   5.577
13815WAT     H141687   8.356   0.039   5.671
13815WAT     H241688   8.433   0.099   5.540
13816WAT      O41689   1.827   7.759   5.061
13816WAT     H141690   1.816   7.750   5.160
13816WAT     H241691   1.738   7.747   5.017
13817WAT      O41692   4.367   5.892   1.875
13817WAT     H141693   4.332   5.937   1.957
13817WAT     H241694   4.454   5.933   1.847
13818WAT      O41695   9.593   9.340   3.415
13818WAT     H141696   9.495   9.322   3.416
13818WAT     H241697   9.642   9.259   3.380
13819WAT      O41698   0.751   1.123   5.146
13819WAT     H141699   0.712   1.060   5.213
13819WAT     H241700   0.851   1.115   5.148
13820WAT      O41701   0.316   9.782   3.220
13820WAT     H141702   0.335   9.830   3.305
13820WAT     H241703   0.218   9.764   3.212
13821WAT      O41704   4.271   6.133   3.408
13821WAT     H141705   4.257   6.140   3.507
13821WAT     H241706   4.354   6.079   3.390
13822WAT      O41707   2.564   4.630   9.706
13822WAT     H141708   2.488   4.695   9.707
13822WAT     H241709   2.566   4.583   9.618
13823WAT      O41710   8.149   4.792   5.712
13823WAT     H141711   8.097   4.707   5.703
13823WAT     H241712   8.219   4.781   5.782
13824WAT      O41713   0.770   9.490   7.038
13824WAT     H141714   0.860   9.524   7.065
13824WAT     H241715   0.777   9.392   7.017
13825WAT      O41716   1.034   7.386   6.324
13825WAT     H141717   1.013   7.319   6.395
13825WAT     H241718   1.130   7.414   6.332
13826WAT      O41719   7.695   1.579   2.465
13826WAT     H141720   7.714   1.516   2.541
13826WAT     H241721   7.606   1.622   2.480
13827WAT      O41722   2.439   7.516   0.686
13827WAT     H141723   2.362   7.453   0.686
13827WAT     H241724   2.464   7.539   0.780
13828WAT      O41725   4.690   5.733   2.051
13828WAT     H141726   4.786   5.759   2.048
13828WAT     H241727   4.676   5.650   1.996
13829WAT      O41728   0.696   9.664   4.983
13829WAT     H141729   0.791   9.685   4.960
13829WAT     H241730   0.647   9.749   5.003
13830WAT      O41731   1.238   1.407   8.226
13830WAT     H141732   1.242   1.351   8.308
13830WAT     H241733   1.164   1.375   8.167
13831WAT      O41734   5.181   8.022   5.698
13831WAT     H141735   5.162   8.006   5.795
13831WAT     H241736   5.249   7.956   5.666
13832WAT      O41737   6.209   4.195   5.926
13832WAT     H141738   6.109   4.187   5.933
13832WAT     H241739   6.234   4.221   5.833
13833WAT      O41740   5.691   7.220   3.396
13833WAT     H141741   5.714   7.260   3.307
13833WAT     H241742   5.771   7.226   3.456
13834WAT      O41743   7.514   5.488   3.733
13834WAT     H141744   7.418   5.465   3.751
13834WAT     H241745   7.536   5.469   3.638
13835WAT      O41746   0.069   3.120   2.726
13835WAT     H141747   0.110   3.142   2.637
13835WAT     H241748   0.122   3.047   2.769
13836WAT      O41749   7.522   3.907   9.717
13836WAT     H141750   7.470   3.964   9.652
13836WAT     H241751   7.620   3.920   9.701
13837WAT      O41752   7.999   3.795   2.456
13837WAT     H141753   8.092   3.833   2.459
13837WAT     H241754   7.932   3.869   2.461
13838WAT      O41755   9.765   8.539   6.167
13838WAT     H141756   9.691   8.472   6.167
13838WAT     H241757   9.778   8.575   6.259
13839WAT      O41758   9.420   5.371   4.428
13839WAT     H141759   9.388   5.284   4.466
13839WAT     H241760   9.455   5.428   4.502
13840WAT      O41761   5.748   0.927   9.179
13840WAT     H141762   5.745   0.962   9.273
13840WAT     H241763   5.692   0.985   9.120
13841WAT      O41764   6.335   4.084   6.464
13841WAT     H141765   6.262   4.046   6.522
13841WAT     H241766   6.310   4.075   6.368
13842WAT      O41767   9.573   6.778   2.222
13842WAT     H141768   9.569   6.818   2.313
13842WAT     H241769   9.504   6.821   2.164
13843WAT      O41770   9.216   1.618   4.933
13843WAT     H141771   9.243   1.618   5.029
13843WAT     H241772   9.116   1.627   4.926
13844WAT      O41773   5.592   8.493   2.487
13844WAT     H141774   5.609   8.483   2.389
13844WAT     H241775   5.661   8.553   2.527
13845WAT      O41776   0.758   0.444   7.908
13845WAT     H141777   0.683   0.490   7.955
13845WAT     H241778   0.813   0.392   7.974
13846WAT      O41779   5.117   6.806   9.386
13846WAT     H141780   5.164   6.730   9.341
13846WAT     H241781   5.054   6.849   9.322
13847WAT      O41782   7.441   6.130   8.705
13847WAT     H141783   7.411   6.163   8.795
13847WAT     H241784   7.491   6.202   8.658
13848WAT      O41785   5.663   5.120   6.863
13848WAT     H141786   5.619   5.139   6.951
13848WAT     H241787   5.757   5.089   6.879
13849WAT      O41788   0.824   7.308   1.357
13849WAT     H141789   0.889   7.268   1.422
13849WAT     H241790   0.731   7.304   1.396
13850WAT      O41791   8.069   6.966   1.608
13850WAT     H141792   8.022   6.908   1.542
13850WAT     H241793   8.134   7.025   1.561
13851WAT      O41794   7.619   5.375   6.152
13851WAT     H141795   7.544   5.384   6.086
13851WAT     H241796   7.675   5.457   6.152
13852WAT      O41797   5.056   3.694   1.474
13852WAT     H141798   5.066   3.657   1.382
13852WAT     H241799   5.144   3.694   1.520
13853WAT      O41800   5.906   0.096   2.879
13853WAT     H141801   5.821   0.043   2.889
13853WAT     H241802   5.984   0.037   2.898
13854WAT      O41803   9.366   9.613   3.542
13854WAT     H141804   9.460   9.596   3.511
13854WAT     H241805   9.303   9.595   3.467
13855WAT      O41806   7.415   2.138   9.127
13855WAT     H141807   7.351   2.095   9.190
13855WAT     H241808   7.505   2.095   9.138
13856WAT      O41809   0.794   6.437   7.612
13856WAT     H141810   0.794   6.537   7.612
13856WAT     H241811   0.864   6.404   7.549
13857WAT      O41812   0.472   0.832   6.307
13857WAT     H141813   0.549   0.777   6.274
13857WAT     H241814   0.453   0.809   6.402
13858WAT      O41815   3.356   4.022   0.740
13858WAT     H141816   3.342   3.960   0.817
13858WAT     H241817   3.446   4.064   0.747
13859WAT      O41818   7.310   0.058   4.370
13859WAT     H141819   7.260   0.128   4.420
13859WAT     H241820   7.408   0.069   4.386
13860WAT      O41821   2.786   2.072   5.369
13860WAT     H141822   2.804   2.142   5.438
13860WAT     H241823   2.770   1.984   5.414
13861WAT      O41824   8.280   0.212   8.067
13861WAT     H141825   8.332   0.265   8.000
13861WAT     H241826   8.213   0.155   8.020
13862WAT      O41827   8.421   0.131   3.972
13862WAT     H141828   8.348   0.063   3.978
13862WAT     H241829   8.496   0.094   3.917
13863WAT      O41830   0.762   4.195   2.720
13863WAT     H141831   0.725   4.166   2.809
13863WAT     H241832   0.850   4.240   2.735
13864WAT      O41833   1.070   9.532   7.147
13864WAT     H141834   1.159   9.497   7.175
13864WAT     H241835   1.083   9.614   7.092
13865WAT      O41836   6.743   9.192   9.036
13865WAT     H141837   6.813   9.127   9.065
13865WAT     H241838   6.712   9.245   9.115
13866WAT      O41839   5.803   3.309   3.087
13866WAT     H141840   5.859   3.310   3.170
13866WAT     H241841   5.771   3.402   3.067
13867WAT      O41842   6.919   4.440   0.683
13867WAT     H141843   7.016   4.464   0.691
13867WAT     H241844   6.901   4.356   0.734
13868WAT      O41845   3.348   9.231   9.421
13868WAT     H141846   3.290   9.179   9.358
13868WAT     H241847   3.419   9.171   9.459
13869WAT      O41848   0.606   5.832   5.595
13869WAT     H141849   0.667   5.895   5.546
13869WAT     H241850   0.521   5.880   5.618
13870WAT      O41851   6.819   3.130   5.989
13870WAT     H141852   6.841   3.034   6.008
13870WAT     H241853   6.841   3.185   6.069
13871WAT      O41854   2.494   3.132   9.665
13871WAT     H141855   2.443   3.160   9.584
13871WAT     H241856   2.592   3.138   9.647
13872WAT      O41857   9.017   4.712   4.458
13872WAT     H141858   9.007   4.731   4.556
13872WAT     H241859   9.012   4.797   4.406
13873WAT      O41860   8.983   1.369   4.412
13873WAT     H141861   8.959   1.325   4.499
13873WAT     H241862   9.000   1.298   4.343
13874WAT      O41863   8.123   4.708   0.329
13874WAT     H141864   8.050   4.768   0.296
13874WAT     H241865   8.082   4.629   0.376
13875WAT      O41866   8.443   0.660   6.628
13875WAT     H141867   8.422   0.640   6.533
13875WAT     H241868   8.385   0.736   6.660
13876WAT      O41869   8.104   9.145   2.392
13876WAT     H141870   8.174   9.177   2.456
13876WAT     H241871   8.030   9.101   2.442
13877WAT      O41872   1.571   6.383   3.558
13877WAT     H141873   1.494   6.395   3.495
13877WAT     H241874   1.555   6.301   3.614
13878WAT      O41875   7.277   0.706   8.600
13878WAT     H141876   7.260   0.609   8.583
13878WAT     H241877   7.204   0.743   8.657
13879WAT      O41878   9.163   5.540   9.576
13879WAT     H141879   9.214   5.614   9.532
13879WAT     H241880   9.135   5.569   9.667
13880WAT      O41881   5.022   9.166   5.064
13880WAT     H141882   5.039   9.105   5.142
13880WAT     H241883   5.109   9.198   5.028
13881WAT      O41884   6.346   0.503   4.096
13881WAT     H141885   6.290   0.447   4.157
13881WAT     H241886   6.396   0.443   4.033
13882WAT      O41887   5.137   2.968   8.326
13882WAT     H141888   5.100   2.889   8.277
13882WAT     H241889   5.087   2.981   8.411
13883WAT      O41890   6.276   7.537   6.165
13883WAT     H141891   6.235   7.448   6.184
13883WAT     H241892   6.323   7.533   6.076
13884WAT      O41893   5.086   0.786   3.437
13884WAT     H141894   5.015   0.779   3.507
13884WAT     H241895   5.046   0.769   3.347
13885WAT      O41896   3.402   7.340   0.770
13885WAT     H141897   3.500   7.323   0.770
13885WAT     H241898   3.365   7.322   0.862
13886WAT      O41899   9.478   3.171   4.159
13886WAT     H141900   9.533   3.253   4.146
13886WAT     H241901   9.455   3.161   4.256
13887WAT      O41902   1.050   3.409   2.206
13887WAT     H141903   0.994   3.366   2.277
13887WAT     H241904   0.995   3.421   2.123
13888WAT      O41905   3.026   5.408   9.204
13888WAT     H141906   3.025   5.504   9.177
13888WAT     H241907   2.962   5.394   9.280
13889WAT      O41908   2.876   8.574   4.739
13889WAT     H141909   2.794   8.549   4.688
13889WAT     H241910   2.943   8.614   4.677
13890WAT      O41911   3.815   8.814   7.165
13890WAT     H141912   3.831   8.910   7.188
13890WAT     H241913   3.867   8.791   7.082
13891WAT      O41914   3.999   0.089   8.536
13891WAT     H141915   4.070   0.042   8.483
13891WAT     H241916   4.025   0.185   8.548
13892WAT      O41917   6.800   6.665   5.653
13892WAT     H141918   6.703   6.682   5.634
13892WAT     H241919   6.813   6.660   5.752
13893WAT      O41920   8.116   8.523   4.643
13893WAT     H141921   8.043   8.498   4.707
13893WAT     H241922   8.133   8.622   4.649
13894WAT      O41923   6.009   9.783   9.890
13894WAT     H141924   5.965   9.790   9.980
13894WAT     H241925   5.974   9.854   9.830
13895WAT      O41926   7.932   0.252   4.953
13895WAT     H141927   7.866   0.299   5.012
13895WAT     H241928   7.933   0.296   4.863
13896WAT      O41929   2.109   3.428   5.667
13896WAT     H141930   2.168   3.438   5.747
13896WAT     H241931   2.039   3.499   5.668
13897WAT      O41932   4.882   6.500   2.957
13897WAT     H141933   4.816   6.548   2.899
13897WAT     H241934   4.869   6.402   2.947
13898WAT      O41935   2.954   6.021   8.749
13898WAT     H141936   3.038   5.970   8.767
13898WAT     H241937   2.920   5.998   8.658
13899WAT      O41938   0.570   8.988   9.376
13899WAT     H141939   0.541   9.006   9.471
13899WAT     H241940   0.500   9.022   9.313
13900WAT      O41941   1.221   6.354   1.163
13900WAT     H141942   1.269   6.398   1.086
13900WAT     H241943   1.281   6.356   1.244
13901WAT      O41944   7.091   2.207   4.180
13901WAT     H141945   7.121   2.297   4.149
13901WAT     H241946   7.159   2.139   4.153
13902WAT      O41947   2.630   4.714   6.621
13902WAT     H141948   2.716   4.724   6.670
13902WAT     H241949   2.648   4.694   6.525
13903WAT      O41950   0.517   5.746   4.589
13903WAT     H141951   0.473   5.695   4.663
13903WAT     H241952   0.447   5.778   4.524
13904WAT      O41953   9.570   9.421   0.764
13904WAT     H141954   9.514   9.471   0.830
13904WAT     H241955   9.647   9.378   0.812
13905WAT      O41956   1.220   7.116   6.676
13905WAT     H141957   1.287   7.159   6.615
13905WAT     H241958   1.228   7.017   6.669
13906WAT      O41959   9.645   5.728   0.102
13906WAT     H141960   9.730   5.679   0.081
13906WAT     H241961   9.665   5.825   0.116
13907WAT      O41962   2.770   0.208   7.473
13907WAT     H141963   2.715   0.144   7.420
13907WAT     H241964   2.745   0.201   7.570
13908WAT      O41965   8.961   9.716   3.091
13908WAT     H141966   8.964   9.680   2.998
13908WAT     H241967   8.872   9.759   3.108
13909WAT      O41968   5.633   2.873   7.998
13909WAT     H141969   5.546   2.843   8.037
13909WAT     H241970   5.672   2.799   7.943
13910WAT      O41971   3.987   0.330   3.459
13910WAT     H141972   3.901   0.298   3.419
13910WAT     H241973   4.036   0.386   3.392
13911WAT      O41974   2.199   7.929   0.102
13911WAT     H141975   2.183   8.000   0.033
13911WAT     H241976   2.252   7.855   0.060
13912WAT      O41977   1.817   0.600   0.839
13912WAT     H141978   1.747   0.582   0.770
13912WAT     H241979   1.905   0.613   0.794
13913WAT      O41980   6.456   2.249   1.590
13913WAT     H141981   6.466   2.333   1.643
13913WAT     H241982   6.494   2.263   1.498
13914WAT      O41983   2.896   3.690   7.191
13914WAT     H141984   2.976   3.630   7.204
13914WAT     H241985   2.916   3.780   7.229
13915WAT      O41986   6.388   5.887   5.636
13915WAT     H141987   6.400   5.870   5.734
13915WAT     H241988   6.323   5.963   5.624
13916WAT      O41989   7.258   8.687   1.977
13916WAT     H141990   7.168   8.652   2.002
13916WAT     H241991   7.259   8.787   1.983
13917WAT      O41992   3.029   6.441   4.426
13917WAT     H141993   2.949   6.476   4.474
13917WAT     H241994   3.103   6.423   4.491
13918WAT      O41995   3.794   3.544   3.845
13918WAT     H141996   3.777   3.499   3.933
13918WAT     H241997   3.835   3.634   3.861
13919WAT      O41998   8.913   0.223   4.664
13919WAT     H141999   8.950   0.302   4.616
13919WAT     H242000   8.860   0.255   4.744
13920WAT      O42001   0.169   2.448   9.250
13920WAT     H142002   0.176   2.361   9.299
13920WAT     H242003   0.151   2.431   9.153
13921WAT      O42004   0.341   1.009   7.802
13921WAT     H142005   0.428   1.027   7.756
13921WAT     H242006   0.337   1.062   7.887
13922WAT      O42007   2.587   5.037   8.063
13922WAT     H142008   2.555   5.077   8.149
13922WAT     H242009   2.578   4.938   8.067
13923WAT      O42010   9.248   1.161   1.599
13923WAT     H142011   9.210   1.075   1.631
13923WAT     H242012   9.251   1.227   1.675
13924WAT      O42013   2.672   5.751   5.762
13924WAT     H142014   2.636   5.821   5.701
13924WAT     H242015   2.738   5.694   5.713
13925WAT      O42016   7.722   4.203   6.273
13925WAT     H142017   7.694   4.127   6.331
13925WAT     H242018   7.749   4.280   6.331
13926WAT      O42019   5.040   4.046   2.380
13926WAT     H142020   5.037   3.946   2.380
13926WAT     H242021   5.014   4.080   2.289
13927WAT      O42022   5.706   4.180   0.074
13927WAT     H142023   5.652   4.231   0.006
13927WAT     H242024   5.692   4.082   0.061
13928WAT      O42025   6.363   2.934   7.951
13928WAT     H142026   6.441   2.871   7.945
13928WAT     H242027   6.293   2.895   8.010
13929WAT      O42028   9.371   7.645   6.511
13929WAT     H142029   9.435   7.690   6.450
13929WAT     H242030   9.408   7.556   6.539
13930WAT      O42031   6.965   9.624   5.478
13930WAT     H142032   6.873   9.647   5.510
13930WAT     H242033   7.031   9.640   5.551
13931WAT      O42034   9.476   5.277   3.177
13931WAT     H142035   9.565   5.244   3.148
13931WAT     H242036   9.414   5.280   3.098
13932WAT      O42037   7.602   4.945   3.026
13932WAT     H142038   7.539   5.009   2.982
13932WAT     H242039   7.635   4.983   3.112
13933WAT      O42040   3.478   5.580   0.787
13933WAT     H142041   3.410   5.599   0.716
13933WAT     H242042   3.431   5.557   0.872
13934WAT      O42043   5.066   1.631   6.305
13934WAT     H142044   5.089   1.682   6.388
13934WAT     H242045   5.128   1.554   6.294
13935WAT      O42046   5.962   4.510   0.457
13935WAT     H142047   5.994   4.537   0.366
13935WAT     H242048   6.041   4.488   0.515
13936WAT      O42049   0.237   7.455   1.511
13936WAT     H142050   0.234   7.405   1.598
13936WAT     H242051   0.144   7.483   1.487
13937WAT      O42052   7.350   3.858   1.596
13937WAT     H142053   7.388   3.806   1.673
13937WAT     H242054   7.408   3.937   1.576
13938WAT      O42055   8.386   2.064   4.630
13938WAT     H142056   8.316   2.085   4.699
13938WAT     H242057   8.340   2.043   4.543
13939WAT      O42058   4.688   4.287   7.895
13939WAT     H142059   4.684   4.281   7.995
13939WAT     H242060   4.598   4.311   7.859
13940WAT      O42061   0.039   7.446   4.626
13940WAT     H142062   0.031   7.426   4.529
13940WAT     H242063   0.135   7.445   4.653
13941WAT      O42064   4.260   0.870   9.282
13941WAT     H142065   4.357   0.891   9.287
13941WAT     H242066   4.214   0.938   9.225
13942WAT      O42067   5.075   4.467   7.780
13942WAT     H142068   5.113   4.519   7.703
13942WAT     H242069   4.976   4.478   7.781
13943WAT      O42070   3.591   8.912   4.561
13943WAT     H142071   3.503   8.916   4.513
13943WAT     H242072   3.597   8.987   4.627
13944WAT      O42073   2.142   0.273   0.557
13944WAT     H142074   2.075   0.228   0.617
13944WAT     H242075   2.215   0.208   0.535
13945WAT      O42076   8.171   0.774   5.174
13945WAT     H142077   8.207   0.853   5.125
13945WAT     H242078   8.247   0.720   5.212
13946WAT      O42079   2.921   3.741   4.866
13946WAT     H142080   2.834   3.790   4.867
13946WAT     H242081   2.934   3.695   4.954
13947WAT      O42082   2.493   2.944   4.874
13947WAT     H142083   2.435   2.865   4.854
13947WAT     H242084   2.581   2.912   4.910
13948WAT      O42085   6.040   1.681   2.803
13948WAT     H142086   6.055   1.722   2.712
13948WAT     H242087   6.100   1.726   2.869
13949WAT      O42088   9.818   6.470   7.249
13949WAT     H142089   9.725   6.493   7.218
13949WAT     H242090   9.812   6.409   7.328
13950WAT      O42091   7.469   1.294   2.342
13950WAT     H142092   7.448   1.296   2.440
13950WAT     H242093   7.562   1.259   2.329
13951WAT      O42094   1.001   7.173   1.544
13951WAT     H142095   0.964   7.080   1.541
13951WAT     H242096   1.091   7.174   1.500
13952WAT      O42097   5.243   3.841   3.708
13952WAT     H142098   5.336   3.879   3.702
13952WAT     H242099   5.180   3.899   3.656
13953WAT      O42100   6.240   0.992   6.832
13953WAT     H142101   6.140   0.992   6.820
13953WAT     H242102   6.280   1.067   6.780
13954WAT      O42103   6.121   9.590   1.633
13954WAT     H142104   6.201   9.611   1.689
13954WAT     H242105   6.118   9.492   1.614
13955WAT      O42106   4.136   6.276   3.758
13955WAT     H142107   4.170   6.363   3.722
13955WAT     H242108   4.086   6.292   3.843
13956WAT      O42109   4.446   3.949   9.807
13956WAT     H142110   4.482   3.952   9.901
13956WAT     H242111   4.347   3.932   9.811
13957WAT      O42112   0.059   6.962   3.257
13957WAT     H142113  -0.032   6.940   3.291
13957WAT     H242114   0.118   6.881   3.267
13958WAT      O42115   5.158   1.619   9.835
13958WAT     H142116   5.089   1.552   9.810
13958WAT     H242117   5.129   1.669   9.916
13959WAT      O42118   0.393   0.225   1.205
13959WAT     H142119   0.490   0.203   1.198
13959WAT     H242120   0.344   0.190   1.125
13960WAT      O42121   4.152   7.902   4.788
13960WAT     H142122   4.078   7.881   4.852
13960WAT     H242123   4.197   7.817   4.760
13961WAT      O42124   5.541   6.548   1.838
13961WAT     H142125   5.447   6.523   1.862
13961WAT     H242126   5.564   6.510   1.748
13962WAT      O42127   5.159   5.164   9.002
13962WAT     H142128   5.197   5.072   9.012
13962WAT     H242129   5.120   5.193   9.090
13963WAT      O42130   4.550   0.467   8.980
13963WAT     H142131   4.615   0.541   8.962
13963WAT     H242132   4.590   0.380   8.954
13964WAT      O42133   1.611   5.852   0.363
13964WAT     H142134   1.672   5.835   0.441
13964WAT     H242135   1.583   5.948   0.363
13965WAT      O42136   4.963   9.160   5.449
13965WAT     H142137   4.919   9.237   5.493
13965WAT     H242138   5.062   9.165   5.464
13966WAT      O42139   0.636   4.227   8.501
13966WAT     H142140   0.632   4.327   8.497
13966WAT     H242141   0.706   4.194   8.438
13967WAT      O42142   5.698   2.427   8.793
13967WAT     H142143   5.706   2.489   8.871
13967WAT     H242144   5.630   2.356   8.814
13968WAT      O42145   5.938   2.792   5.128
13968WAT     H142146   5.921   2.729   5.204
13968WAT     H242147   5.896   2.755   5.045
13969WAT      O42148   4.768   3.615   2.408
13969WAT     H142149   4.709   3.609   2.488
13969WAT     H242150   4.730   3.682   2.343
13970WAT      O42151   0.041   7.766   1.744
13970WAT     H142152   0.121   7.820   1.719
13970WAT     H242153   0.037   7.755   1.843
13971WAT      O42154   0.840   9.087   9.408
13971WAT     H142155   0.870   9.162   9.349
13971WAT     H242156   0.749   9.057   9.379
13972WAT      O42157   5.581   6.543   3.889
13972WAT     H142158   5.589   6.446   3.869
13972WAT     H242159   5.495   6.578   3.853
13973WAT      O42160   0.080   7.082   0.598
13973WAT     H142161   0.155   7.106   0.659
13973WAT     H242162   0.112   7.081   0.503
13974WAT      O42163   6.918   1.469   8.179
13974WAT     H142164   6.911   1.370   8.175
13974WAT     H242165   6.946   1.496   8.272
13975WAT      O42166   1.710   1.693   3.159
13975WAT     H142167   1.708   1.743   3.246
13975WAT     H242168   1.748   1.751   3.087
13976WAT      O42169   6.085   4.946   9.380
13976WAT     H142170   6.009   4.898   9.337
13976WAT     H242171   6.158   4.882   9.401
13977WAT      O42172   4.385   7.145   4.687
13977WAT     H142173   4.309   7.086   4.714
13977WAT     H242174   4.464   7.089   4.664
13978WAT      O42175   2.164   4.666   2.164
13978WAT     H142176   2.255   4.687   2.200
13978WAT     H242177   2.113   4.751   2.153
13979WAT      O42178   6.763   6.619   1.518
13979WAT     H142179   6.670   6.600   1.487
13979WAT     H242180   6.824   6.624   1.439
13980WAT      O42181   6.383   4.618   0.834
13980WAT     H142182   6.385   4.608   0.934
13980WAT     H242183   6.412   4.710   0.809
13981WAT      O42184   0.494   0.229   9.234
13981WAT     H142185   0.411   0.183   9.203
13981WAT     H242186   0.487   0.250   9.332
13982WAT      O42187   2.167   5.010   5.503
13982WAT     H142188   2.159   4.971   5.411
13982WAT     H242189   2.107   4.960   5.566
13983WAT      O42190   4.007   8.464   5.599
13983WAT     H142191   4.078   8.532   5.583
13983WAT     H242192   3.981   8.465   5.696
13984WAT      O42193   1.194   2.334   7.531
13984WAT     H142194   1.167   2.347   7.626
13984WAT     H242195   1.113   2.329   7.473
13985WAT      O42196   9.125   2.295   4.514
13985WAT     H142197   9.180   2.231   4.567
13985WAT     H242198   9.138   2.388   4.549
13986WAT      O42199   6.532   0.720   3.327
13986WAT     H142200   6.595   0.741   3.253
13986WAT     H242201   6.551   0.780   3.405
13987WAT      O42202   7.836   4.532   5.342
13987WAT     H142203   7.799   4.485   5.422
13987WAT     H242204   7.779   4.612   5.321
13988WAT      O42205   0.860   0.052   3.291
13988WAT     H142206   0.796   0.124   3.319
13988WAT     H242207   0.812  -0.016   3.236
13989WAT      O42208   7.815   4.127   2.741
13989WAT     H142209   7.727   4.113   2.696
13989WAT     H242210   7.804   4.188   2.819
13990WAT      O42211   9.191   9.525   9.649
13990WAT     H142212   9.184   9.619   9.680
13990WAT     H242213   9.099   9.485   9.642
13991WAT      O42214   6.913   4.686   2.529
13991WAT     H142215   6.852   4.727   2.461
13991WAT     H242216   6.889   4.590   2.541
13992WAT      O42217   1.021   8.027   5.153
13992WAT     H142218   0.944   7.979   5.195
13992WAT     H242219   0.992   8.119   5.126
13993WAT      O42220   6.675   9.275   4.035
13993WAT     H142221   6.662   9.201   4.101
13993WAT     H242222   6.765   9.265   3.992
13994WAT      O42223   6.703   2.235   5.105
13994WAT     H142224   6.615   2.190   5.118
13994WAT     H242225   6.714   2.262   5.009
13995WAT      O42226   8.222   9.776   4.024
13995WAT     H142227   8.199   9.682   4.049
13995WAT     H242228   8.172   9.802   3.942
13996WAT      O42229   0.877   8.341   3.977
13996WAT     H142230   0.967   8.298   3.971
13996WAT     H242231   0.853   8.357   4.073
13997WAT      O42232   5.765   0.712   3.509
13997WAT     H142233   5.830   0.788   3.503
13997WAT     H242234   5.788   0.642   3.441
13998WAT      O42235   9.495   4.369   1.404
13998WAT     H142236   9.571   4.416   1.449
13998WAT     H242237   9.531   4.313   1.329
13999WAT      O42238   9.032   7.218   7.907
13999WAT     H142239   9.008   7.292   7.970
13999WAT     H242240   9.030   7.252   7.813
14000WAT      O42241   0.330   3.745   7.446
14000WAT     H142242   0.362   3.825   7.394
14000WAT     H242243   0.311   3.772   7.540
14001WAT      O42244   7.821   7.185   6.495
14001WAT     H142245   7.872   7.269   6.477
14001WAT     H242246   7.831   7.123   6.417
14002WAT      O42247   3.248   1.088   4.677
14002WAT     H142248   3.323   1.132   4.628
14002WAT     H242249   3.180   1.156   4.702
14003WAT      O42250   8.786   4.668   7.983
14003WAT     H142251   8.806   4.735   8.054
14003WAT     H242252   8.688   4.665   7.966
14004WAT      O42253   7.827   3.418   3.129
14004WAT     H142254   7.832   3.517   3.144
14004WAT     H242255   7.821   3.399   3.031
14005WAT      O42256   0.673   2.349   9.432
14005WAT     H142257   0.600   2.398   9.384
14005WAT     H242258   0.671   2.373   9.529
14006WAT      O42259   6.626   1.779   7.538
14006WAT     H142260   6.656   1.828   7.457
14006WAT     H242261   6.551   1.717   7.515
14007WAT      O42262   3.537   8.275   1.278
14007WAT     H142263   3.619   8.333   1.280
14007WAT     H242264   3.471   8.308   1.345
14008WAT      O42265   3.182   1.557   0.764
14008WAT     H142266   3.218   1.467   0.739
14008WAT     H242267   3.190   1.619   0.686
14009WAT      O42268   9.792   2.650   0.349
14009WAT     H142269   9.775   2.730   0.407
14009WAT     H242270   9.767   2.567   0.399
14010WAT      O42271   3.296   5.551   1.920
14010WAT     H142272   3.290   5.469   1.863
14010WAT     H242273   3.391   5.579   1.928
14011WAT      O42274   7.457   6.032   5.496
14011WAT     H142275   7.408   6.095   5.556
14011WAT     H242276   7.459   5.941   5.537
14012WAT      O42277   7.224   4.979   6.352
14012WAT     H142278   7.200   4.906   6.415
14012WAT     H242279   7.142   5.028   6.323
14013WAT      O42280   5.527   2.405   3.850
14013WAT     H142281   5.611   2.351   3.862
14013WAT     H242282   5.479   2.412   3.937
14014WAT      O42283   2.012   3.293   1.929
14014WAT     H142284   1.928   3.282   1.982
14014WAT     H242285   2.000   3.367   1.862
14015WAT      O42286   5.524   9.425   1.385
14015WAT     H142287   5.595   9.383   1.441
14015WAT     H242288   5.436   9.422   1.434
14016WAT      O42289   6.678   6.132   8.615
14016WAT     H142290   6.596   6.183   8.589
14016WAT     H242291   6.754   6.158   8.555
14017WAT      O42292   1.738   9.043   2.246
14017WAT     H142293   1.744   8.956   2.295
14017WAT     H242294   1.761   9.028   2.150
14018WAT      O42295   1.193   8.259   0.912
14018WAT     H142296   1.206   8.352   0.878
14018WAT     H242297   1.097   8.232   0.902
14019WAT      O42298   0.878   9.491   3.196
14019WAT     H142299   0.793   9.456   3.235
14019WAT     H242300   0.858   9.534   3.107
14020WAT      O42301   2.532   8.362   0.341
14020WAT     H142302   2.552   8.441   0.283
14020WAT     H242303   2.547   8.386   0.437
14021WAT      O42304   2.166   9.101   0.517
14021WAT     H142305   2.229   9.174   0.541
14021WAT     H242306   2.104   9.084   0.594
14022WAT      O42307   5.176   3.484   2.527
14022WAT     H142308   5.270   3.452   2.524
14022WAT     H242309   5.172   3.573   2.572
14023WAT      O42310   2.278   0.136   9.502
14023WAT     H142311   2.239   0.132   9.410
14023WAT     H242312   2.333   0.219   9.511
14024WAT      O42313   1.727   3.514   5.673
14024WAT     H142314   1.705   3.438   5.611
14024WAT     H242315   1.753   3.477   5.763
14025WAT      O42316   1.333   5.937   5.350
14025WAT     H142317   1.238   5.912   5.368
14025WAT     H242318   1.337   5.995   5.268
14026WAT      O42319   7.921   6.077   9.559
14026WAT     H142320   7.852   6.008   9.581
14026WAT     H242321   7.889   6.167   9.588
14027WAT      O42322   7.057   1.615   0.183
14027WAT     H142323   7.054   1.551   0.261
14027WAT     H242324   7.020   1.570   0.102
14028WAT      O42325   2.541   0.532   4.548
14028WAT     H142326   2.458   0.546   4.495
14028WAT     H242327   2.545   0.437   4.579
14029WAT      O42328   2.255   6.288   5.907
14029WAT     H142329   2.266   6.225   5.830
14029WAT     H242330   2.330   6.353   5.909
14030WAT      O42331   5.538   2.566   8.063
14030WAT     H142332   5.502   2.645   8.112
14030WAT     H242333   5.577   2.595   7.976
14031WAT      O42334   2.526   8.074   4.042
14031WAT     H142335   2.524   8.165   4.001
14031WAT     H242336   2.615   8.059   4.086
14032WAT      O42337   1.837   5.765   7.203
14032WAT     H142338   1.829   5.863   7.222
14032WAT     H242339   1.750   5.721   7.223
14033WAT      O42340   6.616   2.746   7.923
14033WAT     H142341   6.630   2.802   7.842
14033WAT     H242342   6.629   2.649   7.900
14034WAT      O42343   7.107   0.173   3.740
14034WAT     H142344   7.008   0.187   3.732
14034WAT     H242345   7.127   0.126   3.826
14035WAT      O42346   2.747   9.174   9.347
14035WAT     H142347   2.673   9.108   9.334
14035WAT     H242348   2.708   9.262   9.373
14036WAT      O42349   3.363   2.112   6.949
14036WAT     H142350   3.277   2.133   6.996
14036WAT     H242351   3.391   2.190   6.893
14037WAT      O42352   1.532   7.477   6.632
14037WAT     H142353   1.565   7.469   6.726
14037WAT     H242354   1.459   7.546   6.628
14038WAT      O42355   2.815   1.536   2.616
14038WAT     H142356   2.847   1.575   2.530
14038WAT     H242357   2.886   1.546   2.686
14039WAT      O42358   6.597   9.190   5.173
14039WAT     H142359   6.668   9.259   5.158
14039WAT     H242360   6.517   9.233   5.214
14040WAT      O42361   5.729   4.628   9.037
14040WAT     H142362   5.703   4.724   9.028
14040WAT     H242363   5.648   4.571   9.040
14041WAT      O42364   6.247   3.673   5.623
14041WAT     H142365   6.331   3.621   5.632
14041WAT     H242366   6.256   3.760   5.672
14042WAT      O42367   4.978   0.975   4.209
14042WAT     H142368   4.966   0.904   4.140
14042WAT     H242369   4.900   0.972   4.273
14043WAT      O42370   9.318   3.663   3.327
14043WAT     H142371   9.263   3.585   3.355
14043WAT     H242372   9.405   3.662   3.376
14044WAT      O42373   8.252   9.458   7.433
14044WAT     H142374   8.323   9.409   7.483
14044WAT     H242375   8.177   9.482   7.495
14045WAT      O42376   6.190   1.931   0.497
14045WAT     H142377   6.224   1.845   0.536
14045WAT     H242378   6.174   1.919   0.399
14046WAT      O42379   6.410   0.769   1.728
14046WAT     H142380   6.481   0.811   1.785
14046WAT     H242381   6.452   0.725   1.649
14047WAT      O42382   3.354   5.796   5.898
14047WAT     H142383   3.324   5.877   5.948
14047WAT     H242384   3.329   5.805   5.802
14048WAT      O42385   5.502   7.703   7.064
14048WAT     H142386   5.450   7.780   7.026
14048WAT     H242387   5.438   7.632   7.093
14049WAT      O42388   7.703   9.737   7.951
14049WAT     H142389   7.613   9.730   7.994
14049WAT     H242390   7.692   9.761   7.855
14050WAT      O42391   6.873   5.566   6.554
14050WAT     H142392   6.886   5.505   6.476
14050WAT     H242393   6.851   5.658   6.522
14051WAT      O42394   5.995   6.112   4.656
14051WAT     H142395   6.020   6.046   4.585
14051WAT     H242396   6.074   6.128   4.715
14052WAT      O42397   7.768   5.951   8.679
14052WAT     H142398   7.752   6.039   8.725
14052WAT     H242399   7.819   5.967   8.595
14053WAT      O42400   1.192   1.255   8.926
14053WAT     H142401   1.233   1.295   9.008
14053WAT     H242402   1.095   1.239   8.941
14054WAT      O42403   9.789   6.077   1.609
14054WAT     H142404   9.752   6.115   1.524
14054WAT     H242405   9.715   6.038   1.663
14055WAT      O42406   7.130   3.248   9.283
14055WAT     H142407   7.155   3.246   9.380
14055WAT     H242408   7.086   3.336   9.262
14056WAT      O42409   3.061   9.180   2.953
14056WAT     H142410   2.979   9.234   2.976
14056WAT     H242411   3.075   9.181   2.854
14057WAT      O42412   0.537   8.597   0.928
14057WAT     H142413   0.579   8.618   0.840
14057WAT     H242414   0.539   8.498   0.943
14058WAT      O42415   8.975   5.745   8.522
14058WAT     H142416   8.961   5.702   8.433
14058WAT     H242417   9.004   5.840   8.509
14059WAT      O42418   9.791   5.389   8.561
14059WAT     H142419   9.791   5.299   8.518
14059WAT     H242420   9.869   5.397   8.623
14060WAT      O42421   1.897   7.552   0.159
14060WAT     H142422   1.963   7.479   0.139
14060WAT     H242423   1.924   7.597   0.245
14061WAT      O42424   3.872   4.268   0.349
14061WAT     H142425   3.813   4.188   0.361
14061WAT     H242426   3.927   4.280   0.431
14062WAT      O42427   6.387   3.672   4.540
14062WAT     H142428   6.343   3.655   4.452
14062WAT     H242429   6.317   3.697   4.607
14063WAT      O42430   8.520   4.006   4.628
14063WAT     H142431   8.551   3.912   4.644
14063WAT     H242432   8.595   4.070   4.646
14064WAT      O42433   3.232   9.072   5.408
14064WAT     H142434   3.208   9.159   5.364
14064WAT     H242435   3.322   9.079   5.450
14065WAT      O42436   0.554   8.471   8.202
14065WAT     H142437   0.553   8.486   8.103
14065WAT     H242438   0.648   8.469   8.235
14066WAT      O42439   9.493   7.922   1.491
14066WAT     H142440   9.475   8.020   1.477
14066WAT     H242441   9.406   7.873   1.498
14067WAT      O42442   3.335   8.772   3.765
14067WAT     H142443   3.343   8.672   3.765
14067WAT     H242444   3.425   8.813   3.779
14068WAT      O42445   0.974   0.403   8.229
14068WAT     H142446   0.874   0.393   8.234
14068WAT     H242447   1.003   0.477   8.289
14069WAT      O42448   7.746   3.593   4.704
14069WAT     H142449   7.680   3.536   4.752
14069WAT     H242450   7.789   3.657   4.767
14070WAT      O42451   1.228   3.508   0.793
14070WAT     H142452   1.257   3.498   0.888
14070WAT     H242453   1.215   3.418   0.752
14071WAT      O42454   5.858   4.157   7.607
14071WAT     H142455   5.838   4.209   7.523
14071WAT     H242456   5.950   4.118   7.600
14072WAT      O42457   3.543   8.471   0.656
14072WAT     H142458   3.619   8.521   0.700
14072WAT     H242459   3.473   8.452   0.724
14073WAT      O42460   6.023   8.782   9.743
14073WAT     H142461   5.979   8.740   9.664
14073WAT     H242462   6.064   8.869   9.715
14074WAT      O42463   6.305   5.851   7.506
14074WAT     H142464   6.377   5.805   7.558
14074WAT     H242465   6.342   5.934   7.464
14075WAT      O42466   2.459   7.096   3.606
14075WAT     H142467   2.505   7.167   3.660
14075WAT     H242468   2.362   7.092   3.630
14076WAT      O42469   3.115   2.964   1.706
14076WAT     H142470   3.116   2.900   1.782
14076WAT     H242471   3.167   3.046   1.731
14077WAT      O42472   8.795   5.365   1.634
14077WAT     H142473   8.758   5.378   1.542
14077WAT     H242474   8.895   5.362   1.630
14078WAT      O42475   0.504   0.483   3.459
14078WAT     H142476   0.515   0.581   3.479
14078WAT     H242477   0.454   0.472   3.373
14079WAT      O42478   8.382   2.800   9.167
14079WAT     H142479   8.321   2.720   9.170
14079WAT     H242480   8.374   2.845   9.078
14080WAT      O42481   2.464   6.321   9.321
14080WAT     H142482   2.394   6.302   9.251
14080WAT     H242483   2.425   6.381   9.391
14081WAT      O42484   9.240   1.408   7.697
14081WAT     H142485   9.200   1.329   7.651
14081WAT     H242486   9.338   1.392   7.711
14082WAT      O42487   9.670   0.066   9.031
14082WAT     H142488   9.757   0.024   9.055
14082WAT     H242489   9.598  -0.002   9.032
14083WAT      O42490   9.427   7.502   0.824
14083WAT     H142491   9.450   7.550   0.909
14083WAT     H242492   9.503   7.442   0.798
14084WAT      O42493   0.178   1.693   5.009
14084WAT     H142494   0.185   1.605   4.962
14084WAT     H242495   0.183   1.679   5.108
14085WAT      O42496   4.182   2.566   0.390
14085WAT     H142497   4.216   2.656   0.363
14085WAT     H242498   4.134   2.524   0.312
14086WAT      O42499   3.186   3.364   4.643
14086WAT     H142500   3.163   3.268   4.625
14086WAT     H242501   3.224   3.405   4.561
14087WAT      O42502   8.182   3.697   2.862
14087WAT     H142503   8.094   3.742   2.877
14087WAT     H242504   8.253   3.743   2.916
14088WAT      O42505   7.332   4.142   9.870
14088WAT     H142506   7.273   4.062   9.879
14088WAT     H242507   7.399   4.127   9.798
14089WAT      O42508   1.780   3.289   2.065
14089WAT     H142509   1.696   3.327   2.028
14089WAT     H242510   1.806   3.339   2.147
14090WAT      O42511   2.431   8.812   3.317
14090WAT     H142512   2.498   8.788   3.387
14090WAT     H242513   2.418   8.911   3.317
14091WAT      O42514   1.429   6.008   4.700
14091WAT     H142515   1.440   5.978   4.605
14091WAT     H242516   1.420   5.927   4.759
14092WAT      O42517   6.826   5.908   1.776
14092WAT     H142518   6.754   5.844   1.805
14092WAT     H242519   6.907   5.857   1.748
14093WAT      O42520   3.161   9.188   2.706
14093WAT     H142521   3.146   9.094   2.676
14093WAT     H242522   3.131   9.251   2.634
14094WAT      O42523   8.534   0.750   2.128
14094WAT     H142524   8.460   0.784   2.070
14094WAT     H242525   8.522   0.784   2.221
14095WAT      O42526   2.544   8.670   2.539
14095WAT     H142527   2.462   8.612   2.528
14095WAT     H242528   2.522   8.747   2.599
14096WAT      O42529   7.106   0.955   4.523
14096WAT     H142530   7.072   0.979   4.432
14096WAT     H242531   7.031   0.922   4.579
14097WAT      O42532   8.359   8.687   3.214
14097WAT     H142533   8.372   8.608   3.154
14097WAT     H242534   8.440   8.745   3.211
14098WAT      O42535   9.123   5.739   4.314
14098WAT     H142536   9.147   5.745   4.217
14098WAT     H242537   9.199   5.774   4.370
14099WAT      O42538   7.876   9.166   4.945
14099WAT     H142539   7.810   9.200   5.012
14099WAT     H242540   7.884   9.066   4.954
14100WAT      O42541   6.803   0.446   2.639
14100WAT     H142542   6.847   0.406   2.559
14100WAT     H242543   6.865   0.511   2.682
14101WAT      O42544   5.694   9.096   9.565
14101WAT     H142545   5.705   8.999   9.589
14101WAT     H242546   5.771   9.124   9.507
14102WAT      O42547   3.587   1.927   8.490
14102WAT     H142548   3.628   1.952   8.402
14102WAT     H242549   3.572   2.010   8.544
14103WAT      O42550   5.467   4.756   2.801
14103WAT     H142551   5.542   4.703   2.762
14103WAT     H242552   5.439   4.827   2.736
14104WAT      O42553   3.660   4.582   3.214
14104WAT     H142554   3.666   4.632   3.300
14104WAT     H242555   3.568   4.542   3.206
14105WAT      O42556   9.629   3.508   3.673
14105WAT     H142557   9.617   3.429   3.613
14105WAT     H242558   9.566   3.581   3.647
14106WAT      O42559   2.909   3.542   1.813
14106WAT     H142560   2.958   3.541   1.726
14106WAT     H242561   2.956   3.603   1.877
14107WAT      O42562   6.202   7.264   2.573
14107WAT     H142563   6.247   7.344   2.534
14107WAT     H242564   6.261   7.223   2.642
14108WAT      O42565   4.942   5.778   2.168
14108WAT     H142566   5.024   5.739   2.125
14108WAT     H242567   4.957   5.874   2.188
14109WAT      O42568   1.100   3.268   4.526
14109WAT     H142569   1.146   3.224   4.449
14109WAT     H242570   1.102   3.367   4.515
14110WAT      O42571   7.237   2.509   9.325
14110WAT     H142572   7.211   2.463   9.241
14110WAT     H242573   7.203   2.457   9.404
14111WAT      O42574   6.998   6.601   9.506
14111WAT     H142575   6.923   6.591   9.441
14111WAT     H242576   7.041   6.690   9.495
14112WAT      O42577   1.296   0.183   9.290
14112WAT     H142578   1.371   0.117   9.284
14112WAT     H242579   1.295   0.241   9.208
14113WAT      O42580   3.979   4.337   7.975
14113WAT     H142581   3.962   4.424   8.020
14113WAT     H242582   4.061   4.344   7.919
14114WAT      O42583   6.123   3.473   7.404
14114WAT     H142584   6.192   3.419   7.355
14114WAT     H242585   6.033   3.454   7.365
14115WAT      O42586   4.387   0.778   1.493
14115WAT     H142587   4.470   0.735   1.530
14115WAT     H242588   4.412   0.853   1.432
14116WAT      O42589   5.063   2.536   4.275
14116WAT     H142590   5.054   2.459   4.339
14116WAT     H242591   4.973   2.568   4.248
14117WAT      O42592   4.728   4.142   0.036
14117WAT     H142593   4.657   4.115   0.101
14117WAT     H242594   4.723   4.084  -0.045
14118WAT      O42595   8.638   1.627   9.281
14118WAT     H142596   8.551   1.615   9.234
14118WAT     H242597   8.633   1.705   9.344
14119WAT      O42598   6.550   4.356   0.643
14119WAT     H142599   6.451   4.368   0.633
14119WAT     H242600   6.576   4.370   0.738
14120WAT      O42601   3.654   0.932   0.177
14120WAT     H142602   3.715   0.945   0.099
14120WAT     H242603   3.700   0.964   0.260
14121WAT      O42604   0.971   0.264   0.148
14121WAT     H142605   0.944   0.167   0.145
14121WAT     H242606   0.953   0.301   0.239
14122WAT      O42607   8.666   3.424   8.016
14122WAT     H142608   8.729   3.406   7.941
14122WAT     H242609   8.702   3.383   8.100
14123WAT      O42610   2.121   2.587   2.677
14123WAT     H142611   2.171   2.572   2.591
14123WAT     H242612   2.168   2.537   2.750
14124WAT      O42613   3.070   3.429   5.611
14124WAT     H142614   3.066   3.445   5.512
14124WAT     H242615   3.000   3.484   5.656
14125WAT      O42616   5.818   6.583   9.266
14125WAT     H142617   5.771   6.638   9.198
14125WAT     H242618   5.769   6.587   9.353
14126WAT      O42619   9.034   9.379   6.020
14126WAT     H142620   8.983   9.309   6.070
14126WAT     H242621   9.118   9.401   6.069
14127WAT      O42622   9.203   4.840   9.125
14127WAT     H142623   9.113   4.835   9.082
14127WAT     H242624   9.196   4.809   9.220
14128WAT      O42625   0.573   3.000   9.568
14128WAT     H142626   0.505   2.926   9.567
14128WAT     H242627   0.609   3.014   9.476
14129WAT      O42628   7.510   8.133   8.838
14129WAT     H142629   7.540   8.057   8.895
14129WAT     H242630   7.484   8.210   8.896
14130WAT      O42631   2.266   3.605   8.799
14130WAT     H142632   2.174   3.629   8.767
14130WAT     H242633   2.299   3.526   8.747
14131WAT      O42634   0.567   9.485   5.433
14131WAT     H142635   0.515   9.570   5.442
14131WAT     H242636   0.550   9.445   5.343
14132WAT      O42637   8.154   6.120   7.286
14132WAT     H142638   8.189   6.052   7.351
14132WAT     H242639   8.118   6.074   7.205
14133WAT      O42640   5.482   4.741   7.974
14133WAT     H142641   5.430   4.809   7.922
14133WAT     H242642   5.443   4.732   8.066
14134WAT      O42643   2.674   3.699   1.201
14134WAT     H142644   2.655   3.625   1.265
14134WAT     H242645   2.604   3.770   1.210
14135WAT      O42646   8.216   9.658   4.685
14135WAT     H142647   8.165   9.617   4.761
14135WAT     H242648   8.187   9.753   4.674
14136WAT      O42649   4.593   9.102   6.765
14136WAT     H142650   4.645   9.084   6.849
14136WAT     H242651   4.524   9.031   6.753
14137WAT      O42652   1.471   6.848   5.109
14137WAT     H142653   1.528   6.912   5.058
14137WAT     H242654   1.480   6.756   5.071
14138WAT      O42655   7.245   0.023   5.825
14138WAT     H142656   7.209   0.078   5.900
14138WAT     H242657   7.319  -0.035   5.860
14139WAT      O42658   0.327   5.990   7.196
14139WAT     H142659   0.290   6.083   7.189
14139WAT     H242660   0.422   5.994   7.227
14140WAT      O42661   9.021   2.220   2.987
14140WAT     H142662   9.005   2.124   2.963
14140WAT     H242663   8.959   2.246   3.061
14141WAT      O42664   1.871   7.430   8.334
14141WAT     H142665   1.866   7.408   8.431
14141WAT     H242666   1.800   7.379   8.284
14142WAT      O42667   6.454   9.668   7.839
14142WAT     H142668   6.459   9.616   7.925
14142WAT     H242669   6.365   9.652   7.796
14143WAT      O42670   7.740   6.810   7.504
14143WAT     H142671   7.668   6.757   7.549
14143WAT     H242672   7.828   6.788   7.546
14144WAT      O42673   5.938   1.647   8.054
14144WAT     H142674   5.921   1.683   7.963
14144WAT     H242675   6.020   1.691   8.093
14145WAT      O42676   5.278   8.956   1.203
14145WAT     H142677   5.359   8.934   1.258
14145WAT     H242678   5.298   8.941   1.106
14146WAT      O42679   4.997   8.095   2.845
14146WAT     H142680   5.008   8.114   2.942
14146WAT     H242681   4.935   8.018   2.832
14147WAT      O42682   9.133   6.494   9.010
14147WAT     H142683   9.097   6.510   8.918
14147WAT     H242684   9.221   6.448   9.003
14148WAT      O42685   4.994   8.569   1.337
14148WAT     H142686   5.003   8.544   1.434
14148WAT     H242687   4.983   8.668   1.330
14149WAT      O42688   7.556   3.042   2.437
14149WAT     H142689   7.490   2.997   2.498
14149WAT     H242690   7.517   3.049   2.345
14150WAT      O42691   0.793   9.596   0.420
14150WAT     H142692   0.807   9.519   0.483
14150WAT     H242693   0.813   9.682   0.467
14151WAT      O42694   5.552   7.050   1.335
14151WAT     H142695   5.467   7.051   1.283
14151WAT     H242696   5.535   7.009   1.425
14152WAT      O42697   7.070   4.657   9.487
14152WAT     H142698   7.063   4.722   9.562
14152WAT     H242699   6.991   4.596   9.487
14153WAT      O42700   4.728   0.252   0.544
14153WAT     H142701   4.687   0.252   0.452
14153WAT     H242702   4.659   0.280   0.611
14154WAT      O42703   9.389   1.228   0.831
14154WAT     H142704   9.475   1.243   0.880
14154WAT     H242705   9.344   1.146   0.867
14155WAT      O42706   4.724   3.043   9.552
14155WAT     H142707   4.789   2.995   9.493
14155WAT     H242708   4.684   2.978   9.617
14156WAT      O42709   2.127   6.515   6.513
14156WAT     H142710   2.180   6.530   6.430
14156WAT     H242711   2.043   6.466   6.491
14157WAT      O42712   5.650   7.389   9.317
14157WAT     H142713   5.648   7.300   9.361
14157WAT     H242714   5.657   7.460   9.387
14158WAT      O42715   3.002   9.821   0.318
14158WAT     H142716   2.918   9.847   0.270
14158WAT     H242717   2.979   9.768   0.399
14159WAT      O42718   0.609   6.069   7.231
14159WAT     H142719   0.699   6.065   7.186
14159WAT     H242720   0.615   6.129   7.311
14160WAT      O42721   1.453   0.015   7.428
14160WAT     H142722   1.371   0.054   7.385
14160WAT     H242723   1.527   0.011   7.361
14161WAT      O42724   6.592   0.548   4.369
14161WAT     H142725   6.576   0.577   4.464
14161WAT     H242726   6.593   0.449   4.364
14162WAT      O42727   1.019   3.020   4.206
14162WAT     H142728   1.102   2.994   4.156
14162WAT     H242729   0.942   3.025   4.143
14163WAT      O42730   3.750   3.005   4.432
14163WAT     H142731   3.765   3.068   4.508
14163WAT     H242732   3.730   3.056   4.349
14164WAT      O42733   7.304   9.177   9.149
14164WAT     H142734   7.397   9.140   9.150
14164WAT     H242735   7.271   9.182   9.055
14165WAT      O42736   6.447   1.771   8.962
14165WAT     H142737   6.463   1.759   9.060
14165WAT     H242738   6.530   1.808   8.919
14166WAT      O42739   5.183   0.972   7.630
14166WAT     H142740   5.175   1.054   7.573
14166WAT     H242741   5.160   0.995   7.725
14167WAT      O42742   6.517   1.558   5.867
14167WAT     H142743   6.458   1.481   5.846
14167WAT     H242744   6.503   1.586   5.962
14168WAT      O42745   0.535   3.971   1.405
14168WAT     H142746   0.626   4.010   1.389
14168WAT     H242747   0.468   4.020   1.350
14169WAT      O42748   4.095   0.781   5.771
14169WAT     H142749   4.168   0.753   5.832
14169WAT     H242750   4.079   0.710   5.702
14170WAT      O42751   0.408   6.665   5.578
14170WAT     H142752   0.450   6.587   5.531
14170WAT     H242753   0.319   6.638   5.614
14171WAT      O42754   1.943   3.336   4.747
14171WAT     H142755   1.898   3.298   4.828
14171WAT     H242756   1.903   3.426   4.726
14172WAT      O42757   1.185   5.916   8.928
14172WAT     H142758   1.177   6.006   8.971
14172WAT     H242759   1.214   5.928   8.833
14173WAT      O42760   5.811   4.182   4.917
14173WAT     H142761   5.838   4.102   4.864
14173WAT     H242762   5.751   4.240   4.861
14174WAT      O42763   8.193   6.555   2.852
14174WAT     H142764   8.125   6.600   2.911
14174WAT     H242765   8.188   6.596   2.761
14175WAT      O42766   3.002   8.552   5.335
14175WAT     H142767   2.923   8.575   5.278
14175WAT     H242768   3.010   8.619   5.409
14176WAT      O42769   2.309   5.408   8.685
14176WAT     H142770   2.340   5.319   8.651
14176WAT     H242771   2.212   5.419   8.664
14177WAT      O42772   4.471   1.695   8.793
14177WAT     H142773   4.535   1.673   8.720
14177WAT     H242774   4.387   1.642   8.782
14178WAT      O42775   7.078   8.094   7.395
14178WAT     H142776   7.051   8.003   7.367
14178WAT     H242777   7.159   8.123   7.343
14179WAT      O42778   3.899   4.251   1.259
14179WAT     H142779   3.987   4.230   1.300
14179WAT     H242780   3.827   4.240   1.328
14180WAT      O42781   3.329   1.656   8.822
14180WAT     H142782   3.305   1.750   8.796
14180WAT     H242783   3.336   1.600   8.739
14181WAT      O42784   9.823   2.329   0.182
14181WAT     H142785   9.771   2.412   0.157
14181WAT     H242786   9.907   2.356   0.230
14182WAT      O42787   6.625   6.622   4.262
14182WAT     H142788   6.615   6.534   4.214
14182WAT     H242789   6.591   6.695   4.204
14183WAT      O42790   8.824   7.283   5.090
14183WAT     H142791   8.858   7.282   5.184
14183WAT     H242792   8.724   7.284   5.091
14184WAT      O42793   4.163   8.404   8.954
14184WAT     H142794   4.218   8.422   9.036
14184WAT     H242795   4.160   8.486   8.897
14185WAT      O42796   4.110   2.020   3.715
14185WAT     H142797   4.088   1.946   3.779
14185WAT     H242798   4.196   1.999   3.668
14186WAT      O42799   8.057   3.922   3.121
14186WAT     H142800   7.997   3.844   3.139
14186WAT     H242801   8.047   3.990   3.193
14187WAT      O42802   8.652   9.018   9.662
14187WAT     H142803   8.721   9.051   9.726
14187WAT     H242804   8.633   9.088   9.594
14188WAT      O42805   8.579   7.199   9.433
14188WAT     H142806   8.619   7.291   9.433
14188WAT     H242807   8.551   7.175   9.340
14189WAT      O42808   0.779   7.804   5.252
14189WAT     H142809   0.738   7.766   5.334
14189WAT     H242810   0.729   7.886   5.224
14190WAT      O42811   6.084   8.252   3.154
14190WAT     H142812   6.100   8.323   3.086
14190WAT     H242813   6.089   8.162   3.111
14191WAT      O42814   5.697   0.061   0.168
14191WAT     H142815   5.762   0.039   0.241
14191WAT     H242816   5.658   0.152   0.185
14192WAT      O42817   9.072   1.574   9.410
14192WAT     H142818   9.172   1.571   9.405
14192WAT     H242819   9.034   1.487   9.380
14193WAT      O42820   5.858   1.791   1.153
14193WAT     H142821   5.954   1.799   1.182
14193WAT     H242822   5.809   1.731   1.216
14194WAT      O42823   4.234   1.546   8.782
14194WAT     H142824   4.182   1.465   8.755
14194WAT     H242825   4.173   1.625   8.786
14195WAT      O42826   8.978   7.876   1.890
14195WAT     H142827   8.960   7.811   1.816
14195WAT     H242828   8.995   7.966   1.852
14196WAT      O42829   1.938   3.880   3.666
14196WAT     H142830   1.871   3.953   3.678
14196WAT     H242831   1.919   3.832   3.580
14197WAT      O42832   1.592   4.233   9.191
14197WAT     H142833   1.616   4.261   9.098
14197WAT     H242834   1.533   4.153   9.188
14198WAT      O42835   7.792   7.874   5.161
14198WAT     H142836   7.766   7.957   5.211
14198WAT     H242837   7.728   7.800   5.182
14199WAT      O42838   3.323   1.531   0.288
14199WAT     H142839   3.230   1.511   0.319
14199WAT     H242840   3.385   1.461   0.322
14200WAT      O42841   7.636   1.237   6.827
14200WAT     H142842   7.671   1.149   6.794
14200WAT     H242843   7.567   1.221   6.897
14201WAT      O42844   4.108   5.082   2.574
14201WAT     H142845   4.195   5.045   2.543
14201WAT     H242846   4.103   5.179   2.550
14202WAT      O42847   6.966   0.213   0.520
14202WAT     H142848   6.959   0.189   0.617
14202WAT     H242849   6.898   0.284   0.498
14203WAT      O42850   3.990   9.592   1.103
14203WAT     H142851   3.953   9.567   1.013
14203WAT     H242852   4.011   9.510   1.155
14204WAT      O42853   4.625   0.905   6.867
14204WAT     H142854   4.595   0.881   6.775
14204WAT     H242855   4.565   0.860   6.934
14205WAT      O42856   3.549   0.010   1.613
14205WAT     H142857   3.531   0.050   1.703
14205WAT     H242858   3.468  -0.037   1.581
14206WAT      O42859   0.937   5.075   3.185
14206WAT     H142860   1.018   5.077   3.127
14206WAT     H242861   0.857   5.048   3.131
14207WAT      O42862   7.103   2.997   9.157
14207WAT     H142863   7.126   3.072   9.220
14207WAT     H242864   7.106   2.910   9.206
14208WAT      O42865   5.595   6.828   8.528
14208WAT     H142866   5.634   6.892   8.594
14208WAT     H242867   5.532   6.877   8.468
14209WAT      O42868   2.949   3.144   7.238
14209WAT     H142869   2.894   3.150   7.155
14209WAT     H242870   2.918   3.066   7.292
14210WAT      O42871   8.203   6.521   6.414
14210WAT     H142872   8.120   6.504   6.360
14210WAT     H242873   8.178   6.539   6.509
14211WAT      O42874   1.117   0.111   2.887
14211WAT     H142875   1.056   0.165   2.946
14211WAT     H242876   1.205   0.158   2.879
14212WAT      O42877   4.919   2.709   7.276
14212WAT     H142878   4.962   2.646   7.340
14212WAT     H242879   4.822   2.689   7.270
14213WAT      O42880   1.289   1.249   2.853
14213WAT     H142881   1.259   1.344   2.859
14213WAT     H242882   1.378   1.240   2.899
14214WAT      O42883   8.296   1.141   6.475
14214WAT     H142884   8.248   1.058   6.447
14214WAT     H242885   8.242   1.221   6.448
14215WAT      O42886   3.031   2.380   0.479
14215WAT     H142887   3.020   2.370   0.380
14215WAT     H242888   2.993   2.300   0.525
14216WAT      O42889   8.956   7.187   0.263
14216WAT     H142890   9.029   7.123   0.235
14216WAT     H242891   8.953   7.191   0.363
14217WAT      O42892   3.956   4.940   2.041
14217WAT     H142893   3.873   4.924   2.095
14217WAT     H242894   3.937   5.009   1.971
14218WAT      O42895   1.291   7.159   5.924
14218WAT     H142896   1.380   7.131   5.959
14218WAT     H242897   1.262   7.243   5.970
14219WAT      O42898   0.640   5.975   8.637
14219WAT     H142899   0.665   5.913   8.563
14219WAT     H242900   0.561   5.939   8.686
14220WAT      O42901   5.818   9.830   1.783
14220WAT     H142902   5.885   9.793   1.847
14220WAT     H242903   5.856   9.828   1.690
14221WAT      O42904   1.291   1.542   9.334
14221WAT     H142905   1.223   1.472   9.354
14221WAT     H242906   1.341   1.564   9.418
14222WAT      O42907   9.480   3.312   6.485
14222WAT     H142908   9.381   3.301   6.471
14222WAT     H242909   9.521   3.355   6.405
14223WAT      O42910   1.792   8.569   0.817
14223WAT     H142911   1.778   8.665   0.795
14223WAT     H242912   1.705   8.527   0.839
14224WAT      O42913   7.773   5.369   7.443
14224WAT     H142914   7.770   5.338   7.348
14224WAT     H242915   7.745   5.465   7.447
14225WAT      O42916   8.639   2.534   0.701
14225WAT     H142917   8.616   2.436   0.699
14225WAT     H242918   8.613   2.576   0.613
14226WAT      O42919   4.070   9.215   1.748
14226WAT     H142920   3.998   9.248   1.809
14226WAT     H242921   4.126   9.292   1.717
14227WAT      O42922   1.940   7.929   6.879
14227WAT     H142923   1.970   7.834   6.869
14227WAT     H242924   2.018   7.990   6.868
14228WAT      O42925   8.344   6.435   7.108
14228WAT     H142926   8.364   6.373   7.184
14228WAT     H242927   8.249   6.465   7.113
14229WAT      O42928   2.710   2.087   2.756
14229WAT     H142929   2.738   2.015   2.693
14229WAT     H242930   2.631   2.056   2.809
14230WAT      O42931   2.665   9.674   3.352
14230WAT     H142932   2.760   9.650   3.333
14230WAT     H242933   2.660   9.728   3.435
14231WAT      O42934   0.432   6.374   2.259
14231WAT     H142935   0.436   6.425   2.345
14231WAT     H242936   0.415   6.278   2.278
14232WAT      O42937   1.037   0.615   4.857
14232WAT     H142938   0.993   0.575   4.937
14232WAT     H242939   1.032   0.714   4.862
14233WAT      O42940   7.516   9.002   8.808
14233WAT     H142941   7.431   9.047   8.780
14233WAT     H242942   7.538   8.929   8.744
14234WAT      O42943   4.807   7.861   3.582
14234WAT     H142944   4.894   7.822   3.553
14234WAT     H242945   4.817   7.900   3.673
14235WAT      O42946   2.165   5.435   2.487
14235WAT     H142947   2.202   5.521   2.452
14235WAT     H242948   2.239   5.368   2.494
14236WAT      O42949   2.902   5.642   3.434
14236WAT     H142950   2.948   5.610   3.351
14236WAT     H242951   2.876   5.738   3.422
14237WAT      O42952   1.992   7.103   6.291
14237WAT     H142953   1.959   7.050   6.368
14237WAT     H242954   2.081   7.143   6.313
14238WAT      O42955   1.235   6.867   6.556
14238WAT     H142956   1.324   6.822   6.559
14238WAT     H242957   1.220   6.905   6.464
14239WAT      O42958   1.851   9.635   8.510
14239WAT     H142959   1.752   9.623   8.506
14239WAT     H242960   1.893   9.552   8.548
14240WAT      O42961   7.361   7.415   6.949
14240WAT     H142962   7.321   7.344   6.891
14240WAT     H242963   7.333   7.400   7.044
14241WAT      O42964   0.290   8.366   5.968
14241WAT     H142965   0.293   8.288   5.907
14241WAT     H242966   0.329   8.446   5.922
14242WAT      O42967   0.034   9.522   8.565
14242WAT     H142968   0.113   9.568   8.606
14242WAT     H242969   0.063   9.471   8.484
14243WAT      O42970   0.290   9.304   9.413
14243WAT     H142971   0.311   9.237   9.341
14243WAT     H242972   0.203   9.348   9.394
14244WAT      O42973   1.983   4.468   8.856
14244WAT     H142974   1.950   4.383   8.898
14244WAT     H242975   1.951   4.546   8.910
14245WAT      O42976   9.551   2.562   2.861
14245WAT     H142977   9.476   2.570   2.796
14245WAT     H242978   9.604   2.480   2.842
14246WAT      O42979   5.070   5.629   5.258
14246WAT     H142980   5.020   5.552   5.220
14246WAT     H242981   5.016   5.713   5.247
14247WAT      O42982   0.785   7.383   7.910
14247WAT     H142983   0.832   7.413   7.827
14247WAT     H242984   0.725   7.306   7.888
14248WAT      O42985   7.227   3.608   6.959
14248WAT     H142986   7.153   3.663   7.000
14248WAT     H242987   7.199   3.512   6.955
14249WAT      O42988   6.144   6.442   6.550
14249WAT     H142989   6.088   6.502   6.492
14249WAT     H242990   6.183   6.495   6.626
14250WAT      O42991   7.785   3.318   3.574
14250WAT     H142992   7.813   3.222   3.566
14250WAT     H242993   7.687   3.326   3.556
14251WAT      O42994   7.397   4.550   1.775
14251WAT     H142995   7.434   4.573   1.685
14251WAT     H242996   7.423   4.621   1.841
14252WAT      O42997   0.346   9.642   6.522
14252WAT     H142998   0.430   9.663   6.571
14252WAT     H242999   0.267   9.665   6.579
14253WAT      O43000   7.710   0.760   9.323
14253WAT     H143001   7.798   0.770   9.369
14253WAT     H243002   7.658   0.845   9.330
14254WAT      O43003   8.614   3.454   6.578
14254WAT     H143004   8.685   3.478   6.511
14254WAT     H243005   8.650   3.467   6.670
14255WAT      O43006   6.297   6.169   5.388
14255WAT     H143007   6.363   6.244   5.392
14255WAT     H243008   6.220   6.196   5.331
14256WAT      O43009   7.287   2.359   2.944
14256WAT     H143010   7.366   2.397   2.993
14256WAT     H243011   7.292   2.386   2.848
14257WAT      O43012   8.939   6.322   9.851
14257WAT     H143013   9.038   6.320   9.866
14257WAT     H243014   8.917   6.277   9.765
14258WAT      O43015   3.800   4.493   0.198
14258WAT     H143016   3.704   4.517   0.212
14258WAT     H243017   3.824   4.415   0.256
14259WAT      O43018   2.078   7.169   2.455
14259WAT     H143019   2.087   7.207   2.548
14259WAT     H243020   2.169   7.163   2.413
14260WAT      O43021   2.569   5.061   8.345
14260WAT     H143022   2.668   5.061   8.327
14260WAT     H243023   2.536   4.967   8.351
14261WAT      O43024   1.344   7.517   0.866
14261WAT     H143025   1.266   7.483   0.919
14261WAT     H243026   1.429   7.484   0.907
14262WAT      O43027   0.350   4.088   1.149
14262WAT     H143028   0.371   4.103   1.052
14262WAT     H243029   0.250   4.080   1.160
14263WAT      O43030   2.560   1.459   7.481
14263WAT     H143031   2.649   1.465   7.435
14263WAT     H243032   2.529   1.551   7.503
14264WAT      O43033   4.859   1.175   5.860
14264WAT     H143034   4.932   1.210   5.802
14264WAT     H243035   4.774   1.171   5.808
14265WAT      O43036   4.676   4.565   9.012
14265WAT     H143037   4.617   4.640   8.982
14265WAT     H243038   4.722   4.525   8.933
14266WAT      O43039   0.565   5.719   6.050
14266WAT     H143040   0.485   5.779   6.052
14266WAT     H243041   0.645   5.771   6.022
14267WAT      O43042   1.993   5.348   6.220
14267WAT     H143043   2.026   5.323   6.129
14267WAT     H243044   1.898   5.318   6.230
14268WAT      O43045   8.468   3.987   6.812
14268WAT     H143046   8.557   4.033   6.822
14268WAT     H243047   8.398   4.039   6.861
14269WAT      O43048   2.799   9.093   5.533
14269WAT     H143049   2.791   9.011   5.476
14269WAT     H243050   2.709   9.133   5.548
14270WAT      O43051   4.159   7.996   6.371
14270WAT     H143052   4.086   8.003   6.439
14270WAT     H243053   4.246   8.022   6.412
14271WAT      O43054   8.523   8.262   3.119
14271WAT     H143055   8.525   8.212   3.033
14271WAT     H243056   8.495   8.201   3.193
14272WAT      O43057   7.799   0.558   1.230
14272WAT     H143058   7.860   0.480   1.218
14272WAT     H243059   7.810   0.595   1.322
14273WAT      O43060   5.373   5.343   1.902
14273WAT     H143061   5.343   5.248   1.915
14273WAT     H243062   5.471   5.350   1.918
14274WAT      O43063   1.067   0.512   2.647
14274WAT     H143064   1.164   0.523   2.626
14274WAT     H243065   1.034   0.427   2.607
14275WAT      O43066   0.796   2.037   3.106
14275WAT     H143067   0.733   2.093   3.160
14275WAT     H243068   0.766   1.942   3.107
14276WAT      O43069   1.132   9.078   8.160
14276WAT     H143070   1.145   9.014   8.084
14276WAT     H243071   1.048   9.056   8.209
14277WAT      O43072   5.168   0.528   4.632
14277WAT     H143073   5.096   0.492   4.572
14277WAT     H243074   5.250   0.471   4.622
14278WAT      O43075   9.597   4.545   3.365
14278WAT     H143076   9.644   4.537   3.277
14278WAT     H243077   9.641   4.615   3.420
14279WAT      O43078   5.897   8.848   5.599
14279WAT     H143079   5.955   8.929   5.591
14279WAT     H243080   5.953   8.769   5.626
14280WAT      O43081   2.668   1.096   2.243
14280WAT     H143082   2.598   1.026   2.259
14280WAT     H243083   2.726   1.103   2.324
14281WAT      O43084   2.625   6.250   0.697
14281WAT     H143085   2.542   6.272   0.748
14281WAT     H243086   2.663   6.333   0.657
14282WAT      O43087   7.348   4.764   3.744
14282WAT     H143088   7.430   4.776   3.801
14282WAT     H243089   7.352   4.676   3.698
14283WAT      O43090   2.060   0.925   4.356
14283WAT     H143091   1.977   0.917   4.411
14283WAT     H243092   2.141   0.909   4.413
14284WAT      O43093   7.815   4.389   7.812
14284WAT     H143094   7.731   4.375   7.863
14284WAT     H243095   7.802   4.464   7.746
14285WAT      O43096   1.692   4.272   0.737
14285WAT     H143097   1.704   4.371   0.731
14285WAT     H243098   1.596   4.249   0.717
14286WAT      O43099   0.581   0.869   8.369
14286WAT     H143100   0.605   0.912   8.456
14286WAT     H243101   0.517   0.794   8.385
14287WAT      O43102   2.352   9.639   8.333
14287WAT     H143103   2.275   9.587   8.369
14287WAT     H243104   2.379   9.709   8.400
14288WAT      O43105   7.324   7.385   3.847
14288WAT     H143106   7.421   7.361   3.844
14288WAT     H243107   7.279   7.353   3.764
14289WAT      O43108   6.956   3.275   2.142
14289WAT     H143109   6.911   3.288   2.231
14289WAT     H243110   6.888   3.257   2.072
14290WAT      O43111   3.654   2.929   3.926
14290WAT     H143112   3.684   2.891   3.839
14290WAT     H243113   3.584   2.998   3.910
14291WAT      O43114   9.527   9.195   6.862
14291WAT     H143115   9.598   9.252   6.819
14291WAT     H243116   9.448   9.188   6.802
14292WAT      O43117   5.905   6.294   0.782
14292WAT     H143118   5.832   6.317   0.845
14292WAT     H243119   5.883   6.207   0.736
14293WAT      O43120   4.364   8.426   4.844
14293WAT     H143121   4.305   8.370   4.785
14293WAT     H243122   4.380   8.377   4.930
14294WAT      O43123   1.730   4.840   4.599
14294WAT     H143124   1.790   4.873   4.527
14294WAT     H243125   1.636   4.837   4.565
14295WAT      O43126   1.797   0.217   4.092
14295WAT     H143127   1.777   0.313   4.112
14295WAT     H243128   1.783   0.163   4.175
14296WAT      O43129   3.666   7.001   8.178
14296WAT     H143130   3.653   7.074   8.245
14296WAT     H243131   3.737   7.028   8.113
14297WAT      O43132   1.309   7.690   6.681
14297WAT     H143133   1.250   7.769   6.669
14297WAT     H243134   1.263   7.621   6.737
14298WAT      O43135   8.153   2.110   6.632
14298WAT     H143136   8.252   2.100   6.642
14298WAT     H243137   8.113   2.138   6.719
14299WAT      O43138   6.833   0.080   7.170
14299WAT     H143139   6.895   0.139   7.222
14299WAT     H243140   6.839   0.104   7.073
14300WAT      O43141   9.208   4.541   3.931
14300WAT     H143142   9.272   4.591   3.990
14300WAT     H243143   9.208   4.583   3.840
14301WAT      O43144   7.256   1.743   4.163
14301WAT     H143145   7.260   1.656   4.113
14301WAT     H243146   7.164   1.757   4.198
14302WAT      O43147   6.264   2.465   2.691
14302WAT     H143148   6.342   2.461   2.753
14302WAT     H243149   6.250   2.375   2.650
14303WAT      O43150   1.200   3.313   5.427
14303WAT     H143151   1.212   3.409   5.451
14303WAT     H243152   1.102   3.290   5.426
14304WAT      O43153   7.174   3.073   8.578
14304WAT     H143154   7.193   3.078   8.676
14304WAT     H243155   7.260   3.064   8.528
14305WAT      O43156   5.804   0.143   9.031
14305WAT     H143157   5.742   0.210   8.991
14305WAT     H243158   5.821   0.069   8.966
14306WAT      O43159   9.021   8.810   4.316
14306WAT     H143160   9.051   8.895   4.272
14306WAT     H243161   9.099   8.748   4.325
14307WAT      O43162   3.420   7.550   1.294
14307WAT     H143163   3.326   7.569   1.266
14307WAT     H243164   3.476   7.633   1.283
14308WAT      O43165   5.958   4.430   7.043
14308WAT     H143166   6.040   4.471   7.001
14308WAT     H243167   5.980   4.401   7.137
14309WAT      O43168   7.644   2.058   5.364
14309WAT     H143169   7.690   2.100   5.286
14309WAT     H243170   7.697   1.980   5.396
14310WAT      O43171   8.291   7.480   4.902
14310WAT     H143172   8.221   7.426   4.854
14310WAT     H243173   8.376   7.478   4.850
14311WAT      O43174   5.473   2.659   0.017
14311WAT     H143175   5.401   2.679   0.084
14311WAT     H243176   5.469   2.562  -0.007
14312WAT      O43177   6.671   1.577   8.245
14312WAT     H143178   6.757   1.526   8.241
14312WAT     H243179   6.638   1.595   8.152
14313WAT      O43180   8.941   2.044   7.592
14313WAT     H143181   8.883   2.015   7.668
14313WAT     H243182   9.003   2.117   7.622
14314WAT      O43183   4.165   6.345   1.864
14314WAT     H143184   4.202   6.259   1.828
14314WAT     H243185   4.111   6.390   1.794
14315WAT      O43186   1.687   7.218   4.187
14315WAT     H143187   1.659   7.145   4.125
14315WAT     H243188   1.693   7.182   4.280
14316WAT      O43189   9.673   7.965   8.441
14316WAT     H143190   9.612   7.915   8.379
14316WAT     H243191   9.754   7.995   8.391
14317WAT      O43192   9.194   3.712   3.085
14317WAT     H143193   9.234   3.687   3.174
14317WAT     H243194   9.116   3.653   3.066
14318WAT      O43195   3.974   0.013   2.113
14318WAT     H143196   4.057  -0.016   2.066
14318WAT     H243197   3.998   0.073   2.190
14319WAT      O43198   0.954   9.653   2.592
14319WAT     H143199   0.917   9.723   2.652
14319WAT     H243200   1.051   9.638   2.615
14320WAT      O43201   5.017   4.546   1.826
14320WAT     H143202   5.014   4.642   1.855
14320WAT     H243203   4.941   4.496   1.867
14321WAT      O43204   9.393   2.771   4.297
14321WAT     H143205   9.437   2.819   4.221
14321WAT     H243206   9.423   2.676   4.297
14322WAT      O43207   2.094   5.108   6.338
14322WAT     H143208   2.095   5.197   6.294
14322WAT     H243209   2.098   5.119   6.437
14323WAT      O43210   3.403   9.178   2.812
14323WAT     H143211   3.306   9.183   2.788
14323WAT     H243212   3.427   9.082   2.830
14324WAT      O43213   3.621   5.641   5.103
14324WAT     H143214   3.532   5.686   5.092
14324WAT     H243215   3.634   5.572   5.032
14325WAT      O43216   6.293   1.894   7.352
14325WAT     H143217   6.290   1.954   7.432
14325WAT     H243218   6.361   1.928   7.287
14326WAT      O43219   6.377   1.094   5.641
14326WAT     H143220   6.336   1.074   5.730
14326WAT     H243221   6.476   1.096   5.649
14327WAT      O43222   6.325   9.570   3.059
14327WAT     H143223   6.374   9.542   2.976
14327WAT     H243224   6.380   9.547   3.139
14328WAT      O43225   6.937   9.576   9.031
14328WAT     H143226   6.965   9.496   8.977
14328WAT     H243227   6.925   9.654   8.970
14329WAT      O43228   1.934   5.333   9.831
14329WAT     H143229   2.019   5.281   9.819
14329WAT     H243230   1.915   5.385   9.748
14330WAT      O43231   0.682   7.471   0.611
14330WAT     H143232   0.646   7.562   0.631
14330WAT     H243233   0.771   7.480   0.564
14331WAT      O43234   7.696   8.409   9.124
14331WAT     H143235   7.608   8.379   9.088
14331WAT     H243236   7.695   8.509   9.137
14332WAT      O43237   6.410   0.941   4.772
14332WAT     H143238   6.428   1.013   4.838
14332WAT     H243239   6.404   0.853   4.818
14333WAT      O43240   8.663   9.552   1.690
14333WAT     H143241   8.630   9.468   1.646
14333WAT     H243242   8.665   9.539   1.789
14334WAT      O43243   1.305   4.763   1.035
14334WAT     H143244   1.402   4.786   1.042
14334WAT     H243245   1.266   4.754   1.127
14335WAT      O43246   2.049   4.935   2.154
14335WAT     H143247   2.058   4.994   2.235
14335WAT     H243248   2.096   4.978   2.077
14336WAT      O43249   1.611   8.661   4.369
14336WAT     H143250   1.707   8.649   4.395
14336WAT     H243251   1.586   8.757   4.378
14337WAT      O43252   5.965   9.511   7.250
14337WAT     H143253   6.058   9.545   7.241
14337WAT     H243254   5.915   9.527   7.165
14338WAT      O43255   3.739   0.697   4.353
14338WAT     H143256   3.783   0.682   4.264
14338WAT     H243257   3.686   0.616   4.377
14339WAT      O43258   0.520   0.052   7.365
14339WAT     H143259   0.450   0.018   7.427
14339WAT     H243260   0.477   0.087   7.281
14340WAT      O43261   8.819   5.110   2.213
14340WAT     H143262   8.822   5.208   2.232
14340WAT     H243263   8.910   5.070   2.227
14341WAT      O43264   7.552   4.970   4.847
14341WAT     H143265   7.615   4.911   4.898
14341WAT     H243266   7.558   4.948   4.749
14342WAT      O43267   2.360   3.734   7.460
14342WAT     H143268   2.435   3.764   7.519
14342WAT     H243269   2.273   3.761   7.500
14343WAT      O43270   6.595   1.103   8.424
14343WAT     H143271   6.589   1.133   8.519
14343WAT     H243272   6.647   1.017   8.420
14344WAT      O43273   9.829   4.725   3.107
14344WAT     H143274   9.737   4.690   3.090
14344WAT     H243275   9.851   4.795   3.040
14345WAT      O43276   7.036   0.931   1.999
14345WAT     H143277   7.003   0.900   1.909
14345WAT     H243278   7.096   0.861   2.037
14346WAT      O43279   4.583   1.970   9.258
14346WAT     H143280   4.583   1.894   9.192
14346WAT     H243281   4.553   2.054   9.213
14347WAT      O43282   5.263   7.380   9.432
14347WAT     H143283   5.171   7.420   9.439
14347WAT     H243284   5.279   7.351   9.338
14348WAT      O43285   9.129   2.288   3.664
14348WAT     H143286   9.165   2.366   3.714
14348WAT     H243287   9.033   2.274   3.688
14349WAT      O43288   9.378   3.251   3.749
14349WAT     H143289   9.332   3.266   3.837
14349WAT     H243290   9.323   3.289   3.675
14350WAT      O43291   6.746   7.275   7.015
14350WAT     H143292   6.810   7.348   6.991
14350WAT     H243293   6.796   7.197   7.050
14351WAT      O43294   5.949   5.519   5.037
14351WAT     H143295   5.930   5.614   5.011
14351WAT     H243296   6.045   5.498   5.018
14352WAT      O43297   5.377   8.552   8.390
14352WAT     H143298   5.465   8.560   8.343
14352WAT     H243299   5.391   8.549   8.488
14353WAT      O43300   2.161   7.712   0.601
14353WAT     H143301   2.184   7.638   0.538
14353WAT     H243302   2.244   7.743   0.648
14354WAT      O43303   2.102   0.800   6.747
14354WAT     H143304   2.173   0.863   6.779
14354WAT     H243305   2.107   0.793   6.647
14355WAT      O43306   1.559   9.428   6.930
14355WAT     H143307   1.574   9.330   6.921
14355WAT     H243308   1.461   9.447   6.927
14356WAT      O43309   2.850   1.865   5.976
14356WAT     H143310   2.766   1.906   6.011
14356WAT     H243311   2.924   1.932   5.980
14357WAT      O43312   3.436   1.117   6.848
14357WAT     H143313   3.349   1.127   6.800
14357WAT     H243314   3.422   1.065   6.932
14358WAT      O43315   1.758   7.886   9.131
14358WAT     H143316   1.685   7.821   9.152
14358WAT     H243317   1.824   7.888   9.206
14359WAT      O43318   1.744   8.678   3.249
14359WAT     H143319   1.705   8.641   3.164
14359WAT     H243320   1.764   8.603   3.311
14360WAT      O43321   5.188   8.218   6.671
14360WAT     H143322   5.125   8.141   6.680
14360WAT     H243323   5.280   8.190   6.698
14361WAT      O43324   4.261   9.550   2.487
14361WAT     H143325   4.321   9.612   2.436
14361WAT     H243326   4.167   9.583   2.479
14362WAT      O43327   8.515   7.087   3.146
14362WAT     H143328   8.542   7.138   3.065
14362WAT     H243329   8.469   7.003   3.119
14363WAT      O43330   9.248   1.493   3.165
14363WAT     H143331   9.329   1.436   3.152
14363WAT     H243332   9.166   1.436   3.156
14364WAT      O43333   5.126   1.717   7.584
14364WAT     H143334   5.204   1.777   7.562
14364WAT     H243335   5.042   1.758   7.549
14365WAT      O43336   4.656   9.717   5.803
14365WAT     H143337   4.647   9.795   5.741
14365WAT     H243338   4.751   9.711   5.835
14366WAT      O43339   8.335   4.766   6.475
14366WAT     H143340   8.378   4.687   6.431
14366WAT     H243341   8.306   4.831   6.405
14367WAT      O43342   2.290   4.049   4.124
14367WAT     H143343   2.213   4.058   4.187
14367WAT     H243344   2.306   3.952   4.105
14368WAT      O43345   9.061   9.796   6.184
14368WAT     H143346   8.971   9.777   6.223
14368WAT     H243347   9.076   9.737   6.105
14369WAT      O43348   3.448   6.869   4.157
14369WAT     H143349   3.384   6.794   4.137
14369WAT     H243350   3.408   6.929   4.227
14370WAT      O43351   6.312   4.636   9.225
14370WAT     H143352   6.336   4.565   9.159
14370WAT     H243353   6.294   4.722   9.176
14371WAT      O43354   0.467   5.607   5.467
14371WAT     H143355   0.510   5.530   5.420
14371WAT     H243356   0.520   5.690   5.451
14372WAT      O43357   9.094   2.409   0.142
14372WAT     H143358   9.001   2.380   0.116
14372WAT     H243359   9.148   2.328   0.164
14373WAT      O43360   9.670   7.427   0.735
14373WAT     H143361   9.700   7.345   0.784
14373WAT     H243362   9.721   7.434   0.649
14374WAT      O43363   0.758   9.029   8.089
14374WAT     H143364   0.810   9.096   8.037
14374WAT     H243365   0.687   8.989   8.030
14375WAT      O43366   2.065   9.656   6.842
14375WAT     H143367   2.153   9.689   6.807
14375WAT     H243368   2.071   9.558   6.860
14376WAT      O43369   0.191   1.890   6.314
14376WAT     H143370   0.138   1.973   6.298
14376WAT     H243371   0.213   1.847   6.227
14377WAT      O43372   5.463   9.260   6.285
14377WAT     H143373   5.536   9.274   6.352
14377WAT     H243374   5.390   9.205   6.326
14378WAT      O43375   6.799   7.731   2.923
14378WAT     H143376   6.844   7.647   2.952
14378WAT     H243377   6.751   7.773   3.000
14379WAT      O43378   1.726   5.292   1.030
14379WAT     H143379   1.768   5.305   1.119
14379WAT     H243380   1.797   5.276   0.961
14380WAT      O43381   9.697   3.649   5.925
14380WAT     H143382   9.790   3.657   5.960
14380WAT     H243383   9.653   3.569   5.966
14381WAT      O43384   4.450   5.756   8.252
14381WAT     H143385   4.496   5.844   8.241
14381WAT     H243386   4.432   5.717   8.162
14382WAT      O43387   7.297   3.675   6.712
14382WAT     H143388   7.215   3.665   6.656
14382WAT     H243389   7.271   3.671   6.809
14383WAT      O43390   8.860   3.737   0.443
14383WAT     H143391   8.855   3.780   0.533
14383WAT     H243392   8.800   3.785   0.379
14384WAT      O43393   1.799   2.547   1.184
14384WAT     H143394   1.753   2.603   1.253
14384WAT     H243395   1.756   2.457   1.180
14385WAT      O43396   2.754   2.828   2.518
14385WAT     H143397   2.717   2.875   2.439
14385WAT     H243398   2.771   2.732   2.495
14386WAT      O43399   9.521   4.927   2.307
14386WAT     H143400   9.552   5.008   2.259
14386WAT     H243401   9.520   4.849   2.244
14387WAT      O43402   7.581   8.628   7.826
14387WAT     H143403   7.593   8.611   7.728
14387WAT     H243404   7.594   8.725   7.846
14388WAT      O43405   7.000   1.074   3.860
14388WAT     H143406   6.936   1.069   3.937
14388WAT     H243407   6.959   1.129   3.787
14389WAT      O43408   5.153   1.818   6.489
14389WAT     H143409   5.229   1.807   6.554
14389WAT     H243410   5.098   1.897   6.515
14390WAT      O43411   0.392   8.956   3.142
14390WAT     H143412   0.318   8.937   3.077
14390WAT     H243413   0.394   8.885   3.212
14391WAT      O43414   5.669   7.285   1.470
14391WAT     H143415   5.613   7.203   1.458
14391WAT     H243416   5.609   7.365   1.481
14392WAT      O43417   2.704   6.723   9.202
14392WAT     H143418   2.691   6.626   9.221
14392WAT     H243419   2.622   6.759   9.157
14393WAT      O43420   7.297   8.678   5.776
14393WAT     H143421   7.304   8.648   5.681
14393WAT     H243422   7.202   8.673   5.806
14394WAT      O43423   5.971   1.168   7.651
14394WAT     H143424   5.969   1.181   7.552
14394WAT     H243425   6.058   1.129   7.678
14395WAT      O43426   0.247   1.627   2.887
14395WAT     H143427   0.277   1.707   2.939
14395WAT     H243428   0.326   1.569   2.868
14396WAT      O43429   9.385   1.860   3.425
14396WAT     H143430   9.345   1.924   3.490
14396WAT     H243431   9.478   1.837   3.453
14397WAT      O43432   3.643   6.348   8.307
14397WAT     H143433   3.660   6.439   8.344
14397WAT     H243434   3.647   6.351   8.208
14398WAT      O43435   5.360   1.679   1.174
14398WAT     H143436   5.397   1.726   1.093
14398WAT     H243437   5.294   1.610   1.145
14399WAT      O43438   2.971   8.815   8.628
14399WAT     H143439   2.973   8.754   8.548
14399WAT     H243440   2.889   8.873   8.623
14400WAT      O43441   8.833   1.512   9.109
14400WAT     H143442   8.879   1.439   9.159
14400WAT     H243443   8.773   1.563   9.172
14401WAT      O43444   7.427   4.606   1.175
14401WAT     H143445   7.338   4.651   1.171
14401WAT     H243446   7.499   4.675   1.168
14402WAT      O43447   6.606   3.089   8.948
14402WAT     H143448   6.672   3.106   9.022
14402WAT     H243449   6.555   3.174   8.930
14403WAT      O43450   3.688   2.232   4.311
14403WAT     H143451   3.602   2.220   4.261
14403WAT     H243452   3.751   2.159   4.285
14404WAT      O43453   1.562   3.261   3.042
14404WAT     H143454   1.486   3.310   3.085
14404WAT     H243455   1.629   3.327   3.007
14405WAT      O43456   2.176   4.411   9.792
14405WAT     H143457   2.151   4.321   9.827
14405WAT     H243458   2.188   4.405   9.693
14406WAT      O43459   9.623   1.384   8.721
14406WAT     H143460   9.654   1.443   8.646
14406WAT     H243461   9.686   1.308   8.732
14407WAT      O43462   9.314   3.637   8.509
14407WAT     H143463   9.345   3.542   8.511
14407WAT     H243464   9.379   3.693   8.457
14408WAT      O43465   2.408   5.307   7.135
14408WAT     H143466   2.320   5.264   7.156
14408WAT     H243467   2.476   5.236   7.119
14409WAT      O43468   3.728   2.042   8.919
14409WAT     H143469   3.756   1.950   8.946
14409WAT     H243470   3.782   2.073   8.841
14410WAT      O43471   6.501   3.259   2.113
14410WAT     H143472   6.491   3.254   2.213
14410WAT     H243473   6.419   3.299   2.074
14411WAT      O43474   6.864   3.807   1.887
14411WAT     H143475   6.834   3.735   1.948
14411WAT     H243476   6.908   3.880   1.940
14412WAT      O43477   0.552   5.182   2.689
14412WAT     H143478   0.621   5.134   2.742
14412WAT     H243479   0.590   5.205   2.599
14413WAT      O43480   3.280   4.558   9.532
14413WAT     H143481   3.231   4.562   9.445
14413WAT     H243482   3.315   4.466   9.546
14414WAT      O43483   8.539   7.274   6.416
14414WAT     H143484   8.461   7.225   6.456
14414WAT     H243485   8.561   7.233   6.327
14415WAT      O43486   4.895   0.599   9.156
14415WAT     H143487   4.845   0.600   9.069
14415WAT     H243488   4.895   0.506   9.193
14416WAT      O43489   9.728   3.395   1.957
14416WAT     H143490   9.702   3.311   1.909
14416WAT     H243491   9.764   3.461   1.890
14417WAT      O43492   0.864   5.168   9.639
14417WAT     H143493   0.953   5.177   9.593
14417WAT     H243494   0.799   5.233   9.599
14418WAT      O43495   8.649   1.841   5.659
14418WAT     H143496   8.570   1.806   5.709
14418WAT     H243497   8.732   1.826   5.713
14419WAT      O43498   1.380   1.034   8.889
14419WAT     H143499   1.331   1.121   8.881
14419WAT     H243500   1.360   0.978   8.809
14420WAT      O43501   7.005   4.900   8.989
14420WAT     H143502   7.030   4.846   9.069
14420WAT     H243503   6.913   4.939   9.003
14421WAT      O43504   6.774   3.186   0.394
14421WAT     H143505   6.866   3.156   0.370
14421WAT     H243506   6.778   3.279   0.432
14422WAT      O43507   8.797   0.096   5.244
14422WAT     H143508   8.863   0.113   5.317
14422WAT     H243509   8.766   0.001   5.250
14423WAT      O43510   7.385   7.819   6.151
14423WAT     H143511   7.430   7.901   6.185
14423WAT     H243512   7.384   7.821   6.051
14424WAT      O43513   3.910   0.497   5.893
14424WAT     H143514   3.869   0.580   5.931
14424WAT     H243515   3.981   0.523   5.827
14425WAT      O43516   1.631   8.309   7.872
14425WAT     H143517   1.699   8.306   7.798
14425WAT     H243518   1.549   8.260   7.844
14426WAT      O43519   8.072   5.868   5.732
14426WAT     H143520   8.088   5.871   5.831
14426WAT     H243521   8.037   5.956   5.701
14427WAT      O43522   5.792   0.150   9.805
14427WAT     H143523   5.738   0.169   9.723
14427WAT     H243524   5.746   0.081   9.860
14428WAT      O43525   9.308   9.118   1.441
14428WAT     H143526   9.356   9.087   1.359
14428WAT     H243527   9.317   9.049   1.513
14429WAT      O43528   8.585   3.716   5.084
14429WAT     H143529   8.603   3.620   5.108
14429WAT     H243530   8.606   3.774   5.163
14430WAT      O43531   8.817   7.403   0.972
14430WAT     H143532   8.748   7.332   0.992
14430WAT     H243533   8.771   7.484   0.936
14431WAT      O43534   5.212   5.477   0.821
14431WAT     H143535   5.235   5.568   0.855
14431WAT     H243536   5.174   5.422   0.896
14432WAT      O43537   8.720   5.645   2.032
14432WAT     H143538   8.637   5.669   2.083
14432WAT     H243539   8.696   5.624   1.938
14433WAT      O43540   9.504   7.486   0.065
14433WAT     H143541   9.540   7.501  -0.027
14433WAT     H243542   9.520   7.566   0.122
14434WAT      O43543   8.859   0.696   5.125
14434WAT     H143544   8.829   0.614   5.174
14434WAT     H243545   8.958   0.706   5.135
14435WAT      O43546   6.284   6.062   1.859
14435WAT     H143547   6.363   6.120   1.881
14435WAT     H243548   6.200   6.111   1.880
14436WAT      O43549   0.693   1.438   6.221
14436WAT     H143550   0.792   1.449   6.209
14436WAT     H243551   0.649   1.431   6.131
14437WAT      O43552   7.177   4.725   1.189
14437WAT     H143553   7.105   4.708   1.257
14437WAT     H243554   7.158   4.671   1.107
14438WAT      O43555   9.625   9.581   3.200
14438WAT     H143556   9.667   9.497   3.234
14438WAT     H243557   9.527   9.579   3.217
14439WAT      O43558   2.445   3.237   8.133
14439WAT     H143559   2.453   3.146   8.093
14439WAT     H243560   2.375   3.236   8.205
14440WAT      O43561   7.392   2.054   9.789
14440WAT     H143562   7.401   2.121   9.863
14440WAT     H243563   7.474   2.057   9.732
14441WAT      O43564   5.496   8.785   2.510
14441WAT     H143565   5.583   8.827   2.535
14441WAT     H243566   5.488   8.695   2.553
14442WAT      O43567   6.555   7.406   3.382
14442WAT     H143568   6.508   7.486   3.346
14442WAT     H243569   6.653   7.424   3.386
14443WAT      O43570   7.929   1.643   8.316
14443WAT     H143571   7.995   1.588   8.368
14443WAT     H243572   7.841   1.595   8.314
14444WAT      O43573   3.819   5.554   0.126
14444WAT     H143574   3.878   5.612   0.182
14444WAT     H243575   3.787   5.606   0.047
14445WAT      O43576   7.713   5.988   7.038
14445WAT     H143577   7.752   6.017   6.951
14445WAT     H243578   7.676   6.067   7.086
14446WAT      O43579   6.541   3.598   4.769
14446WAT     H143580   6.572   3.504   4.782
14446WAT     H243581   6.498   3.606   4.679
14447WAT      O43582   1.127   2.272   0.725
14447WAT     H143583   1.105   2.364   0.756
14447WAT     H243584   1.061   2.207   0.763
14448WAT      O43585   4.232   2.512   6.674
14448WAT     H143586   4.198   2.426   6.637
14448WAT     H243587   4.155   2.566   6.710
14449WAT      O43588   1.557   5.504   7.087
14449WAT     H143589   1.482   5.458   7.040
14449WAT     H243590   1.640   5.496   7.033
14450WAT      O43591   7.983   8.738   1.394
14450WAT     H143592   7.987   8.834   1.366
14450WAT     H243593   8.058   8.688   1.350
14451WAT      O43594   2.793   2.571   3.316
14451WAT     H143595   2.698   2.540   3.318
14451WAT     H243596   2.802   2.655   3.369
14452WAT      O43597   6.303   1.742   7.744
14452WAT     H143598   6.390   1.714   7.704
14452WAT     H243599   6.228   1.694   7.699
14453WAT      O43600   3.786   7.712   1.057
14453WAT     H143601   3.753   7.636   1.003
14453WAT     H243602   3.743   7.797   1.026
14454WAT      O43603   4.963   6.568   6.421
14454WAT     H143604   4.961   6.554   6.520
14454WAT     H243605   4.895   6.637   6.396
14455WAT      O43606   5.510   6.183   7.460
14455WAT     H143607   5.507   6.283   7.453
14455WAT     H243608   5.539   6.157   7.551
14456WAT      O43609   4.116   3.354   1.864
14456WAT     H143610   4.027   3.321   1.893
14456WAT     H243611   4.173   3.276   1.837
14457WAT      O43612   1.241   9.141   5.325
14457WAT     H143613   1.295   9.223   5.308
14457WAT     H243614   1.218   9.136   5.422
14458WAT      O43615   8.339   1.768   6.861
14458WAT     H143616   8.370   1.696   6.924
14458WAT     H243617   8.365   1.743   6.767
14459WAT      O43618   0.998   9.784   6.507
14459WAT     H143619   0.957   9.726   6.437
14459WAT     H243620   1.035   9.866   6.463
14460WAT      O43621   7.755   3.506   6.458
14460WAT     H143622   7.658   3.528   6.445
14460WAT     H243623   7.781   3.436   6.392
14461WAT      O43624   9.440   7.400   1.947
14461WAT     H143625   9.521   7.344   1.931
14461WAT     H243626   9.397   7.375   2.034
14462WAT      O43627   7.292   8.225   1.982
14462WAT     H143628   7.276   8.269   2.070
14462WAT     H243629   7.245   8.277   1.910
14463WAT      O43630   2.614   0.924   2.882
14463WAT     H143631   2.548   0.939   2.955
14463WAT     H243632   2.606   0.997   2.814
14464WAT      O43633   1.145   4.618   7.691
14464WAT     H143634   1.239   4.593   7.712
14464WAT     H243635   1.116   4.574   7.606
14465WAT      O43636   1.354   3.131   9.384
14465WAT     H143637   1.434   3.074   9.400
14465WAT     H243638   1.329   3.179   9.468
14466WAT      O43639   2.954   4.905   6.424
14466WAT     H143640   2.934   4.974   6.494
14466WAT     H243641   3.036   4.932   6.374
14467WAT      O43642   2.367   3.819   5.851
14467WAT     H143643   2.394   3.723   5.855
14467WAT     H243644   2.269   3.827   5.871
14468WAT      O43645   2.505   6.705   9.470
14468WAT     H143646   2.409   6.711   9.495
14468WAT     H243647   2.518   6.744   9.379
14469WAT      O43648   0.398   6.076   8.940
14469WAT     H143649   0.308   6.108   8.970
14469WAT     H243650   0.466   6.099   9.010
14470WAT      O43651   5.234   6.467   0.860
14470WAT     H143652   5.174   6.397   0.897
14470WAT     H243653   5.317   6.424   0.824
14471WAT      O43654   2.676   0.960   8.854
14471WAT     H143655   2.696   0.958   8.952
14471WAT     H243656   2.744   0.906   8.805
14472WAT      O43657   0.615   3.787   1.588
14472WAT     H143658   0.710   3.817   1.596
14472WAT     H243659   0.568   3.845   1.522
14473WAT      O43660   1.381   3.983   9.843
14473WAT     H143661   1.364   3.886   9.830
14473WAT     H243662   1.340   4.035   9.768
14474WAT      O43663   9.617   0.650   9.656
14474WAT     H143664   9.529   0.612   9.626
14474WAT     H243665   9.642   0.610   9.744
14475WAT      O43666   0.347   5.639   3.800
14475WAT     H143667   0.296   5.643   3.886
14475WAT     H243668   0.410   5.561   3.803
14476WAT      O43669   9.780   7.258   9.804
14476WAT     H143670   9.815   7.313   9.880
14476WAT     H243671   9.742   7.172   9.839
14477WAT      O43672   4.478   8.946   4.755
14477WAT     H143673   4.571   8.977   4.732
14477WAT     H243674   4.481   8.897   4.842
14478WAT      O43675   1.813   7.638   8.798
14478WAT     H143676   1.720   7.621   8.764
14478WAT     H243677   1.821   7.605   8.892
14479WAT      O43678   9.766   4.403   8.545
14479WAT     H143679   9.846   4.455   8.515
14479WAT     H243680   9.752   4.417   8.643
14480WAT      O43681   5.742   5.029   6.442
14480WAT     H143682   5.751   5.089   6.363
14480WAT     H243683   5.720   5.084   6.523
14481WAT      O43684   5.830   0.799   0.143
14481WAT     H143685   5.809   0.883   0.192
14481WAT     H243686   5.923   0.803   0.108
14482WAT      O43687   1.074   0.624   0.273
14482WAT     H143688   1.095   0.626   0.175
14482WAT     H243689   1.097   0.534   0.310
14483WAT      O43690   2.277   9.095   8.020
14483WAT     H143691   2.199   9.156   8.006
14483WAT     H243692   2.248   9.014   8.069
14484WAT      O43693   0.883   1.252   8.551
14484WAT     H143694   0.832   1.297   8.478
14484WAT     H243695   0.941   1.181   8.512
14485WAT      O43696   3.682   8.201   4.677
14485WAT     H143697   3.724   8.212   4.767
14485WAT     H243698   3.680   8.104   4.652
14486WAT      O43699   7.159   0.824   2.633
14486WAT     H143700   7.065   0.831   2.601
14486WAT     H243701   7.166   0.860   2.726
14487WAT      O43702   6.868   1.119   7.566
14487WAT     H143703   6.875   1.167   7.653
14487WAT     H243704   6.959   1.091   7.535
14488WAT      O43705   8.718   7.041   7.775
14488WAT     H143706   8.780   7.088   7.713
14488WAT     H243707   8.763   6.959   7.812
14489WAT      O43708   0.972   7.351   0.713
14489WAT     H143709   0.918   7.418   0.662
14489WAT     H243710   0.914   7.306   0.781
14490WAT      O43711   9.645   4.220   0.857
14490WAT     H143712   9.619   4.252   0.949
14490WAT     H243713   9.564   4.185   0.810
14491WAT      O43714   3.160   0.439   9.858
14491WAT     H143715   3.173   0.342   9.837
14491WAT     H243716   3.094   0.448   9.933
14492WAT      O43717   1.178   7.590   4.547
14492WAT     H143718   1.230   7.592   4.632
14492WAT     H243719   1.127   7.676   4.538
14493WAT      O43720   4.649   5.328   7.564
14493WAT     H143721   4.683   5.293   7.476
14493WAT     H243722   4.665   5.426   7.570
14494WAT      O43723   7.777   8.604   6.529
14494WAT     H143724   7.815   8.696   6.542
14494WAT     H243725   7.852   8.539   6.519
14495WAT      O43726   6.930   7.064   8.048
14495WAT     H143727   6.898   6.983   7.998
14495WAT     H243728   6.882   7.071   8.135
14496WAT      O43729   1.495   9.731   4.301
14496WAT     H143730   1.557   9.803   4.331
14496WAT     H243731   1.409   9.738   4.352
14497WAT      O43732   5.070   1.744   2.785
14497WAT     H143733   5.143   1.677   2.774
14497WAT     H243734   4.988   1.699   2.820
14498WAT      O43735   7.545   0.484   9.015
14498WAT     H143736   7.487   0.474   9.096
14498WAT     H243737   7.589   0.574   9.016
14499WAT      O43738   9.573   5.476   8.276
14499WAT     H143739   9.644   5.405   8.277
14499WAT     H243740   9.615   5.566   8.281
14500WAT      O43741   0.441   6.490   2.547
14500WAT     H143742   0.367   6.506   2.612
14500WAT     H243743   0.503   6.420   2.583
14501WAT      O43744   1.198   4.140   1.132
14501WAT     H143745   1.297   4.156   1.125
14501WAT     H243746   1.153   4.175   1.049
14502WAT      O43747   3.958   3.285   6.891
14502WAT     H143748   3.969   3.383   6.902
14502WAT     H243749   3.861   3.262   6.892
14503WAT      O43750   2.408   1.119   2.473
14503WAT     H143751   2.431   1.195   2.413
14503WAT     H243752   2.447   1.035   2.437
14504WAT      O43753   9.888   1.049   6.471
14504WAT     H143754   9.809   1.039   6.412
14504WAT     H243755   9.970   1.020   6.422
14505WAT      O43756   1.696   2.831   1.767
14505WAT     H143757   1.784   2.855   1.725
14505WAT     H243758   1.628   2.899   1.741
14506WAT      O43759   5.079   5.600   6.083
14506WAT     H143760   5.064   5.698   6.068
14506WAT     H243761   5.176   5.579   6.070
14507WAT      O43762   8.316   1.955   5.926
14507WAT     H143763   8.350   2.045   5.953
14507WAT     H243764   8.256   1.963   5.847
14508WAT      O43765   4.788   4.958   6.587
14508WAT     H143766   4.762   5.005   6.502
14508WAT     H243767   4.775   5.020   6.664
14509WAT      O43768   4.896   7.808   9.725
14509WAT     H143769   4.874   7.795   9.821
14509WAT     H243770   4.829   7.871   9.683
14510WAT      O43771   8.083   2.004   8.606
14510WAT     H143772   8.173   2.003   8.563
14510WAT     H243773   8.080   1.938   8.681
14511WAT      O43774   3.685   8.461   7.766
14511WAT     H143775   3.634   8.423   7.688
14511WAT     H243776   3.723   8.386   7.820
14512WAT      O43777   2.335   9.105   4.095
14512WAT     H143778   2.356   9.202   4.101
14512WAT     H243779   2.381   9.057   4.170
14513WAT      O43780   7.770   7.645   1.250
14513WAT     H143781   7.678   7.616   1.226
14513WAT     H243782   7.787   7.626   1.347
14514WAT      O43783   3.274   5.625   9.618
14514WAT     H143784   3.195   5.567   9.636
14514WAT     H243785   3.300   5.672   9.703
14515WAT      O43786   2.894   6.372   2.218
14515WAT     H143787   2.797   6.357   2.201
14515WAT     H243788   2.935   6.287   2.251
14516WAT      O43789   8.716   8.249   6.771
14516WAT     H143790   8.741   8.287   6.682
14516WAT     H243791   8.616   8.248   6.780
14517WAT      O43792   4.042   4.042   7.785
14517WAT     H143793   4.037   3.943   7.776
14517WAT     H243794   4.014   4.069   7.877
14518WAT      O43795   0.914   9.672   3.518
14518WAT     H143796   0.954   9.582   3.502
14518WAT     H243797   0.975   9.743   3.482
14519WAT      O43798   5.480   5.173   7.087
14519WAT     H143799   5.474   5.262   7.132
14519WAT     H243800   5.390   5.147   7.051
14520WAT      O43801   7.291   8.689   6.454
14520WAT     H143802   7.267   8.608   6.401
14520WAT     H243803   7.312   8.662   6.548
14521WAT      O43804   0.098   0.959   7.696
14521WAT     H143805   0.195   0.978   7.711
14521WAT     H243806   0.084   0.861   7.683
14522WAT      O43807   4.051   5.100   9.259
14522WAT     H143808   4.126   5.135   9.316
14522WAT     H243809   3.998   5.177   9.223
14523WAT      O43810   7.898   4.861   9.269
14523WAT     H143811   7.979   4.908   9.303
14523WAT     H243812   7.900   4.766   9.299
14524WAT      O43813   0.671   8.331   8.790
14524WAT     H143814   0.754   8.317   8.737
14524WAT     H243815   0.685   8.408   8.853
14525WAT      O43816   7.825   8.946   8.533
14525WAT     H143817   7.731   8.928   8.506
14525WAT     H243818   7.832   8.944   8.633
14526WAT      O43819   3.289   1.967   7.622
14526WAT     H143820   3.221   1.932   7.686
14526WAT     H243821   3.288   1.913   7.538
14527WAT      O43822   6.588   3.988   3.440
14527WAT     H143823   6.646   3.962   3.364
14527WAT     H243824   6.628   3.956   3.526
14528WAT      O43825   0.148   6.170   0.953
14528WAT     H143826   0.214   6.223   0.899
14528WAT     H243827   0.090   6.117   0.891
14529WAT      O43828   0.902   2.264   8.838
14529WAT     H143829   0.889   2.287   8.935
14529WAT     H243830   0.978   2.318   8.801
14530WAT      O43831   2.016   0.737   1.255
14530WAT     H143832   2.016   0.732   1.155
14530WAT     H243833   1.969   0.820   1.284
14531WAT      O43834   1.471   7.643   2.489
14531WAT     H143835   1.514   7.569   2.540
14531WAT     H243836   1.376   7.654   2.519
14532WAT      O43837   8.585   6.950   1.418
14532WAT     H143838   8.487   6.932   1.408
14532WAT     H243839   8.608   6.952   1.516
14533WAT      O43840   0.905   3.845   2.925
14533WAT     H143841   0.901   3.900   3.009
14533WAT     H243842   0.965   3.890   2.859
14534WAT      O43843   4.648   0.217   2.547
14534WAT     H143844   4.722   0.265   2.593
14534WAT     H243845   4.650   0.120   2.574
14535WAT      O43846   7.572   4.417   3.562
14535WAT     H143847   7.623   4.377   3.637
14535WAT     H243848   7.602   4.511   3.546
14536WAT      O43849   0.910   8.205   5.516
14536WAT     H143850   0.934   8.116   5.477
14536WAT     H243851   0.905   8.272   5.442
14537WAT      O43852   8.401   4.304   9.000
14537WAT     H143853   8.392   4.397   8.964
14537WAT     H243854   8.475   4.302   9.067
14538WAT      O43855   1.539   3.721   6.813
14538WAT     H143856   1.623   3.771   6.834
14538WAT     H243857   1.520   3.727   6.715
14539WAT      O43858   7.762   3.894   6.205
14539WAT     H143859   7.841   3.832   6.200
14539WAT     H243860   7.714   3.879   6.291
14540WAT      O43861   8.149   9.272   8.178
14540WAT     H143862   8.169   9.206   8.105
14540WAT     H243863   8.102   9.351   8.139
14541WAT      O43864   1.514   7.539   7.229
14541WAT     H143865   1.470   7.453   7.205
14541WAT     H243866   1.608   7.539   7.194
14542WAT      O43867   6.871   4.317   1.565
14542WAT     H143868   6.946   4.355   1.510
14542WAT     H243869   6.906   4.240   1.619
14543WAT      O43870   9.582   7.646   3.325
14543WAT     H143871   9.547   7.690   3.407
14543WAT     H243872   9.681   7.660   3.319
14544WAT      O43873   1.724   3.770   8.111
14544WAT     H143874   1.735   3.681   8.154
14544WAT     H243875   1.794   3.783   8.041
14545WAT      O43876   1.407   5.652   4.241
14545WAT     H143877   1.449   5.693   4.160
14545WAT     H243878   1.364   5.566   4.216
14546WAT      O43879   3.671   8.253   7.940
14546WAT     H143880   3.586   8.244   7.992
14546WAT     H243881   3.711   8.162   7.926
14547WAT      O43882   3.894   3.247   2.019
14547WAT     H143883   3.856   3.230   1.928
14547WAT     H243884   3.908   3.160   2.066
14548WAT      O43885   9.607   0.960   6.113
14548WAT     H143886   9.603   0.883   6.049
14548WAT     H243887   9.575   0.930   6.203
14549WAT      O43888   4.744   4.218   4.387
14549WAT     H143889   4.828   4.266   4.414
14549WAT     H243890   4.665   4.264   4.427
14550WAT      O43891   2.568   1.594   8.885
14550WAT     H143892   2.469   1.599   8.890
14550WAT     H243893   2.609   1.663   8.944
14551WAT      O43894   5.080   4.014   3.508
14551WAT     H143895   5.119   3.966   3.429
14551WAT     H243896   5.123   4.104   3.517
14552WAT      O43897   6.828   3.069   9.509
14552WAT     H143898   6.786   3.053   9.419
14552WAT     H243899   6.908   3.010   9.519
14553WAT      O43900   0.537   5.434   2.907
14553WAT     H143901   0.522   5.382   2.822
14553WAT     H243902   0.466   5.504   2.916
14554WAT      O43903   2.086   0.821   5.648
14554WAT     H143904   2.035   0.809   5.733
14554WAT     H243905   2.030   0.792   5.571
14555WAT      O43906   4.181   1.570   1.567
14555WAT     H143907   4.230   1.619   1.639
14555WAT     H243908   4.224   1.589   1.478
14556WAT      O43909   4.657   1.399   0.324
14556WAT     H143910   4.743   1.443   0.352
14556WAT     H243911   4.671   1.301   0.317
14557WAT      O43912   3.584   0.188   4.451
14557WAT     H143913   3.537   0.117   4.398
14557WAT     H243914   3.640   0.145   4.522
14558WAT      O43915   1.980   2.561   0.754
14558WAT     H143916   2.075   2.589   0.736
14558WAT     H243917   1.980   2.480   0.813
14559WAT      O43918   6.737   7.908   0.671
14559WAT     H143919   6.790   7.982   0.629
14559WAT     H243920   6.672   7.872   0.605
14560WAT      O43921   2.245   7.336   1.874
14560WAT     H143922   2.203   7.377   1.793
14560WAT     H243923   2.290   7.407   1.928
14561WAT      O43924   7.635   8.357   6.945
14561WAT     H143925   7.704   8.289   6.967
14561WAT     H243926   7.546   8.313   6.935
14562WAT      O43927   6.631   5.215   0.391
14562WAT     H143928   6.552   5.156   0.408
14562WAT     H243929   6.714   5.169   0.423
14563WAT      O43930   6.565   9.712   2.329
14563WAT     H143931   6.584   9.802   2.367
14563WAT     H243932   6.630   9.646   2.366
14564WAT      O43933   0.898   6.844   2.674
14564WAT     H143934   0.804   6.814   2.689
14564WAT     H243935   0.911   6.936   2.713
14565WAT      O43936   4.849   1.600   2.848
14565WAT     H143937   4.873   1.507   2.876
14565WAT     H243938   4.787   1.596   2.770
14566WAT      O43939   8.952   1.186   3.490
14566WAT     H143940   9.047   1.185   3.459
14566WAT     H243941   8.906   1.267   3.453
14567WAT      O43942   6.857   6.251   9.309
14567WAT     H143943   6.767   6.289   9.331
14567WAT     H243944   6.888   6.194   9.385
14568WAT      O43945   1.557   5.949   5.836
14568WAT     H143946   1.614   5.996   5.904
14568WAT     H243947   1.570   5.850   5.846
14569WAT      O43948   3.272   1.750   7.907
14569WAT     H143949   3.361   1.796   7.897
14569WAT     H243950   3.210   1.810   7.958
14570WAT      O43951   6.394   0.738   5.960
14570WAT     H143952   6.458   0.770   6.030
14570WAT     H243953   6.333   0.669   5.999
14571WAT      O43954   0.863   4.690   1.118
14571WAT     H143955   0.836   4.696   1.214
14571WAT     H243956   0.830   4.770   1.069
14572WAT      O43957   9.716   3.176   7.314
14572WAT     H143958   9.757   3.212   7.230
14572WAT     H243959   9.619   3.197   7.315
14573WAT      O43960   1.433   8.406   5.831
14573WAT     H143961   1.428   8.455   5.743
14573WAT     H243962   1.480   8.319   5.818
14574WAT      O43963   4.546   6.702   6.299
14574WAT     H143964   4.544   6.636   6.374
14574WAT     H243965   4.637   6.744   6.295
14575WAT      O43966   7.960   1.097   4.995
14575WAT     H143967   7.968   1.161   4.919
14575WAT     H243968   7.999   1.137   5.077
14576WAT      O43969   7.017   3.098   0.685
14576WAT     H143970   7.095   3.038   0.664
14576WAT     H243971   7.015   3.174   0.620
14577WAT      O43972   2.220   4.758   2.529
14577WAT     H143973   2.224   4.658   2.536
14577WAT     H243974   2.263   4.787   2.443
14578WAT      O43975   0.267   1.413   8.834
14578WAT     H143976   0.358   1.439   8.866
14578WAT     H243977   0.233   1.483   8.771
14579WAT      O43978   4.473   0.293   9.656
14579WAT     H143979   4.406   0.315   9.586
14579WAT     H243980   4.472   0.194   9.672
14580WAT      O43981   6.805   2.193   8.115
14580WAT     H143982   6.860   2.131   8.060
14580WAT     H243983   6.751   2.252   8.055
14581WAT      O43984   0.352   5.252   1.935
14581WAT     H143985   0.399   5.174   1.895
14581WAT     H243986   0.341   5.238   2.033
14582WAT      O43987   5.550   8.549   2.906
14582WAT     H143988   5.492   8.592   2.837
14582WAT     H243989   5.534   8.593   2.995
14583WAT      O43990   1.718   6.269   8.441
14583WAT     H143991   1.739   6.199   8.373
14583WAT     H243992   1.627   6.253   8.479
14584WAT      O43993   2.367   8.608   2.095
14584WAT     H143994   2.323   8.590   2.007
14584WAT     H243995   2.428   8.532   2.118
14585WAT      O43996   3.110   8.301   0.387
14585WAT     H143997   3.145   8.242   0.314
14585WAT     H243998   3.181   8.314   0.456
14586WAT      O43999   8.261   4.672   1.379
14586WAT     H144000   8.318   4.663   1.298
14586WAT     H244001   8.194   4.598   1.382
14587WAT      O44002   5.276   3.660   1.891
14587WAT     H144003   5.314   3.613   1.812
14587WAT     H244004   5.180   3.684   1.873
14588WAT      O44005   5.304   2.453   5.094
14588WAT     H144006   5.372   2.382   5.114
14588WAT     H244007   5.244   2.465   5.174
14589WAT      O44008   8.037   8.295   7.355
14589WAT     H144009   8.088   8.237   7.292
14589WAT     H244010   8.073   8.389   7.350
14590WAT      O44011   6.836   5.471   0.736
14590WAT     H144012   6.897   5.510   0.667
14590WAT     H244013   6.829   5.372   0.723
14591WAT      O44014   4.997   5.297   5.339
14591WAT     H144015   4.977   5.373   5.278
14591WAT     H244016   4.973   5.211   5.293
14592WAT      O44017   5.141   7.236   3.507
14592WAT     H144018   5.204   7.162   3.527
14592WAT     H244019   5.085   7.255   3.587
14593WAT      O44020   4.331   0.117   0.535
14593WAT     H144021   4.253   0.160   0.490
14593WAT     H244022   4.356   0.169   0.616
14594WAT      O44023   5.271   2.035   4.257
14594WAT     H144024   5.353   2.083   4.227
14594WAT     H244025   5.253   2.057   4.353
14595WAT      O44026   5.051   4.749   4.408
14595WAT     H144027   5.095   4.664   4.436
14595WAT     H244028   5.111   4.798   4.343
14596WAT      O44029   7.616   5.748   1.415
14596WAT     H144030   7.699   5.780   1.368
14596WAT     H244031   7.543   5.735   1.349
14597WAT      O44032   8.180   5.141   3.250
14597WAT     H144033   8.181   5.074   3.324
14597WAT     H244034   8.211   5.229   3.285
14598WAT      O44035   2.306   7.264   8.040
14598WAT     H144036   2.319   7.266   8.139
14598WAT     H244037   2.324   7.354   8.002
14599WAT      O44038   8.769   6.786   9.658
14599WAT     H144039   8.811   6.750   9.742
14599WAT     H244040   8.711   6.865   9.682
14600WAT      O44041   3.405   6.723   7.242
14600WAT     H144042   3.327   6.785   7.236
14600WAT     H244043   3.439   6.702   7.151
14601WAT      O44044   4.134   5.337   0.930
14601WAT     H144045   4.118   5.429   0.892
14601WAT     H244046   4.073   5.272   0.885
14602WAT      O44047   5.903   6.638   1.684
14602WAT     H144048   5.889   6.561   1.746
14602WAT     H244049   5.870   6.615   1.593
14603WAT      O44050   0.297   1.968   7.621
14603WAT     H144051   0.205   1.976   7.584
14603WAT     H244052   0.364   1.973   7.547
14604WAT      O44053   5.117   8.333   2.119
14604WAT     H144054   5.111   8.233   2.127
14604WAT     H244055   5.160   8.357   2.032
14605WAT      O44056   2.412   1.271   9.571
14605WAT     H144057   2.432   1.185   9.525
14605WAT     H244058   2.403   1.255   9.669
14606WAT      O44059   5.626   8.309   8.388
14606WAT     H144060   5.657   8.216   8.408
14606WAT     H244061   5.683   8.347   8.315
14607WAT      O44062   7.367   6.200   8.968
14607WAT     H144063   7.373   6.130   9.039
14607WAT     H244064   7.275   6.199   8.930
14608WAT      O44065   5.750   0.897   5.382
14608WAT     H144066   5.767   0.989   5.347
14608WAT     H244067   5.809   0.832   5.336
14609WAT      O44068   6.776   4.279   3.313
14609WAT     H144069   6.711   4.299   3.240
14609WAT     H244070   6.800   4.363   3.361
14610WAT      O44071   5.966   9.696   1.950
14610WAT     H144072   6.041   9.630   1.959
14610WAT     H244073   5.925   9.711   2.040
14611WAT      O44074   3.236   4.382   9.216
14611WAT     H144075   3.226   4.449   9.143
14611WAT     H244076   3.160   4.390   9.280
14612WAT      O44077   0.282   7.401   1.772
14612WAT     H144078   0.221   7.406   1.851
14612WAT     H244079   0.326   7.490   1.759
14613WAT      O44080   0.293   9.187   5.733
14613WAT     H144081   0.199   9.217   5.717
14613WAT     H244082   0.356   9.262   5.713
14614WAT      O44083   6.663   6.609   6.181
14614WAT     H144084   6.610   6.604   6.265
14614WAT     H244085   6.604   6.643   6.107
14615WAT      O44086   2.112   4.789   3.023
14615WAT     H144087   2.101   4.692   3.004
14615WAT     H244088   2.176   4.802   3.098
14616WAT      O44089   0.074   7.932   8.816
14616WAT     H144090   0.166   7.915   8.850
14616WAT     H244091   0.019   7.848   8.823
14617WAT      O44092   2.104   0.253   6.872
14617WAT     H144093   2.189   0.305   6.879
14617WAT     H244094   2.109   0.191   6.793
14618WAT      O44095   7.616   9.637   5.172
14618WAT     H144096   7.643   9.733   5.174
14618WAT     H244097   7.517   9.630   5.181
14619WAT      O44098   2.547   7.395   8.868
14619WAT     H144099   2.453   7.427   8.879
14619WAT     H244100   2.584   7.369   8.958
14620WAT      O44101   0.694   9.132   5.671
14620WAT     H144102   0.736   9.139   5.761
14620WAT     H244103   0.613   9.190   5.668
14621WAT      O44104   2.635   4.363   2.405
14621WAT     H144105   2.726   4.372   2.445
14621WAT     H244106   2.566   4.382   2.476
14622WAT      O44107   7.674   7.594   1.518
14622WAT     H144108   7.615   7.551   1.450
14622WAT     H244109   7.636   7.684   1.543
14623WAT      O44110   1.858   8.668   8.471
14623WAT     H144111   1.901   8.603   8.533
14623WAT     H244112   1.928   8.723   8.426
14624WAT      O44113   3.495   6.249   6.578
14624WAT     H144114   3.498   6.222   6.482
14624WAT     H244115   3.553   6.188   6.632
14625WAT      O44116   5.009   0.536   0.769
14625WAT     H144117   4.997   0.475   0.691
14625WAT     H244118   5.104   0.566   0.774
14626WAT      O44119   4.467   3.458   0.068
14626WAT     H144120   4.537   3.523   0.040
14626WAT     H244121   4.377   3.501   0.063
14627WAT      O44122   7.138   3.258   7.766
14627WAT     H144123   7.163   3.338   7.711
14627WAT     H244124   7.193   3.179   7.737
14628WAT      O44125   7.380   2.022   6.579
14628WAT     H144126   7.333   1.947   6.624
14628WAT     H244127   7.471   2.034   6.619
14629WAT      O44128   0.156   2.761   0.283
14629WAT     H144129   0.081   2.714   0.329
14629WAT     H244130   0.126   2.793   0.193
14630WAT      O44131   6.924   6.862   7.357
14630WAT     H144132   7.012   6.906   7.343
14630WAT     H244133   6.918   6.826   7.451
14631WAT      O44134   1.760   5.788   8.280
14631WAT     H144135   1.675   5.819   8.324
14631WAT     H244136   1.743   5.777   8.182
14632WAT      O44137   9.004   8.163   7.414
14632WAT     H144138   9.034   8.068   7.406
14632WAT     H244139   8.980   8.198   7.323
14633WAT      O44140   7.055   9.778   3.392
14633WAT     H144141   6.993   9.705   3.362
14633WAT     H244142   7.092   9.756   3.482
14634WAT      O44143   2.258   6.298   0.727
14634WAT     H144144   2.254   6.385   0.776
14634WAT     H244145   2.189   6.236   0.763
14635WAT      O44146   6.155   1.333   1.226
14635WAT     H144147   6.198   1.353   1.138
14635WAT     H244148   6.089   1.404   1.248
14636WAT      O44149   5.773   5.794   4.752
14636WAT     H144150   5.695   5.738   4.779
14636WAT     H244151   5.842   5.793   4.824
14637WAT      O44152   2.827   8.688   3.819
14637WAT     H144153   2.845   8.643   3.906
14637WAT     H244154   2.735   8.664   3.788
14638WAT      O44155   2.734   8.510   2.775
14638WAT     H144156   2.770   8.421   2.748
14638WAT     H244157   2.764   8.531   2.868
14639WAT      O44158   3.505   0.752   0.797
14639WAT     H144159   3.590   0.730   0.846
14639WAT     H244160   3.525   0.765   0.700
14640WAT      O44161   4.708   8.228   7.204
14640WAT     H144162   4.693   8.288   7.282
14640WAT     H244163   4.708   8.133   7.235
14641WAT      O44164   7.436   5.580   4.443
14641WAT     H144165   7.413   5.648   4.374
14641WAT     H244166   7.441   5.624   4.533
14642WAT      O44167   4.250   2.997   5.483
14642WAT     H144168   4.270   2.945   5.566
14642WAT     H244169   4.334   3.010   5.430
14643WAT      O44170   6.004   9.548   2.957
14643WAT     H144171   6.037   9.532   3.050
14643WAT     H244172   6.051   9.488   2.893
14644WAT      O44173   1.483   0.491   6.433
14644WAT     H144174   1.384   0.486   6.443
14644WAT     H244175   1.512   0.587   6.431
14645WAT      O44176   3.707   2.138   1.822
14645WAT     H144177   3.616   2.110   1.855
14645WAT     H244178   3.757   2.184   1.895
14646WAT      O44179   1.056   6.657   0.781
14646WAT     H144180   1.151   6.644   0.811
14646WAT     H244181   1.055   6.712   0.697
14647WAT      O44182   0.074   0.032   2.238
14647WAT     H144183   0.167   0.042   2.271
14647WAT     H244184   0.028  -0.042   2.288
14648WAT      O44185   0.664   6.302   1.890
14648WAT     H144186   0.642   6.389   1.846
14648WAT     H244187   0.632   6.227   1.832
14649WAT      O44188   2.613   7.830   5.579
14649WAT     H144189   2.668   7.890   5.520
14649WAT     H244190   2.517   7.838   5.554
14650WAT      O44191   5.508   9.304   0.730
14650WAT     H144192   5.479   9.288   0.635
14650WAT     H244193   5.543   9.397   0.739
14651WAT      O44194   4.354   0.738   6.324
14651WAT     H144195   4.293   0.811   6.354
14651WAT     H244196   4.300   0.664   6.283
14652WAT      O44197   8.610   6.533   0.147
14652WAT     H144198   8.675   6.608   0.149
14652WAT     H244199   8.659   6.446   0.145
14653WAT      O44200   0.754   0.685   1.787
14653WAT     H144201   0.835   0.723   1.831
14653WAT     H244202   0.684   0.667   1.856
14654WAT      O44203   9.120   4.642   7.490
14654WAT     H144204   9.072   4.582   7.554
14654WAT     H244205   9.177   4.706   7.541
14655WAT      O44206   4.190   4.831   7.928
14655WAT     H144207   4.261   4.882   7.978
14655WAT     H244208   4.151   4.761   7.988
14656WAT      O44209   1.249   4.332   1.890
14656WAT     H144210   1.184   4.304   1.819
14656WAT     H244211   1.307   4.254   1.914
14657WAT      O44212   9.010   7.224   6.969
14657WAT     H144213   8.918   7.232   6.929
14657WAT     H244214   9.003   7.188   7.061
14658WAT      O44215   1.915   7.412   4.945
14658WAT     H144216   1.920   7.313   4.946
14658WAT     H244217   1.926   7.445   4.851
14659WAT      O44218   6.059   2.000   3.632
14659WAT     H144219   6.026   1.931   3.568
14659WAT     H244220   6.002   1.999   3.715
14660WAT      O44221   7.000   1.643   4.931
14660WAT     H144222   6.976   1.732   4.893
14660WAT     H244223   7.095   1.642   4.960
14661WAT      O44224   2.940   8.119   8.911
14661WAT     H144225   2.893   8.056   8.850
14661WAT     H244226   3.025   8.150   8.868
14662WAT      O44227   5.354   8.848   9.069
14662WAT     H144228   5.426   8.907   9.105
14662WAT     H244229   5.268   8.868   9.117
14663WAT      O44230   8.108   1.010   0.565
14663WAT     H144231   8.133   1.045   0.655
14663WAT     H244232   8.114   0.911   0.565
14664WAT      O44233   5.556   6.544   8.116
14664WAT     H144234   5.640   6.489   8.121
14664WAT     H244235   5.527   6.569   8.208
14665WAT      O44236   8.636   6.844   3.503
14665WAT     H144237   8.693   6.823   3.425
14665WAT     H244238   8.540   6.851   3.474
14666WAT      O44239   1.441   9.712   2.908
14666WAT     H144240   1.475   9.758   2.990
14666WAT     H244241   1.427   9.779   2.835
14667WAT      O44242   9.867   5.864   6.163
14667WAT     H144243   9.938   5.809   6.118
14667WAT     H244244   9.895   5.960   6.164
14668WAT      O44245   7.344   8.305   0.181
14668WAT     H144246   7.430   8.335   0.222
14668WAT     H244247   7.340   8.205   0.180
14669WAT      O44248   1.337   3.450   1.025
14669WAT     H144249   1.278   3.464   1.104
14669WAT     H244250   1.390   3.366   1.037
14670WAT      O44251   4.083   5.357   4.869
14670WAT     H144252   4.084   5.451   4.904
14670WAT     H244253   4.149   5.301   4.920
14671WAT      O44254   1.740   8.475   8.319
14671WAT     H144255   1.789   8.555   8.354
14671WAT     H244256   1.696   8.427   8.395
14672WAT      O44257   9.020   3.137   4.612
14672WAT     H144258   9.062   3.062   4.562
14672WAT     H244259   9.091   3.197   4.648
14673WAT      O44260   0.606   8.104   8.414
14673WAT     H144261   0.640   8.039   8.482
14673WAT     H244262   0.610   8.197   8.451
14674WAT      O44263   3.185   3.610   3.325
14674WAT     H144264   3.148   3.538   3.384
14674WAT     H244265   3.190   3.696   3.377
14675WAT      O44266   0.577   9.292   7.347
14675WAT     H144267   0.648   9.340   7.399
14675WAT     H244268   0.532   9.357   7.286
14676WAT      O44269   6.345   8.967   8.857
14676WAT     H144270   6.423   9.030   8.866
14676WAT     H244271   6.274   9.010   8.800
14677WAT      O44272   4.906   4.544   5.047
14677WAT     H144273   5.003   4.522   5.048
14677WAT     H244274   4.892   4.631   4.999
14678WAT      O44275   7.494   1.016   6.484
14678WAT     H144276   7.420   1.046   6.545
14678WAT     H244277   7.538   0.935   6.522
14679WAT      O44278   0.954   5.127   6.102
14679WAT     H144279   0.864   5.167   6.089
14679WAT     H244280   0.956   5.076   6.188
14680WAT      O44281   3.863   4.994   2.602
14680WAT     H144282   3.956   5.022   2.579
14680WAT     H244283   3.835   5.038   2.688
14681WAT      O44284   0.480   2.150   4.972
14681WAT     H144285   0.563   2.112   4.932
14681WAT     H244286   0.433   2.079   5.024
14682WAT      O44287   7.437   1.733   7.852
14682WAT     H144288   7.536   1.745   7.861
14682WAT     H244289   7.415   1.702   7.760
14683WAT      O44290   5.134   6.272   7.507
14683WAT     H144291   5.174   6.183   7.528
14683WAT     H244292   5.168   6.304   7.418
14684WAT      O44293   6.623   8.029   6.611
14684WAT     H144294   6.608   8.019   6.513
14684WAT     H244295   6.626   7.939   6.654
14685WAT      O44296   8.814   1.176   0.732
14685WAT     H144297   8.851   1.169   0.824
14685WAT     H244298   8.736   1.115   0.722
14686WAT      O44299   2.113   4.483   8.455
14686WAT     H144300   2.156   4.422   8.389
14686WAT     H244301   2.143   4.577   8.438
14687WAT      O44302   2.943   9.536   5.484
14687WAT     H144303   2.930   9.472   5.559
14687WAT     H244304   3.039   9.536   5.456
14688WAT      O44305   6.144   3.319   4.772
14688WAT     H144306   6.098   3.233   4.793
14688WAT     H244307   6.145   3.377   4.853
14689WAT      O44308   0.567   2.526   4.777
14689WAT     H144309   0.550   2.601   4.713
14689WAT     H244310   0.639   2.467   4.741
14690WAT      O44311   9.395   4.073   2.141
14690WAT     H144312   9.341   4.083   2.225
14690WAT     H244313   9.429   4.163   2.113
14691WAT      O44314   9.124   6.279   0.725
14691WAT     H144315   9.145   6.370   0.688
14691WAT     H244316   9.157   6.209   0.663
14692WAT      O44317   1.572   3.560   3.564
14692WAT     H144318   1.662   3.518   3.557
14692WAT     H244319   1.582   3.658   3.583
14693WAT      O44320   2.866   7.713   0.162
14693WAT     H144321   2.961   7.682   0.163
14693WAT     H244322   2.827   7.707   0.254
14694WAT      O44323   8.450   6.193   3.383
14694WAT     H144324   8.453   6.250   3.464
14694WAT     H244325   8.513   6.115   3.394
14695WAT      O44326   5.608   0.510   8.088
14695WAT     H144327   5.677   0.438   8.097
14695WAT     H244328   5.525   0.471   8.046
14696WAT      O44329   6.392   9.677   3.921
14696WAT     H144330   6.390   9.730   3.836
14696WAT     H244331   6.308   9.625   3.929
14697WAT      O44332   8.640   8.611   6.579
14697WAT     H144333   8.733   8.646   6.594
14697WAT     H244334   8.643   8.511   6.578
14698WAT      O44335   1.423   6.699   4.146
14698WAT     H144336   1.328   6.727   4.128
14698WAT     H244337   1.466   6.767   4.205
14699WAT      O44338   0.156   3.153   4.980
14699WAT     H144339   0.217   3.232   4.973
14699WAT     H244340   0.112   3.153   5.070
14700WAT      O44341   0.779   1.436   2.100
14700WAT     H144342   0.856   1.374   2.122
14700WAT     H244343   0.813   1.512   2.046
14701WAT      O44344   3.554   7.998   7.660
14701WAT     H144345   3.465   7.970   7.623
14701WAT     H244346   3.622   7.997   7.588
14702WAT      O44347   2.647   7.545   7.981
14702WAT     H144348   2.696   7.544   7.894
14702WAT     H244349   2.551   7.520   7.965
14703WAT      O44350   7.792   0.158   4.535
14703WAT     H144351   7.829   0.164   4.628
14703WAT     H244352   7.765   0.250   4.505
14704WAT      O44353   0.370   1.299   9.540
14704WAT     H144354   0.394   1.256   9.627
14704WAT     H244355   0.280   1.341   9.547
14705WAT      O44356   7.927   4.126   1.783
14705WAT     H144357   7.875   4.044   1.809
14705WAT     H244358   8.020   4.119   1.819
14706WAT      O44359   8.365   6.498   7.395
14706WAT     H144360   8.443   6.436   7.387
14706WAT     H244361   8.383   6.565   7.466
14707WAT      O44362   6.128   0.160   6.158
14707WAT     H144363   6.191   0.089   6.127
14707WAT     H244364   6.177   0.225   6.216
14708WAT      O44365   1.829   9.202   5.445
14708WAT     H144366   1.746   9.146   5.443
14708WAT     H244367   1.909   9.146   5.425
14709WAT      O44368   3.474   8.094   0.022
14709WAT     H144369   3.533   8.173   0.008
14709WAT     H244370   3.402   8.118   0.087
14710WAT      O44371   2.852   8.064   7.645
14710WAT     H144372   2.898   8.141   7.602
14710WAT     H244373   2.892   8.048   7.736
14711WAT      O44374   9.739   7.626   0.425
14711WAT     H144375   9.800   7.548   0.439
14711WAT     H244376   9.673   7.630   0.500
14712WAT      O44377   1.640   6.756   2.946
14712WAT     H144378   1.706   6.690   2.980
14712WAT     H244379   1.562   6.760   3.009
14713WAT      O44380   2.690   8.275   4.256
14713WAT     H144381   2.646   8.333   4.187
14713WAT     H244382   2.681   8.317   4.346
14714WAT      O44383   2.364   1.623   5.231
14714WAT     H144384   2.282   1.667   5.195
14714WAT     H244385   2.428   1.606   5.156
14715WAT      O44386   2.010   7.197   3.457
14715WAT     H144387   1.983   7.136   3.382
14715WAT     H244388   2.016   7.291   3.422
14716WAT      O44389   3.270   5.450   8.394
14716WAT     H144390   3.234   5.381   8.331
14716WAT     H244391   3.361   5.424   8.425
14717WAT      O44392   3.919   8.444   8.398
14717WAT     H144393   3.936   8.414   8.492
14717WAT     H244394   3.849   8.516   8.399
14718WAT      O44395   4.715   9.242   1.217
14718WAT     H144396   4.640   9.183   1.187
14718WAT     H244397   4.801   9.204   1.185
14719WAT      O44398   5.219   7.984   3.511
14719WAT     H144399   5.130   7.964   3.469
14719WAT     H244400   5.217   7.958   3.608
14720WAT      O44401   5.994   2.305   2.759
14720WAT     H144402   6.003   2.404   2.761
14720WAT     H244403   6.074   2.264   2.716
14721WAT      O44404   7.693   4.851   6.555
14721WAT     H144405   7.593   4.848   6.554
14721WAT     H244406   7.725   4.867   6.649
14722WAT      O44407   9.317   8.570   3.692
14722WAT     H144408   9.413   8.598   3.685
14722WAT     H244409   9.300   8.528   3.781
14723WAT      O44410   1.539   0.761   3.975
14723WAT     H144411   1.458   0.710   3.946
14723WAT     H244412   1.525   0.858   3.956
14724WAT      O44413   5.337   8.542   0.137
14724WAT     H144414   5.354   8.510   0.043
14724WAT     H244415   5.334   8.642   0.137
14725WAT      O44416   3.872   5.439   8.493
14725WAT     H144417   3.852   5.481   8.404
14725WAT     H244418   3.892   5.342   8.480
14726WAT      O44419   9.532   1.674   6.037
14726WAT     H144420   9.603   1.649   6.102
14726WAT     H244421   9.522   1.601   5.969
14727WAT      O44422   1.136   5.146   0.278
14727WAT     H144423   1.041   5.170   0.295
14727WAT     H244424   1.150   5.049   0.298
14728WAT      O44425   4.952   4.032   6.251
14728WAT     H144426   5.028   4.097   6.244
14728WAT     H244427   4.974   3.949   6.200
14729WAT      O44428   8.141   6.917   3.216
14729WAT     H144429   8.164   6.886   3.308
14729WAT     H244430   8.081   6.850   3.172
14730WAT      O44431   2.005   7.823   4.332
14730WAT     H144432   1.969   7.881   4.259
14730WAT     H244433   1.962   7.847   4.419
14731WAT      O44434   0.795   8.460   1.152
14731WAT     H144435   0.758   8.368   1.164
14731WAT     H244436   0.812   8.502   1.241
14732WAT      O44437   4.098   6.317   6.292
14732WAT     H144438   4.127   6.390   6.354
14732WAT     H244439   4.147   6.325   6.205
14733WAT      O44440   7.429   5.380   8.512
14733WAT     H144441   7.524   5.352   8.525
14733WAT     H244442   7.421   5.432   8.427
14734WAT      O44443   9.054   1.123   2.148
14734WAT     H144444   8.962   1.095   2.172
14734WAT     H244445   9.055   1.159   2.054
14735WAT      O44446   2.006   6.070   5.220
14735WAT     H144447   2.001   6.064   5.120
14735WAT     H244448   1.963   6.155   5.250
14736WAT      O44449   1.073   9.551   5.564
14736WAT     H144450   1.111   9.474   5.616
14736WAT     H244451   1.087   9.535   5.466
14737WAT      O44452   4.511   3.933   0.159
14737WAT     H144453   4.531   4.001   0.229
14737WAT     H244454   4.451   3.863   0.197
14738WAT      O44455   3.235   4.381   0.324
14738WAT     H144456   3.171   4.435   0.379
14738WAT     H244457   3.300   4.335   0.384
14739WAT      O44458   3.513   4.910   8.997
14739WAT     H144459   3.486   4.938   8.905
14739WAT     H244460   3.441   4.852   9.037
14740WAT      O44461   1.418   7.438   3.822
14740WAT     H144462   1.506   7.454   3.866
14740WAT     H244463   1.430   7.378   3.743
14741WAT      O44464   6.619   8.171   9.617
14741WAT     H144465   6.616   8.253   9.560
14741WAT     H244466   6.587   8.092   9.564
14742WAT      O44467   6.179   0.291   2.728
14742WAT     H144468   6.186   0.280   2.827
14742WAT     H244469   6.086   0.269   2.699
14743WAT      O44470   8.081   1.244   6.185
14743WAT     H144471   8.150   1.251   6.113
14743WAT     H244472   8.110   1.298   6.264
14744WAT      O44473   1.684   2.273   1.140
14744WAT     H144474   1.687   2.297   1.043
14744WAT     H244475   1.770   2.230   1.166
14745WAT      O44476   8.421   1.996   5.214
14745WAT     H144477   8.485   2.066   5.182
14745WAT     H244478   8.430   1.986   5.313
14746WAT      O44479   4.573   9.844   4.214
14746WAT     H144480   4.519   9.913   4.262
14746WAT     H244481   4.593   9.768   4.276
14747WAT      O44482   3.031   1.564   6.162
14747WAT     H144483   2.976   1.511   6.097
14747WAT     H244484   2.997   1.548   6.255
14748WAT      O44485   8.031   6.360   2.028
14748WAT     H144486   8.055   6.453   2.055
14748WAT     H244487   8.110   6.317   1.983
14749WAT      O44488   4.766   6.874   3.407
14749WAT     H144489   4.860   6.866   3.375
14749WAT     H244490   4.764   6.876   3.507
14750WAT      O44491   7.069   5.060   0.704
14750WAT     H144492   7.038   5.144   0.747
14750WAT     H244493   7.112   5.081   0.616
14751WAT      O44494   5.320   9.843   1.103
14751WAT     H144495   5.228   9.812   1.082
14751WAT     H244496   5.363   9.779   1.167
14752WAT      O44497   4.086   9.227   9.545
14752WAT     H144498   4.168   9.236   9.487
14752WAT     H244499   4.112   9.187   9.633
14753WAT      O44500   7.070   8.688   0.853
14753WAT     H144501   7.140   8.710   0.921
14753WAT     H244502   6.985   8.662   0.899
14754WAT      O44503   0.879   2.196   2.700
14754WAT     H144504   0.953   2.130   2.710
14754WAT     H244505   0.833   2.209   2.787
14755WAT      O44506   0.327   3.950   4.935
14755WAT     H144507   0.240   3.971   4.891
14755WAT     H244508   0.402   3.984   4.878
14756WAT      O44509   7.533   1.435   0.506
14756WAT     H144510   7.609   1.396   0.455
14756WAT     H244511   7.448   1.423   0.455
14757WAT      O44512   5.622   6.078   4.292
14757WAT     H144513   5.711   6.038   4.271
14757WAT     H244514   5.593   6.137   4.217
14758WAT      O44515   2.238   5.681   5.993
14758WAT     H144516   2.332   5.708   5.974
14758WAT     H244517   2.181   5.763   6.005
14759WAT      O44518   0.209   3.123   7.948
14759WAT     H144519   0.205   3.137   7.849
14759WAT     H244520   0.222   3.211   7.993
14760WAT      O44521   2.316   1.842   5.870
14760WAT     H144522   2.360   1.909   5.931
14760WAT     H244523   2.386   1.797   5.814
14761WAT      O44524   3.151   4.845   9.323
14761WAT     H144525   3.119   4.939   9.320
14761WAT     H244526   3.083   4.788   9.369
14762WAT      O44527   7.132   0.979   6.681
14762WAT     H144528   7.032   0.976   6.674
14762WAT     H244529   7.167   1.053   6.624
14763WAT      O44530   2.770   6.318   3.092
14763WAT     H144531   2.823   6.242   3.054
14763WAT     H244532   2.761   6.389   3.022
14764WAT      O44533   2.238   2.488   5.600
14764WAT     H144534   2.236   2.396   5.638
14764WAT     H244535   2.330   2.509   5.566
14765WAT      O44536   4.175   9.082   7.154
14765WAT     H144537   4.235   9.039   7.086
14765WAT     H244538   4.119   9.152   7.108
14766WAT      O44539   1.604   5.904   2.475
14766WAT     H144540   1.587   5.930   2.380
14766WAT     H244541   1.628   5.986   2.528
14767WAT      O44542   9.406   2.226   2.907
14767WAT     H144543   9.357   2.311   2.889
14767WAT     H244544   9.399   2.203   3.004
14768WAT      O44545   4.734   0.559   0.815
14768WAT     H144546   4.827   0.569   0.781
14768WAT     H244547   4.716   0.629   0.885
14769WAT      O44548   0.740   3.533   6.738
14769WAT     H144549   0.737   3.617   6.684
14769WAT     H244550   0.773   3.554   6.830
14770WAT      O44551   0.591   1.049   9.215
14770WAT     H144552   0.643   1.110   9.275
14770WAT     H244553   0.573   0.963   9.263
14771WAT      O44554   9.377   2.048   7.953
14771WAT     H144555   9.470   2.062   7.919
14771WAT     H244556   9.379   2.000   8.040
14772WAT      O44557   4.845   0.997   2.358
14772WAT     H144558   4.808   0.989   2.266
14772WAT     H244559   4.855   1.094   2.382
14773WAT      O44560   3.178   9.467   4.468
14773WAT     H144561   3.201   9.418   4.384
14773WAT     H244562   3.079   9.465   4.482
14774WAT      O44563   1.713   1.274   0.101
14774WAT     H144564   1.773   1.207   0.143
14774WAT     H244565   1.722   1.270   0.001
14775WAT      O44566   0.480   1.004   8.972
14775WAT     H144567   0.489   0.930   8.905
14775WAT     H244568   0.548   0.991   9.045
14776WAT      O44569   3.895   1.534   4.587
14776WAT     H144570   3.934   1.450   4.549
14776WAT     H244571   3.862   1.516   4.680
14777WAT      O44572   2.954   0.015   7.009
14777WAT     H144573   3.052   0.008   6.989
14777WAT     H244574   2.903  -0.039   6.942
14778WAT      O44575   3.752   4.544   9.509
14778WAT     H144576   3.741   4.448   9.483
14778WAT     H244577   3.721   4.603   9.434
14779WAT      O44578   3.450   6.607   4.305
14779WAT     H144579   3.433   6.518   4.347
14779WAT     H244580   3.535   6.646   4.342
14780WAT      O44581   9.717   6.851   3.414
14780WAT     H144582   9.682   6.794   3.340
14780WAT     H244583   9.778   6.797   3.473
14781WAT      O44584   0.509   4.511   4.116
14781WAT     H144585   0.580   4.581   4.116
14781WAT     H244586   0.425   4.549   4.154
14782WAT      O44587   0.047   1.935   7.158
14782WAT     H144588  -0.018   1.933   7.082
14782WAT     H244589   0.045   2.025   7.201
14783WAT      O44590   9.271   0.967   3.159
14783WAT     H144591   9.319   0.961   3.246
14783WAT     H244592   9.175   0.990   3.176
14784WAT      O44593   8.340   2.051   6.904
14784WAT     H144594   8.246   2.078   6.927
14784WAT     H244595   8.339   1.961   6.860
14785WAT      O44596   1.960   6.807   0.261
14785WAT     H144597   1.901   6.809   0.341
14785WAT     H244598   1.953   6.717   0.217
14786WAT      O44599   6.369   8.149   6.954
14786WAT     H144600   6.465   8.155   6.981
14786WAT     H244601   6.343   8.053   6.943
14787WAT      O44602   0.293   0.510   7.846
14787WAT     H144603   0.201   0.504   7.806
14787WAT     H244604   0.319   0.606   7.856
14788WAT      O44605   8.274   5.431   7.097
14788WAT     H144606   8.197   5.490   7.074
14788WAT     H244607   8.263   5.343   7.052
14789WAT      O44608   7.254   3.562   5.844
14789WAT     H144609   7.314   3.582   5.921
14789WAT     H244610   7.178   3.505   5.875
14790WAT      O44611   7.749   7.569   4.865
14790WAT     H144612   7.811   7.505   4.911
14790WAT     H244613   7.803   7.637   4.816
14791WAT      O44614   0.136   9.715   2.945
14791WAT     H144615   0.225   9.670   2.950
14791WAT     H244616   0.143   9.794   2.884
14792WAT      O44617   1.460   4.575   6.089
14792WAT     H144618   1.407   4.494   6.064
14792WAT     H244619   1.541   4.547   6.141
14793WAT      O44620   3.138   8.378   3.705
14793WAT     H144621   3.122   8.377   3.804
14793WAT     H244622   3.090   8.302   3.662
14794WAT      O44623   3.995   4.474   9.402
14794WAT     H144624   4.000   4.530   9.320
14794WAT     H244625   3.919   4.505   9.460
14795WAT      O44626   5.351   0.820   0.795
14795WAT     H144627   5.416   0.796   0.867
14795WAT     H244628   5.367   0.915   0.766
14796WAT      O44629   3.689   2.894   0.063
14796WAT     H144630   3.687   2.875  -0.036
14796WAT     H244631   3.778   2.865   0.099
14797WAT      O44632   7.114   0.419   9.646
14797WAT     H144633   7.184   0.406   9.575
14797WAT     H244634   7.026   0.384   9.612
14798WAT      O44635   7.323   2.162   0.408
14798WAT     H144636   7.419   2.159   0.383
14798WAT     H244637   7.295   2.073   0.444
14799WAT      O44638   0.131   0.765   7.420
14799WAT     H144639   0.083   0.715   7.348
14799WAT     H244640   0.202   0.707   7.459
14800WAT      O44641   0.872   1.196   1.103
14800WAT     H144642   0.943   1.162   1.041
14800WAT     H244643   0.883   1.153   1.193
14801WAT      O44644   5.039   2.900   6.248
14801WAT     H144645   5.102   2.855   6.184
14801WAT     H244646   4.953   2.851   6.250
14802WAT      O44647   3.895   0.817   5.285
14802WAT     H144648   3.971   0.821   5.220
14802WAT     H244649   3.899   0.731   5.336
14803WAT      O44650   1.423   3.949   4.091
14803WAT     H144651   1.448   3.891   4.014
14803WAT     H244652   1.486   4.026   4.096
14804WAT      O44653   3.173   5.727   6.431
14804WAT     H144654   3.273   5.732   6.428
14804WAT     H244655   3.135   5.762   6.345
14805WAT      O44656   3.370   3.006   9.812
14805WAT     H144657   3.286   3.046   9.776
14805WAT     H244658   3.449   3.049   9.767
14806WAT      O44659   5.270   3.316   2.076
14806WAT     H144660   5.175   3.316   2.107
14806WAT     H244661   5.319   3.239   2.117
14807WAT      O44662   3.774   4.433   5.878
14807WAT     H144663   3.675   4.432   5.892
14807WAT     H244664   3.807   4.527   5.879
14808WAT      O44665   2.940   8.420   7.880
14808WAT     H144666   2.862   8.412   7.819
14808WAT     H244667   2.978   8.512   7.874
14809WAT      O44668   2.236   7.103   5.133
14809WAT     H144669   2.249   7.012   5.171
14809WAT     H244670   2.202   7.165   5.204
14810WAT      O44671   5.161   8.793   3.543
14810WAT     H144672   5.202   8.723   3.601
14810WAT     H244673   5.179   8.771   3.447
14811WAT      O44674   2.638   3.733   1.672
14811WAT     H144675   2.657   3.822   1.630
14811WAT     H244676   2.724   3.688   1.694
14812WAT      O44677   7.573   0.207   5.543
14812WAT     H144678   7.651   0.257   5.506
14812WAT     H244679   7.511   0.271   5.589
14813WAT      O44680   2.731   0.466   1.669
14813WAT     H144681   2.724   0.374   1.708
14813WAT     H244682   2.825   0.499   1.678
14814WAT      O44683   4.296   5.664   9.545
14814WAT     H144684   4.265   5.741   9.489
14814WAT     H244685   4.391   5.680   9.572
14815WAT      O44686   9.183   9.561   0.057
14815WAT     H144687   9.110   9.556  -0.011
14815WAT     H244688   9.144   9.553   0.149
14816WAT      O44689   2.796   2.800   7.087
14816WAT     H144690   2.894   2.797   7.104
14816WAT     H244691   2.767   2.895   7.075
14817WAT      O44692   0.924   8.120   7.290
14817WAT     H144693   0.955   8.142   7.383
14817WAT     H244694   0.945   8.196   7.229
14818WAT      O44695   9.358   5.145   6.953
14818WAT     H144696   9.259   5.138   6.945
14818WAT     H244697   9.381   5.213   7.024
14819WAT      O44698   2.615   3.574   0.943
14819WAT     H144699   2.643   3.627   1.024
14819WAT     H244700   2.636   3.478   0.958
14820WAT      O44701   2.494   7.478   6.918
14820WAT     H144702   2.460   7.535   6.994
14820WAT     H244703   2.592   7.491   6.908
14821WAT      O44704   2.778   8.451   2.001
14821WAT     H144705   2.820   8.377   1.949
14821WAT     H244706   2.730   8.513   1.938
14822WAT      O44707   9.650   7.290   6.347
14822WAT     H144708   9.649   7.366   6.412
14822WAT     H244709   9.603   7.317   6.263
14823WAT      O44710   7.546   1.028   2.122
14823WAT     H144711   7.556   0.996   2.216
14823WAT     H244712   7.467   0.985   2.080
14824WAT      O44713   7.890   6.128   3.174
14824WAT     H144714   7.932   6.183   3.103
14824WAT     H244715   7.846   6.048   3.133
14825WAT      O44716   4.907   9.630   8.724
14825WAT     H144717   4.902   9.579   8.638
14825WAT     H244718   4.987   9.601   8.775
14826WAT      O44719   1.514   1.896   1.099
14826WAT     H144720   1.567   1.931   1.176
14826WAT     H244721   1.436   1.956   1.083
14827WAT      O44722   3.725   8.295   0.199
14827WAT     H144723   3.665   8.279   0.278
14827WAT     H244724   3.737   8.210   0.148
14828WAT      O44725   5.329   5.517   3.019
14828WAT     H144726   5.358   5.602   3.064
14828WAT     H244727   5.247   5.481   3.065
14829WAT      O44728   5.368   6.101   6.665
14829WAT     H144729   5.342   6.034   6.735
14829WAT     H244730   5.453   6.072   6.622
14830WAT      O44731   4.575   8.950   1.959
14830WAT     H144732   4.622   8.924   1.875
14830WAT     H244733   4.619   9.030   1.999
14831WAT      O44734   9.021   7.628   7.618
14831WAT     H144735   9.002   7.681   7.536
14831WAT     H244736   9.103   7.664   7.662
14832WAT      O44737   1.231   1.780   7.976
14832WAT     H144738   1.307   1.725   8.012
14832WAT     H244739   1.258   1.876   7.972
14833WAT      O44740   9.620   6.042   1.159
14833WAT     H144741   9.707   5.994   1.168
14833WAT     H244742   9.590   6.037   1.064
14834WAT      O44743   0.803   8.703   0.490
14834WAT     H144744   0.775   8.656   0.406
14834WAT     H244745   0.863   8.780   0.467
14835WAT      O44746   1.186   5.716   4.551
14835WAT     H144747   1.284   5.721   4.569
14835WAT     H244748   1.143   5.804   4.572
14836WAT      O44749   3.120   7.014   1.024
14836WAT     H144750   3.176   7.080   1.075
14836WAT     H244751   3.125   6.925   1.069
14837WAT      O44752   1.669   5.653   9.305
14837WAT     H144753   1.659   5.659   9.404
14837WAT     H244754   1.583   5.625   9.264
14838WAT      O44755   4.107   2.160   2.355
14838WAT     H144756   4.054   2.134   2.274
14838WAT     H244757   4.156   2.080   2.391
14839WAT      O44758   0.828   3.562   5.592
14839WAT     H144759   0.925   3.564   5.570
14839WAT     H244760   0.779   3.625   5.531
14840WAT      O44761   2.282   3.391   9.784
14840WAT     H144762   2.228   3.377   9.868
14840WAT     H244763   2.227   3.442   9.718
14841WAT      O44764   6.383   7.899   4.863
14841WAT     H144765   6.416   7.807   4.841
14841WAT     H244766   6.450   7.966   4.832
14842WAT      O44767   6.533   1.459   5.514
14842WAT     H144768   6.509   1.556   5.519
14842WAT     H244769   6.450   1.404   5.516
14843WAT      O44770   3.778   2.527   0.554
14843WAT     H144771   3.774   2.493   0.648
14843WAT     H244772   3.685   2.539   0.519
14844WAT      O44773   0.247   4.332   9.159
14844WAT     H144774   0.188   4.372   9.229
14844WAT     H244775   0.339   4.321   9.195
14845WAT      O44776   3.740   6.353   0.975
14845WAT     H144777   3.702   6.443   0.994
14845WAT     H244778   3.674   6.282   1.000
14846WAT      O44779   1.241   2.903   8.519
14846WAT     H144780   1.170   2.866   8.459
14846WAT     H244781   1.292   2.827   8.560
14847WAT      O44782   8.464   7.320   1.508
14847WAT     H144783   8.498   7.291   1.598
14847WAT     H244784   8.541   7.326   1.444
14848WAT      O44785   4.049   6.239   0.628
14848WAT     H144786   4.010   6.164   0.574
14848WAT     H244787   4.042   6.324   0.577
14849WAT      O44788   6.570   2.008   1.425
14849WAT     H144789   6.591   2.103   1.446
14849WAT     H244790   6.654   1.954   1.430
14850WAT      O44791   5.814   7.518   0.109
14850WAT     H144792   5.814   7.611   0.144
14850WAT     H244793   5.752   7.511   0.031
14851WAT      O44794   2.499   4.652   9.311
14851WAT     H144795   2.564   4.724   9.285
14851WAT     H244796   2.405   4.685   9.297
14852WAT      O44797   1.870   3.271   5.016
14852WAT     H144798   1.942   3.334   5.046
14852WAT     H244799   1.782   3.301   5.052
14853WAT      O44800   2.620   7.148   1.002
14853WAT     H144801   2.711   7.113   1.027
14853WAT     H244802   2.587   7.208   1.074
14854WAT      O44803   7.967   2.172   1.072
14854WAT     H144804   8.058   2.190   1.034
14854WAT     H244805   7.916   2.258   1.078
14855WAT      O44806   5.251   5.919   3.720
14855WAT     H144807   5.288   5.975   3.647
14855WAT     H244808   5.312   5.922   3.800
14856WAT      O44809   1.102   3.864   8.036
14856WAT     H144810   1.142   3.820   8.117
14856WAT     H244811   1.158   3.943   8.011
14857WAT      O44812   5.381   2.119   9.671
14857WAT     H144813   5.432   2.129   9.586
14857WAT     H244814   5.311   2.190   9.677
14858WAT      O44815   9.200   9.381   5.787
14858WAT     H144816   9.140   9.387   5.707
14858WAT     H244817   9.151   9.334   5.861
14859WAT      O44818   7.178   5.105   8.915
14859WAT     H144819   7.268   5.074   8.945
14859WAT     H244820   7.113   5.029   8.920
14860WAT      O44821   4.919   9.798   7.861
14860WAT     H144822   4.991   9.864   7.881
14860WAT     H244823   4.896   9.748   7.945
14861WAT      O44824   7.522   3.079   1.094
14861WAT     H144825   7.425   3.105   1.100
14861WAT     H244826   7.531   2.980   1.110
14862WAT      O44827   5.641   7.435   4.894
14862WAT     H144828   5.593   7.397   4.972
14862WAT     H244829   5.647   7.534   4.903
14863WAT      O44830   6.413   9.566   5.121
14863WAT     H144831   6.458   9.624   5.189
14863WAT     H244832   6.477   9.549   5.046
14864WAT      O44833   5.105   7.173   7.072
14864WAT     H144834   5.128   7.088   7.024
14864WAT     H244835   5.185   7.204   7.125
14865WAT      O44836   7.905   5.931   5.444
14865WAT     H144837   7.872   5.838   5.463
14865WAT     H244838   7.839   5.978   5.386
14866WAT      O44839   6.346   7.686   2.120
14866WAT     H144840   6.266   7.718   2.170
14866WAT     H244841   6.424   7.678   2.182
14867WAT      O44842   3.353   3.416   2.979
14867WAT     H144843   3.398   3.472   2.910
14867WAT     H244844   3.408   3.415   3.062
14868WAT      O44845   8.040   6.399   8.594
14868WAT     H144846   8.049   6.329   8.665
14868WAT     H244847   7.985   6.475   8.628
14869WAT      O44848   7.160   4.428   0.252
14869WAT     H144849   7.233   4.362   0.236
14869WAT     H244850   7.074   4.380   0.267
14870WAT      O44851   7.828   6.999   0.631
14870WAT     H144852   7.823   7.099   0.635
14870WAT     H244853   7.811   6.968   0.537
14871WAT      O44854   3.150   3.595   7.209
14871WAT     H144855   3.134   3.512   7.261
14871WAT     H244856   3.217   3.577   7.137
14872WAT      O44857   0.158   3.403   0.638
14872WAT     H144858   0.116   3.365   0.556
14872WAT     H244859   0.089   3.450   0.692
14873WAT      O44860   3.832   4.004   7.207
14873WAT     H144861   3.902   3.948   7.162
14873WAT     H244862   3.876   4.068   7.270
14874WAT      O44863   8.569   7.910   4.054
14874WAT     H144864   8.664   7.878   4.064
14874WAT     H244865   8.567   7.990   3.995
14875WAT      O44866   0.938   1.175   9.004
14875WAT     H144867   0.882   1.229   8.940
14875WAT     H244868   0.952   1.083   8.966
14876WAT      O44869   8.588   9.617   3.203
14876WAT     H144870   8.553   9.668   3.281
14876WAT     H244871   8.615   9.681   3.131
14877WAT      O44872   7.412   6.639   0.302
14877WAT     H144873   7.372   6.562   0.351
14877WAT     H244874   7.409   6.720   0.361
14878WAT      O44875   0.995   1.733   0.212
14878WAT     H144876   0.969   1.683   0.295
14878WAT     H244877   1.057   1.808   0.237
14879WAT      O44878   6.149   1.771   5.623
14879WAT     H144879   6.122   1.811   5.535
14879WAT     H244880   6.246   1.787   5.639
14880WAT      O44881   4.873   3.392   9.070
14880WAT     H144882   4.880   3.320   9.001
14880WAT     H244883   4.778   3.421   9.080
14881WAT      O44884   8.406   5.209   2.115
14881WAT     H144885   8.362   5.126   2.080
14881WAT     H244886   8.497   5.218   2.076
14882WAT      O44887   9.770   1.260   3.175
14882WAT     H144888   9.729   1.304   3.095
14882WAT     H244889   9.706   1.194   3.214
14883WAT      O44890   7.228   3.917   6.330
14883WAT     H144891   7.201   3.841   6.270
14883WAT     H244892   7.254   3.881   6.419
14884WAT      O44893   2.440   2.399   4.010
14884WAT     H144894   2.510   2.393   3.940
14884WAT     H244895   2.446   2.487   4.056
14885WAT      O44896   7.941   3.372   9.642
14885WAT     H144897   7.948   3.276   9.614
14885WAT     H244898   7.902   3.376   9.735
14886WAT      O44899   4.733   5.133   9.104
14886WAT     H144900   4.770   5.177   9.023
14886WAT     H244901   4.797   5.144   9.180
14887WAT      O44902   5.000   3.054   3.667
14887WAT     H144903   4.961   3.077   3.578
14887WAT     H244904   4.999   3.134   3.726
14888WAT      O44905   9.544   8.441   4.192
14888WAT     H144906   9.555   8.518   4.129
14888WAT     H244907   9.624   8.381   4.186
14889WAT      O44908   5.338   5.669   6.525
14889WAT     H144909   5.264   5.716   6.573
14889WAT     H244910   5.310   5.576   6.503
14890WAT      O44911   4.224   1.991   7.203
14890WAT     H144912   4.254   1.918   7.142
14890WAT     H244913   4.293   2.007   7.273
14891WAT      O44914   3.331   1.305   0.737
14891WAT     H144915   3.382   1.242   0.679
14891WAT     H244916   3.280   1.254   0.806
14892WAT      O44917   2.166   7.152   2.031
14892WAT     H144918   2.203   7.229   1.979
14892WAT     H244919   2.070   7.170   2.053
14893WAT      O44920   9.427   7.756   7.508
14893WAT     H144921   9.388   7.669   7.478
14893WAT     H244922   9.390   7.781   7.597
14894WAT      O44923   9.666   0.616   5.346
14894WAT     H144924   9.762   0.614   5.317
14894WAT     H244925   9.655   0.564   5.431
14895WAT      O44926   3.413   4.770   3.478
14895WAT     H144927   3.486   4.706   3.502
14895WAT     H244928   3.439   4.862   3.506
14896WAT      O44929   7.558   8.803   3.931
14896WAT     H144930   7.492   8.791   3.856
14896WAT     H244931   7.576   8.715   3.974
14897WAT      O44932   2.167   6.202   2.579
14897WAT     H144933   2.252   6.222   2.531
14897WAT     H244934   2.181   6.123   2.640
14898WAT      O44935   3.770   6.665   5.456
14898WAT     H144936   3.788   6.651   5.359
14898WAT     H244937   3.682   6.624   5.480
14899WAT      O44938   0.200   4.790   0.917
14899WAT     H144939   0.298   4.783   0.936
14899WAT     H244940   0.148   4.761   0.998
14900WAT      O44941   5.768   5.161   9.493
14900WAT     H144942   5.844   5.169   9.556
14900WAT     H244943   5.802   5.166   9.399
14901WAT      O44944   6.273   6.771   5.609
14901WAT     H144945   6.239   6.808   5.695
14901WAT     H244946   6.273   6.842   5.539
14902WAT      O44947   8.197   0.438   6.073
14902WAT     H144948   8.286   0.401   6.047
14902WAT     H244949   8.196   0.537   6.056
14903WAT      O44950   3.626   5.789   8.823
14903WAT     H144951   3.614   5.858   8.752
14903WAT     H244952   3.593   5.701   8.790
14904WAT      O44953   2.351   1.281   2.204
14904WAT     H144954   2.447   1.296   2.228
14904WAT     H244955   2.310   1.368   2.174
14905WAT      O44956   4.936   9.309   4.832
14905WAT     H144957   4.921   9.396   4.879
14905WAT     H244958   4.967   9.241   4.897
14906WAT      O44959   5.739   4.691   0.602
14906WAT     H144960   5.662   4.681   0.666
14906WAT     H244961   5.721   4.637   0.520
14907WAT      O44962   0.553   8.951   9.664
14907WAT     H144963   0.607   8.897   9.729
14907WAT     H244964   0.467   8.904   9.645
14908WAT      O44965   8.548   9.495   2.507
14908WAT     H144966   8.449   9.503   2.516
14908WAT     H244967   8.588   9.587   2.499
14909WAT      O44968   1.170   2.223   5.324
14909WAT     H144969   1.230   2.247   5.400
14909WAT     H244970   1.079   2.202   5.359
14910WAT      O44971   5.190   2.957   2.256
14910WAT     H144972   5.139   3.025   2.308
14910WAT     H244973   5.258   2.913   2.314
14911WAT      O44974   4.735   1.920   4.833
14911WAT     H144975   4.729   1.847   4.765
14911WAT     H244976   4.723   2.008   4.788
14912WAT      O44977   8.415   8.152   8.679
14912WAT     H144978   8.391   8.244   8.710
14912WAT     H244979   8.455   8.101   8.755
14913WAT      O44980   8.339   3.107   4.730
14913WAT     H144981   8.421   3.077   4.682
14913WAT     H244982   8.259   3.093   4.671
14914WAT      O44983   7.862   1.612   9.168
14914WAT     H144984   7.848   1.518   9.199
14914WAT     H244985   7.787   1.640   9.108
14915WAT      O44986   0.777   9.581   4.628
14915WAT     H144987   0.775   9.681   4.624
14915WAT     H244988   0.821   9.545   4.545
14916WAT      O44989   2.571   8.078   8.701
14916WAT     H144990   2.516   8.033   8.630
14916WAT     H244991   2.664   8.090   8.668
14917WAT      O44992   5.152   3.724   2.648
14917WAT     H144993   5.239   3.775   2.649
14917WAT     H244994   5.116   3.720   2.741
14918WAT      O44995   0.241   0.758   3.549
14918WAT     H144996   0.266   0.710   3.466
14918WAT     H244997   0.323   0.785   3.599
14919WAT      O44998   8.211   3.180   2.256
14919WAT     H144999   8.193   3.107   2.190
14919WAT     H245000   8.146   3.173   2.332
14920WAT      O45001   4.650   8.012   4.279
14920WAT     H145002   4.725   7.994   4.215
14920WAT     H245003   4.580   8.067   4.233
14921WAT      O45004   5.532   1.627   5.142
14921WAT     H145005   5.520   1.681   5.225
14921WAT     H245006   5.596   1.673   5.081
14922WAT      O45007   9.340   7.645   7.048
14922WAT     H145008   9.297   7.577   6.990
14922WAT     H245009   9.407   7.697   6.995
14923WAT      O45010   0.508   8.995   4.499
14923WAT     H145011   0.433   8.944   4.456
14923WAT     H245012   0.572   8.931   4.541
14924WAT      O45013   1.619   0.286   6.293
14924WAT     H145014   1.646   0.258   6.385
14924WAT     H245015   1.566   0.371   6.298
14925WAT      O45016   7.920   7.254   1.650
14925WAT     H145017   7.961   7.167   1.679
14925WAT     H245018   7.982   7.300   1.586
14926WAT      O45019   1.800   1.449   5.260
14926WAT     H145020   1.820   1.364   5.310
14926WAT     H245021   1.708   1.481   5.284
14927WAT      O45022   0.012   6.890   8.615
14927WAT     H145023   0.083   6.851   8.556
14927WAT     H245024  -0.026   6.971   8.570
14928WAT      O45025   6.803   1.414   2.310
14928WAT     H145026   6.784   1.405   2.408
14928WAT     H245027   6.752   1.493   2.274
14929WAT      O45028   3.523   8.479   1.859
14929WAT     H145029   3.495   8.562   1.907
14929WAT     H245030   3.591   8.430   1.914
14930WAT      O45031   1.150   1.665   8.233
14930WAT     H145032   1.170   1.697   8.140
14930WAT     H245033   1.167   1.567   8.239
14931WAT      O45034   2.054   1.789   3.413
14931WAT     H145035   2.146   1.829   3.416
14931WAT     H245036   2.061   1.689   3.414
14932WAT      O45037   2.994   3.686   4.072
14932WAT     H145038   3.043   3.696   4.159
14932WAT     H245039   2.990   3.775   4.026
14933WAT      O45040   5.600   6.806   0.911
14933WAT     H145041   5.602   6.875   0.983
14933WAT     H245042   5.687   6.808   0.861
14934WAT      O45043   9.509   8.637   1.803
14934WAT     H145044   9.482   8.613   1.896
14934WAT     H245045   9.445   8.595   1.738
14935WAT      O45046   2.720   8.543   8.503
14935WAT     H145047   2.728   8.582   8.595
14935WAT     H245048   2.808   8.547   8.457
14936WAT      O45049   2.790   0.707   0.079
14936WAT     H145050   2.828   0.789   0.035
14936WAT     H245051   2.740   0.734   0.161
14937WAT      O45052   0.671   0.002   9.254
14937WAT     H145053   0.617  -0.077   9.227
14937WAT     H245054   0.614   0.084   9.253
14938WAT      O45055   3.059   2.885   2.527
14938WAT     H145056   3.006   2.836   2.596
14938WAT     H245057   3.061   2.982   2.551
14939WAT      O45058   2.495   6.311   0.963
14939WAT     H145059   2.496   6.410   0.946
14939WAT     H245060   2.407   6.285   1.002
14940WAT      O45061   1.418   8.819   8.563
14940WAT     H145062   1.385   8.746   8.622
14940WAT     H245063   1.518   8.819   8.562
14941WAT      O45064   8.681   5.278   3.928
14941WAT     H145065   8.634   5.259   3.842
14941WAT     H245066   8.767   5.227   3.930
14942WAT      O45067   1.593   1.583   3.744
14942WAT     H145068   1.648   1.548   3.821
14942WAT     H245069   1.582   1.682   3.753
14943WAT      O45070   2.270   5.401   2.775
14943WAT     H145071   2.221   5.487   2.764
14943WAT     H245072   2.208   5.332   2.812
14944WAT      O45073   1.986   2.870   9.662
14944WAT     H145074   2.079   2.834   9.649
14944WAT     H245075   1.988   2.943   9.729
14945WAT      O45076   5.140   1.150   3.302
14945WAT     H145077   5.207   1.096   3.352
14945WAT     H245078   5.050   1.139   3.344
14946WAT      O45079   3.399   7.985   8.211
14946WAT     H145080   3.381   8.038   8.294
14946WAT     H245081   3.315   7.938   8.182
14947WAT      O45082   9.595   4.433   4.152
14947WAT     H145083   9.500   4.414   4.177
14947WAT     H245084   9.647   4.347   4.149
14948WAT      O45085   2.881   1.648   3.621
14948WAT     H145086   2.864   1.745   3.639
14948WAT     H245087   2.950   1.639   3.550
14949WAT      O45088   9.718   5.319   9.818
14949WAT     H145089   9.662   5.243   9.785
14949WAT     H245090   9.658   5.392   9.852
14950WAT      O45091   8.049   4.729   9.564
14950WAT     H145092   8.060   4.760   9.658
14950WAT     H245093   8.065   4.631   9.558
14951WAT      O45094   0.109   6.872   2.175
14951WAT     H145095   0.083   6.853   2.081
14951WAT     H245096   0.122   6.786   2.225
14952WAT      O45097   1.113   6.808   4.384
14952WAT     H145098   1.097   6.812   4.286
14952WAT     H245099   1.183   6.874   4.410
14953WAT      O45100   9.591   5.540   7.841
14953WAT     H145101   9.658   5.605   7.805
14953WAT     H245102   9.521   5.589   7.894
14954WAT      O45103   9.717   6.964   1.361
14954WAT     H145104   9.685   7.031   1.428
14954WAT     H245105   9.741   6.879   1.407
14955WAT      O45106   9.727   6.237   0.151
14955WAT     H145107   9.690   6.268   0.239
14955WAT     H245108   9.680   6.285   0.076
14956WAT      O45109   8.875   7.604   5.803
14956WAT     H145110   8.886   7.579   5.899
14956WAT     H245111   8.927   7.687   5.784
14957WAT      O45112   5.198   0.859   8.855
14957WAT     H145113   5.294   0.859   8.883
14957WAT     H245114   5.139   0.863   8.936
14958WAT      O45115   6.901   4.063   9.516
14958WAT     H145116   6.960   4.133   9.556
14958WAT     H245117   6.848   4.103   9.441
14959WAT      O45118   2.719   3.944   1.527
14959WAT     H145119   2.706   4.044   1.523
14959WAT     H245120   2.644   3.899   1.478
14960WAT      O45121   3.854   5.210   8.824
14960WAT     H145122   3.809   5.126   8.794
14960WAT     H245123   3.796   5.289   8.802
14961WAT      O45124   5.801   5.611   6.428
14961WAT     H145125   5.862   5.689   6.442
14961WAT     H245126   5.794   5.592   6.330
14962WAT      O45127   2.683   6.143   5.672
14962WAT     H145128   2.665   6.227   5.621
14962WAT     H245129   2.630   6.068   5.634
14963WAT      O45130   2.845   6.537   5.832
14963WAT     H145131   2.904   6.539   5.752
14963WAT     H245132   2.881   6.471   5.898
14964WAT      O45133   1.107   0.131   4.731
14964WAT     H145134   1.167   0.167   4.802
14964WAT     H245135   1.028   0.191   4.719
14965WAT      O45136   1.430   7.759   0.844
14965WAT     H145137   1.391   7.668   0.857
14965WAT     H245138   1.529   7.752   0.833
14966WAT      O45139   2.590   2.975   3.849
14966WAT     H145140   2.582   2.880   3.821
14966WAT     H245141   2.615   3.031   3.769
14967WAT      O45142   0.865   4.721   3.092
14967WAT     H145143   0.894   4.670   3.011
14967WAT     H245144   0.823   4.807   3.065
14968WAT      O45145   3.142   6.118   8.173
14968WAT     H145146   3.128   6.108   8.272
14968WAT     H245147   3.154   6.214   8.150
14969WAT      O45148   7.500   4.678   8.624
14969WAT     H145149   7.541   4.732   8.550
14969WAT     H245150   7.480   4.586   8.591
14970WAT      O45151   0.226   8.079   6.681
14970WAT     H145152   0.290   8.151   6.708
14970WAT     H245153   0.155   8.069   6.751
14971WAT      O45154   4.965   3.370   9.326
14971WAT     H145155   4.937   3.368   9.230
14971WAT     H245156   4.888   3.342   9.383
14972WAT      O45157   4.240   6.668   4.689
14972WAT     H145158   4.161   6.658   4.749
14972WAT     H245159   4.320   6.625   4.731
14973WAT      O45160   8.772   8.590   0.497
14973WAT     H145161   8.781   8.687   0.518
14973WAT     H245162   8.741   8.579   0.402
14974WAT      O45163   9.239   4.541   4.397
14974WAT     H145164   9.158   4.598   4.409
14974WAT     H245165   9.318   4.586   4.438
14975WAT      O45166   9.879   6.227   9.238
14975WAT     H145167   9.887   6.247   9.336
14975WAT     H245168   9.834   6.139   9.226
14976WAT      O45169   5.623   7.999   3.550
14976WAT     H145170   5.587   8.091   3.564
14976WAT     H245171   5.609   7.945   3.633
14977WAT      O45172   8.910   7.154   5.701
14977WAT     H145173   9.002   7.150   5.741
14977WAT     H245174   8.845   7.111   5.763
14978WAT      O45175   2.841   1.915   3.719
14978WAT     H145176   2.855   1.971   3.801
14978WAT     H245177   2.921   1.921   3.660
14979WAT      O45178   8.093   9.589   6.702
14979WAT     H145179   8.099   9.669   6.642
14979WAT     H245180   8.060   9.617   6.792
14980WAT      O45181   9.749   5.061   0.264
14980WAT     H145182   9.683   5.082   0.192
14980WAT     H245183   9.743   5.131   0.336
14981WAT      O45184   5.866   6.652   8.807
14981WAT     H145185   5.948   6.704   8.783
14981WAT     H245186   5.807   6.644   8.727
14982WAT      O45187   0.770   5.726   4.107
14982WAT     H145188   0.778   5.781   4.024
14982WAT     H245189   0.805   5.779   4.185
14983WAT      O45190   7.585   2.685   0.824
14983WAT     H145191   7.504   2.700   0.880
14983WAT     H245192   7.588   2.588   0.797
14984WAT      O45193   5.338   8.326   4.575
14984WAT     H145194   5.301   8.245   4.530
14984WAT     H245195   5.386   8.383   4.508
14985WAT      O45196   7.386   3.724   7.325
14985WAT     H145197   7.385   3.632   7.364
14985WAT     H245198   7.393   3.791   7.398
14986WAT      O45199   0.841   5.660   7.437
14986WAT     H145200   0.775   5.699   7.502
14986WAT     H245201   0.808   5.676   7.344
14987WAT      O45202   6.220   0.744   7.252
14987WAT     H145203   6.219   0.788   7.342
14987WAT     H245204   6.134   0.764   7.205
14988WAT      O45205   9.392   2.760   7.922
14988WAT     H145206   9.340   2.816   7.857
14988WAT     H245207   9.474   2.724   7.877
14989WAT      O45208   1.188   7.578   6.923
14989WAT     H145209   1.164   7.483   6.902
14989WAT     H245210   1.114   7.619   6.977
14990WAT      O45211   2.281   6.698   0.339
14990WAT     H145212   2.276   6.772   0.407
14990WAT     H245213   2.232   6.618   0.374
14991WAT      O45214   3.195   8.682   3.251
14991WAT     H145215   3.125   8.754   3.247
14991WAT     H245216   3.253   8.697   3.331
14992WAT      O45217   8.458   5.613   4.704
14992WAT     H145218   8.381   5.667   4.671
14992WAT     H245219   8.476   5.635   4.799
14993WAT      O45220   2.146   8.971   7.090
14993WAT     H145221   2.079   9.044   7.079
14993WAT     H245222   2.173   8.936   7.001
14994WAT      O45223   2.097   3.162   7.503
14994WAT     H145224   2.147   3.198   7.424
14994WAT     H245225   2.108   3.063   7.507
14995WAT      O45226   8.179   2.549   7.068
14995WAT     H145227   8.110   2.478   7.082
14995WAT     H245228   8.270   2.512   7.090
14996WAT      O45229   6.064   5.520   6.043
14996WAT     H145230   6.015   5.453   5.987
14996WAT     H245231   6.092   5.597   5.986
14997WAT      O45232   7.083   4.181   4.585
14997WAT     H145233   7.168   4.216   4.625
14997WAT     H245234   7.104   4.112   4.517
14998WAT      O45235   4.724   0.022   9.420
14998WAT     H145236   4.667  -0.059   9.428
14998WAT     H245237   4.707   0.067   9.332
14999WAT      O45238   2.943   3.767   3.134
14999WAT     H145239   3.034   3.799   3.106
14999WAT     H245240   2.946   3.669   3.151
15000WAT      O45241   4.746   3.678   8.799
15000WAT     H145242   4.695   3.592   8.806
15000WAT     H245243   4.696   3.750   8.847
15001WAT      O45244   4.716   6.741   7.178
15001WAT     H145245   4.726   6.650   7.137
15001WAT     H245246   4.710   6.732   7.278
15002WAT      O45247   1.560   2.134   8.492
15002WAT     H145248   1.540   2.206   8.425
15002WAT     H245249   1.628   2.072   8.455
15003WAT      O45250   7.612   5.505   9.264
15003WAT     H145251   7.709   5.507   9.239
15003WAT     H245252   7.559   5.553   9.194
15004WAT      O45253   2.980   2.948   2.261
15004WAT     H145254   2.995   2.899   2.347
15004WAT     H245255   2.891   2.922   2.223
15005WAT      O45256   5.373   0.493   9.805
15005WAT     H145257   5.469   0.477   9.829
15005WAT     H245258   5.318   0.493   9.888
15006WAT      O45259   6.681   3.340   3.756
15006WAT     H145260   6.626   3.288   3.821
15006WAT     H245261   6.730   3.413   3.804
15007WAT      O45262   6.533   5.178   6.614
15007WAT     H145263   6.545   5.228   6.699
15007WAT     H245264   6.593   5.218   6.544
15008WAT      O45265   4.572   9.771   2.958
15008WAT     H145266   4.582   9.676   2.989
15008WAT     H245267   4.538   9.771   2.864
15009WAT      O45268   0.815   9.235   6.963
15009WAT     H145269   0.848   9.176   7.037
15009WAT     H245270   0.886   9.244   6.893
15010WAT      O45271   2.856   5.874   8.014
15010WAT     H145272   2.835   5.837   7.924
15010WAT     H245273   2.951   5.853   8.037
15011WAT      O45274   9.663   3.636   1.424
15011WAT     H145275   9.614   3.552   1.404
15011WAT     H245276   9.600   3.705   1.459
15012WAT      O45277   0.131   0.809   6.715
15012WAT     H145278   0.221   0.815   6.758
15012WAT     H245279   0.076   0.888   6.741
15013WAT      O45280   8.343   1.835   4.967
15013WAT     H145281   8.406   1.762   4.941
15013WAT     H245282   8.378   1.881   5.048
15014WAT      O45283   6.956   3.551   0.341
15014WAT     H145284   6.882   3.516   0.398
15014WAT     H245285   7.000   3.476   0.292
15015WAT      O45286   7.906   5.064   3.792
15015WAT     H145287   7.890   5.102   3.700
15015WAT     H245288   7.888   4.966   3.791
15016WAT      O45289   7.837   9.236   4.186
15016WAT     H145290   7.743   9.205   4.172
15016WAT     H245291   7.878   9.258   4.097
15017WAT      O45292   9.420   6.294   5.070
15017WAT     H145293   9.394   6.236   5.147
15017WAT     H245294   9.377   6.261   4.986
15018WAT      O45295   4.330   6.223   0.147
15018WAT     H145296   4.418   6.184   0.174
15018WAT     H245297   4.267   6.149   0.122
15019WAT      O45298   3.947   4.017   0.895
15019WAT     H145299   3.970   3.925   0.928
15019WAT     H245300   3.886   4.010   0.817
15020WAT      O45301   3.321   8.195   8.403
15020WAT     H145302   3.305   8.185   8.501
15020WAT     H245303   3.390   8.266   8.388
15021WAT      O45304   1.786   4.011   0.053
15021WAT     H145305   1.827   3.989  -0.035
15021WAT     H245306   1.708   4.073   0.039
15022WAT      O45307   3.390   6.371   1.469
15022WAT     H145308   3.348   6.370   1.378
15022WAT     H245309   3.321   6.396   1.537
15023WAT      O45310   2.659   4.162   0.578
15023WAT     H145311   2.641   4.171   0.480
15023WAT     H245312   2.756   4.142   0.593
15024WAT      O45313   5.314   6.337   0.459
15024WAT     H145314   5.323   6.243   0.491
15024WAT     H245315   5.231   6.377   0.498
15025WAT      O45316   1.142   2.681   4.301
15025WAT     H145317   1.106   2.775   4.297
15025WAT     H245318   1.083   2.625   4.357
15026WAT      O45319   7.885   0.323   3.405
15026WAT     H145320   7.893   0.362   3.497
15026WAT     H245321   7.793   0.285   3.393
15027WAT      O45322   5.699   1.935   0.997
15027WAT     H145323   5.652   1.992   1.064
15027WAT     H245324   5.759   1.870   1.044
15028WAT      O45325   5.328   1.122   2.939
15028WAT     H145326   5.402   1.081   2.991
15028WAT     H245327   5.265   1.051   2.907
15029WAT      O45328   0.993   2.306   6.813
15029WAT     H145329   1.001   2.270   6.719
15029WAT     H245330   0.992   2.229   6.877
15030WAT      O45331   0.766   8.401   8.419
15030WAT     H145332   0.826   8.419   8.341
15030WAT     H245333   0.822   8.374   8.498
15031WAT      O45334   6.644   3.443   1.960
15031WAT     H145335   6.606   3.368   2.014
15031WAT     H245336   6.699   3.406   1.885
15032WAT      O45337   2.672   1.368   8.366
15032WAT     H145338   2.582   1.394   8.400
15032WAT     H245339   2.663   1.292   8.302
15033WAT      O45340   4.510   1.050   7.399
15033WAT     H145341   4.544   1.096   7.317
15033WAT     H245342   4.507   0.951   7.384
15034WAT      O45343   2.948   2.353   0.211
15034WAT     H145344   2.912   2.446   0.209
15034WAT     H245345   2.879   2.291   0.249
15035WAT      O45346   7.129   3.139   6.555
15035WAT     H145347   7.198   3.083   6.507
15035WAT     H245348   7.038   3.114   6.522
15036WAT      O45349   2.088   8.029   2.633
15036WAT     H145350   2.160   8.098   2.633
15036WAT     H245351   2.017   8.055   2.566
15037WAT      O45352   7.910   5.287   3.564
15037WAT     H145353   7.860   5.236   3.495
15037WAT     H245354   7.847   5.347   3.614
15038WAT      O45355   5.396   5.757   3.166
15038WAT     H145356   5.494   5.743   3.157
15038WAT     H245357   5.373   5.851   3.143
15039WAT      O45358   5.494   4.830   8.964
15039WAT     H145359   5.528   4.886   8.888
15039WAT     H245360   5.449   4.888   9.031
15040WAT      O45361   4.105   3.373   9.510
15040WAT     H145362   4.184   3.421   9.471
15040WAT     H245363   4.129   3.277   9.524
15041WAT      O45364   9.208   6.767   9.124
15041WAT     H145365   9.194   6.692   9.058
15041WAT     H245366   9.138   6.837   9.110
15042WAT      O45367   8.209   2.323   1.927
15042WAT     H145368   8.301   2.318   1.965
15042WAT     H245369   8.211   2.367   1.838
15043WAT      O45370   5.973   2.291   7.765
15043WAT     H145371   6.016   2.216   7.816
15043WAT     H245372   5.874   2.287   7.779
15044WAT      O45373   0.387   3.043   0.664
15044WAT     H145374   0.288   3.058   0.667
15044WAT     H245375   0.406   2.956   0.618
15045WAT      O45376   8.525   1.530   3.000
15045WAT     H145377   8.513   1.477   2.916
15045WAT     H245378   8.532   1.627   2.977
15046WAT      O45379   8.590   1.914   8.431
15046WAT     H145380   8.664   1.848   8.418
15046WAT     H245381   8.627   1.998   8.470
15047WAT      O45382   7.935   9.237   5.958
15047WAT     H145383   7.842   9.273   5.950
15047WAT     H245384   7.934   9.154   6.014
15048WAT      O45385   6.493   8.260   3.239
15048WAT     H145386   6.465   8.280   3.145
15048WAT     H245387   6.551   8.333   3.274
15049WAT      O45388   7.631   6.302   4.801
15049WAT     H145389   7.654   6.258   4.714
15049WAT     H245390   7.544   6.349   4.793
15050WAT      O45391   4.347   7.052   3.028
15050WAT     H145392   4.447   7.057   3.034
15050WAT     H245393   4.317   7.089   2.940
15051WAT      O45394   8.062   4.435   4.022
15051WAT     H145395   7.975   4.476   4.049
15051WAT     H245396   8.137   4.492   4.056
15052WAT      O45397   7.374   1.827   9.391
15052WAT     H145398   7.422   1.905   9.431
15052WAT     H245399   7.423   1.796   9.310
15053WAT      O45400   6.467   0.181   2.666
15053WAT     H145401   6.524   0.244   2.720
15053WAT     H245402   6.372   0.209   2.672
15054WAT      O45403   8.151   1.161   2.811
15054WAT     H145404   8.190   1.253   2.820
15054WAT     H245405   8.071   1.165   2.750
15055WAT      O45406   0.642   7.449   5.401
15055WAT     H145407   0.737   7.417   5.410
15055WAT     H245408   0.583   7.394   5.460
15056WAT      O45409   1.081   5.359   8.595
15056WAT     H145410   1.127   5.443   8.624
15056WAT     H245411   1.112   5.283   8.651
15057WAT      O45412   0.285   6.080   9.420
15057WAT     H145413   0.361   6.110   9.363
15057WAT     H245414   0.315   6.075   9.516
15058WAT      O45415   5.490   2.126   7.586
15058WAT     H145416   5.419   2.196   7.576
15058WAT     H245417   5.460   2.058   7.653
15059WAT      O45418   8.898   0.379   9.036
15059WAT     H145419   8.940   0.290   9.018
15059WAT     H245420   8.869   0.421   8.950
15060WAT      O45421   2.577   0.858   2.600
15060WAT     H145422   2.647   0.787   2.596
15060WAT     H245423   2.500   0.825   2.654
15061WAT      O45424   7.640   6.350   1.612
15061WAT     H145425   7.620   6.310   1.701
15061WAT     H245426   7.554   6.367   1.563
15062WAT      O45427   0.730   7.919   2.445
15062WAT     H145428   0.821   7.945   2.478
15062WAT     H245429   0.729   7.822   2.424
15063WAT      O45430   5.816   9.113   9.252
15063WAT     H145431   5.864   9.126   9.165
15063WAT     H245432   5.736   9.174   9.256
15064WAT      O45433   9.123   5.884   6.694
15064WAT     H145434   9.138   5.928   6.606
15064WAT     H245435   9.199   5.822   6.714
15065WAT      O45436   0.446   1.376   1.387
15065WAT     H145437   0.467   1.290   1.339
15065WAT     H245438   0.432   1.357   1.484
15066WAT      O45439   7.271   8.378   3.078
15066WAT     H145440   7.179   8.416   3.073
15066WAT     H245441   7.332   8.443   3.124
15067WAT      O45442   7.142   2.655   2.733
15067WAT     H145443   7.103   2.640   2.824
15067WAT     H245444   7.196   2.575   2.707
15068WAT      O45445   5.815   8.976   2.413
15068WAT     H145446   5.822   9.020   2.323
15068WAT     H245447   5.902   8.985   2.461
15069WAT      O45448   4.053   8.325   2.660
15069WAT     H145449   4.137   8.319   2.714
15069WAT     H245450   3.987   8.257   2.693
15070WAT      O45451   8.180   4.179   3.733
15070WAT     H145452   8.154   4.083   3.741
15070WAT     H245453   8.100   4.233   3.705
15071WAT      O45454   9.300   8.148   3.132
15071WAT     H145455   9.202   8.163   3.143
15071WAT     H245456   9.328   8.068   3.186
15072WAT      O45457   9.232   2.438   4.781
15072WAT     H145458   9.238   2.338   4.777
15072WAT     H245459   9.253   2.476   4.691
15073WAT      O45460   3.740   9.065   4.273
15073WAT     H145461   3.654   9.024   4.244
15073WAT     H245462   3.791   9.000   4.330
15074WAT      O45463   9.322   4.191   9.569
15074WAT     H145464   9.376   4.240   9.501
15074WAT     H245465   9.299   4.253   9.644
15075WAT      O45466   7.955   2.441   2.027
15075WAT     H145467   8.036   2.383   2.020
15075WAT     H245468   7.912   2.427   2.117
15076WAT      O45469   6.225   0.490   0.201
15076WAT     H145470   6.147   0.531   0.248
15076WAT     H245471   6.211   0.392   0.192
15077WAT      O45472   3.424   4.309   3.864
15077WAT     H145473   3.378   4.292   3.951
15077WAT     H245474   3.509   4.255   3.859
15078WAT      O45475   3.197   2.381   2.002
15078WAT     H145476   3.247   2.329   1.932
15078WAT     H245477   3.216   2.478   1.990
15079WAT      O45478   9.382   7.434   0.481
15079WAT     H145479   9.419   7.453   0.572
15079WAT     H245480   9.457   7.416   0.418
15080WAT      O45481   4.933   1.145   9.030
15080WAT     H145482   4.974   1.127   8.941
15080WAT     H245483   4.879   1.229   9.025
15081WAT      O45484   0.404   4.340   3.418
15081WAT     H145485   0.412   4.421   3.361
15081WAT     H245486   0.469   4.346   3.494
15082WAT      O45487   0.644   3.208   5.416
15082WAT     H145488   0.620   3.287   5.473
15082WAT     H245489   0.574   3.137   5.427
15083WAT      O45490   7.885   4.616   9.870
15083WAT     H145491   7.790   4.591   9.852
15083WAT     H245492   7.931   4.541   9.916
15084WAT      O45493   6.500   2.768   9.240
15084WAT     H145494   6.483   2.690   9.301
15084WAT     H245495   6.556   2.738   9.163
15085WAT      O45496   8.017   1.692   1.249
15085WAT     H145497   7.996   1.699   1.347
15085WAT     H245498   8.070   1.609   1.232
15086WAT      O45499   5.183   2.846   5.783
15086WAT     H145500   5.275   2.879   5.763
15086WAT     H245501   5.152   2.787   5.708
15087WAT      O45502   3.646   3.542   6.848
15087WAT     H145503   3.716   3.595   6.896
15087WAT     H245504   3.624   3.587   6.761
15088WAT      O45505   0.144   5.843   9.837
15088WAT     H145506   0.228   5.838   9.891
15088WAT     H245507   0.082   5.770   9.865
15089WAT      O45508   2.643   9.077   8.893
15089WAT     H145509   2.674   8.987   8.923
15089WAT     H245510   2.722   9.130   8.860
15090WAT      O45511   0.306   1.152   6.705
15090WAT     H145512   0.255   1.126   6.787
15090WAT     H245513   0.386   1.092   6.696
15091WAT      O45514   6.105   3.060   3.923
15091WAT     H145515   6.158   2.982   3.891
15091WAT     H245516   6.099   3.128   3.850
15092WAT      O45517   2.207   1.354   2.914
15092WAT     H145518   2.231   1.257   2.919
15092WAT     H245519   2.112   1.363   2.885
15093WAT      O45520   0.957   9.541   2.325
15093WAT     H145521   0.975   9.592   2.409
15093WAT     H245522   1.027   9.471   2.312
15094WAT      O45523   2.177   3.895   4.622
15094WAT     H145524   2.144   3.939   4.705
15094WAT     H245525   2.113   3.824   4.593
15095WAT      O45526   6.557   1.853   3.807
15095WAT     H145527   6.637   1.823   3.860
15095WAT     H245528   6.577   1.941   3.764
15096WAT      O45529   4.131   5.291   1.609
15096WAT     H145530   4.090   5.200   1.604
15096WAT     H245531   4.071   5.352   1.660
15097WAT      O45532   4.266   8.266   7.834
15097WAT     H145533   4.188   8.234   7.889
15097WAT     H245534   4.288   8.360   7.859
15098WAT      O45535   3.298   5.719   4.390
15098WAT     H145536   3.359   5.696   4.314
15098WAT     H245537   3.333   5.799   4.439
15099WAT      O45538   5.970   2.259   6.983
15099WAT     H145539   5.918   2.315   7.048
15099WAT     H245540   6.055   2.228   7.026
15100WAT      O45541   9.572   0.553   2.081
15100WAT     H145542   9.622   0.572   2.165
15100WAT     H245543   9.607   0.469   2.039
15101WAT      O45544   7.513   3.035   8.643
15101WAT     H145545   7.572   2.955   8.632
15101WAT     H245546   7.449   3.020   8.718
15102WAT      O45547   8.034   2.775   7.100
15102WAT     H145548   8.080   2.862   7.080
15102WAT     H245549   8.100   2.701   7.097
15103WAT      O45550   1.878   6.286   0.831
15103WAT     H145551   1.939   6.242   0.765
15103WAT     H245552   1.788   6.242   0.828
15104WAT      O45553   5.744   0.245   1.800
15104WAT     H145554   5.824   0.304   1.810
15104WAT     H245555   5.773   0.149   1.799
15105WAT      O45556   4.052   6.437   5.934
15105WAT     H145557   4.016   6.468   6.022
15105WAT     H245558   4.139   6.483   5.915
15106WAT      O45559   4.480   4.677   2.671
15106WAT     H145560   4.491   4.697   2.573
15106WAT     H245561   4.385   4.655   2.690
15107WAT      O45562   0.337   2.940   9.852
15107WAT     H145563   0.264   2.886   9.811
15107WAT     H245564   0.379   2.998   9.783
15108WAT      O45565   3.444   2.839   8.731
15108WAT     H145566   3.540   2.863   8.715
15108WAT     H245567   3.411   2.782   8.655
15109WAT      O45568   0.703   2.013   0.120
15109WAT     H145569   0.707   1.922   0.079
15109WAT     H245570   0.621   2.020   0.177
15110WAT      O45571   3.979   7.203   8.226
15110WAT     H145572   3.991   7.120   8.172
15110WAT     H245573   3.886   7.238   8.213
15111WAT      O45574   2.840   1.443   0.457
15111WAT     H145575   2.748   1.452   0.495
15111WAT     H245576   2.878   1.354   0.480
15112WAT      O45577   6.501   3.671   6.927
15112WAT     H145578   6.436   3.643   6.857
15112WAT     H245579   6.496   3.770   6.939
15113WAT      O45580   6.451   7.314   2.096
15113WAT     H145581   6.396   7.397   2.095
15113WAT     H245582   6.543   7.335   2.062
15114WAT      O45583   0.080   1.930   4.921
15114WAT     H145584  -0.010   1.894   4.897
15114WAT     H245585   0.138   1.855   4.953
15115WAT      O45586   1.195   9.643   2.105
15115WAT     H145587   1.122   9.575   2.115
15115WAT     H245588   1.162   9.731   2.140
15116WAT      O45589   2.346   6.466   8.808
15116WAT     H145590   2.277   6.409   8.762
15116WAT     H245591   2.387   6.529   8.743
15117WAT      O45592   5.487   3.811   2.983
15117WAT     H145593   5.452   3.721   3.010
15117WAT     H245594   5.490   3.817   2.883
15118WAT      O45595   7.636   8.956   2.674
15118WAT     H145596   7.667   8.873   2.628
15118WAT     H245597   7.707   8.987   2.738
15119WAT      O45598   4.320   1.118   1.391
15119WAT     H145599   4.254   1.067   1.336
15119WAT     H245600   4.413   1.088   1.369
15120WAT      O45601   0.517   7.922   5.401
15120WAT     H145602   0.556   7.994   5.459
15120WAT     H245603   0.563   7.835   5.420
15121WAT      O45604   6.808   2.631   4.925
15121WAT     H145605   6.769   2.614   5.016
15121WAT     H245606   6.848   2.722   4.922
15122WAT      O45607   2.423   4.238   7.607
15122WAT     H145608   2.425   4.145   7.642
15122WAT     H245609   2.482   4.245   7.526
15123WAT      O45610   5.512   1.082   0.187
15123WAT     H145611   5.423   1.038   0.187
15123WAT     H245612   5.553   1.076   0.096
15124WAT      O45613   2.493   8.630   3.094
15124WAT     H145614   2.566   8.593   3.151
15124WAT     H245615   2.458   8.715   3.135
15125WAT      O45616   4.075   7.250   0.818
15125WAT     H145617   4.048   7.309   0.742
15125WAT     H245618   3.999   7.244   0.883
15126WAT      O45619   6.592   1.554   9.782
15126WAT     H145620   6.596   1.467   9.831
15126WAT     H245621   6.600   1.629   9.847
15127WAT      O45622   5.119   2.389   4.053
15127WAT     H145623   5.103   2.295   4.081
15127WAT     H245624   5.126   2.448   4.134
15128WAT      O45625   8.301   8.470   5.695
15128WAT     H145626   8.380   8.462   5.756
15128WAT     H245627   8.322   8.430   5.606
15129WAT      O45628   2.374   1.128   5.698
15129WAT     H145629   2.351   1.207   5.754
15129WAT     H245630   2.369   1.152   5.601
15130WAT      O45631   1.791   6.698   6.067
15130WAT     H145632   1.794   6.670   6.163
15130WAT     H245633   1.817   6.795   6.060
15131WAT      O45634   0.256   9.397   9.701
15131WAT     H145635   0.217   9.375   9.612
15131WAT     H245636   0.335   9.338   9.718
15132WAT      O45637   6.503   0.328   1.517
15132WAT     H145638   6.518   0.265   1.594
15132WAT     H245639   6.591   0.355   1.478
15133WAT      O45640   2.292   8.440   8.729
15133WAT     H145641   2.302   8.345   8.761
15133WAT     H245642   2.309   8.443   8.630
15134WAT      O45643   9.688   7.589   2.124
15134WAT     H145644   9.745   7.595   2.206
15134WAT     H245645   9.597   7.625   2.143
15135WAT      O45646   0.449   1.602   4.437
15135WAT     H145647   0.462   1.701   4.435
15135WAT     H245648   0.366   1.579   4.489
15136WAT      O45649   1.241   3.599   8.595
15136WAT     H145650   1.331   3.557   8.589
15136WAT     H245651   1.247   3.696   8.573
15137WAT      O45652   4.314   0.917   1.081
15137WAT     H145653   4.252   0.934   1.158
15137WAT     H245654   4.261   0.904   0.997
15138WAT      O45655   7.323   4.221   1.498
15138WAT     H145656   7.373   4.137   1.481
15138WAT     H245657   7.372   4.299   1.458
15139WAT      O45658   3.421   0.053   1.870
15139WAT     H145659   3.412   0.124   1.939
15139WAT     H245660   3.443  -0.034   1.914
15140WAT      O45661   0.538   3.683   5.167
15140WAT     H145662   0.446   3.673   5.130
15140WAT     H245663   0.591   3.600   5.148
15141WAT      O45664   8.499   6.556   4.518
15141WAT     H145665   8.552   6.471   4.520
15141WAT     H245666   8.558   6.631   4.490
15142WAT      O45667   3.731   3.839   5.867
15142WAT     H145668   3.694   3.791   5.787
15142WAT     H245669   3.830   3.827   5.869
15143WAT      O45670   2.056   4.798   5.372
15143WAT     H145671   2.102   4.838   5.292
15143WAT     H245672   2.122   4.742   5.424
15144WAT      O45673   1.704   1.207   6.729
15144WAT     H145674   1.755   1.292   6.743
15144WAT     H245675   1.767   1.132   6.708
15145WAT      O45676   9.145   3.237   2.379
15145WAT     H145677   9.094   3.259   2.295
15145WAT     H245678   9.237   3.274   2.371
15146WAT      O45679   6.784   6.708   7.599
15146WAT     H145680   6.764   6.642   7.671
15146WAT     H245681   6.708   6.711   7.534
15147WAT      O45682   0.469   8.141   6.101
15147WAT     H145683   0.435   8.053   6.069
15147WAT     H245684   0.431   8.214   6.043
15148WAT      O45685   3.888   2.879   7.923
15148WAT     H145686   3.894   2.793   7.973
15148WAT     H245687   3.968   2.935   7.942
15149WAT      O45688   0.754   1.772  -0.002
15149WAT     H145689   0.853   1.781  -0.015
15149WAT     H245690   0.735   1.724   0.083
15150WAT      O45691   3.833   6.946   2.056
15150WAT     H145692   3.755   6.907   2.104
15150WAT     H245693   3.830   7.046   2.062
15151WAT      O45694   7.231   6.274   7.685
15151WAT     H145695   7.175   6.354   7.707
15151WAT     H245696   7.252   6.223   7.768
15152WAT      O45697   8.990   7.062   7.244
15152WAT     H145698   9.031   6.986   7.193
15152WAT     H245699   9.061   7.130   7.264
15153WAT      O45700   8.863   7.793   2.814
15153WAT     H145701   8.858   7.707   2.864
15153WAT     H245702   8.877   7.775   2.717
15154WAT      O45703   5.054   6.783   1.575
15154WAT     H145704   4.978   6.768   1.513
15154WAT     H245705   5.086   6.878   1.566
15155WAT      O45706   8.743   0.092   6.923
15155WAT     H145707   8.672   0.030   6.958
15155WAT     H245708   8.704   0.149   6.851
15156WAT      O45709   1.888   9.782   9.810
15156WAT     H145710   1.825   9.729   9.754
15156WAT     H245711   1.847   9.801   9.899
15157WAT      O45712   6.123   2.574   8.317
15157WAT     H145713   6.056   2.500   8.314
15157WAT     H245714   6.127   2.612   8.410
15158WAT      O45715   5.122   2.591   9.594
15158WAT     H145716   5.046   2.654   9.608
15158WAT     H245717   5.127   2.566   9.497
15159WAT      O45718   3.466   1.231   8.643
15159WAT     H145719   3.485   1.306   8.580
15159WAT     H245720   3.408   1.163   8.597
15160WAT      O45721   0.347   5.904   3.080
15160WAT     H145722   0.351   5.836   3.007
15160WAT     H245723   0.398   5.871   3.159
15161WAT      O45724   3.246   7.585   7.065
15161WAT     H145725   3.314   7.521   7.101
15161WAT     H245726   3.285   7.677   7.063
15162WAT      O45727   8.322   2.789   7.228
15162WAT     H145728   8.301   2.835   7.314
15162WAT     H245729   8.276   2.836   7.152
15163WAT      O45730   1.705   4.377   2.832
15163WAT     H145731   1.699   4.461   2.886
15163WAT     H245732   1.734   4.399   2.739
15164WAT      O45733   0.506   1.891   4.434
15164WAT     H145734   0.525   1.932   4.523
15164WAT     H245735   0.442   1.949   4.383
15165WAT      O45736   0.234   9.170   1.898
15165WAT     H145737   0.225   9.120   1.811
15165WAT     H245738   0.315   9.138   1.946
15166WAT      O45739   0.842   4.417   7.179
15166WAT     H145740   0.816   4.439   7.273
15166WAT     H245741   0.832   4.319   7.163
15167WAT      O45742   8.493   0.660   5.367
15167WAT     H145743   8.500   0.630   5.271
15167WAT     H245744   8.544   0.744   5.379
15168WAT      O45745   0.592   0.104   9.753
15168WAT     H145746   0.498   0.105   9.720
15168WAT     H245747   0.592   0.094   9.853
15169WAT      O45748   8.873   8.671   5.969
15169WAT     H145749   8.918   8.618   6.041
15169WAT     H245750   8.782   8.697   5.999
15170WAT      O45751   1.957   1.296   1.847
15170WAT     H145752   1.904   1.212   1.858
15170WAT     H245753   1.897   1.369   1.814
15171WAT      O45754   9.667   2.673   7.856
15171WAT     H145755   9.681   2.602   7.925
15171WAT     H245756   9.747   2.733   7.854
15172WAT      O45757   5.727   1.278   9.779
15172WAT     H145758   5.716   1.348   9.849
15172WAT     H245759   5.794   1.210   9.811
15173WAT      O45760   2.266   1.506   9.049
15173WAT     H145761   2.294   1.602   9.048
15173WAT     H245762   2.237   1.480   8.957
15174WAT      O45763   7.194   4.003   5.239
15174WAT     H145764   7.266   4.054   5.191
15174WAT     H245765   7.122   4.067   5.266
15175WAT      O45766   0.691   5.631   1.367
15175WAT     H145767   0.791   5.629   1.378
15175WAT     H245768   0.663   5.561   1.302
15176WAT      O45769   8.563   3.953   4.356
15176WAT     H145770   8.585   3.901   4.273
15176WAT     H245771   8.466   3.943   4.376
15177WAT      O45772   0.231   7.260   2.363
15177WAT     H145773   0.167   7.261   2.440
15177WAT     H245774   0.257   7.166   2.343
15178WAT      O45775   6.488   8.085   4.691
15178WAT     H145776   6.400   8.070   4.647
15178WAT     H245777   6.507   8.184   4.695
15179WAT      O45778   1.014   2.470   5.494
15179WAT     H145779   1.049   2.542   5.435
15179WAT     H245780   0.960   2.510   5.568
15180WAT      O45781   4.896   5.011   2.843
15180WAT     H145782   4.968   4.972   2.786
15180WAT     H245783   4.827   4.942   2.862
15181WAT      O45784   9.452   9.161   8.978
15181WAT     H145785   9.385   9.116   8.918
15181WAT     H245786   9.424   9.148   9.074
15182WAT      O45787   6.554   2.807   2.977
15182WAT     H145788   6.591   2.879   2.918
15182WAT     H245789   6.629   2.752   3.014
15183WAT      O45790   7.943   1.501   9.840
15183WAT     H145791   8.015   1.533   9.901
15183WAT     H245792   7.854   1.532   9.875
15184WAT      O45793   8.258   4.753   7.974
15184WAT     H145794   8.210   4.706   7.899
15184WAT     H245795   8.239   4.851   7.969
15185WAT      O45796   3.239   9.276   6.453
15185WAT     H145797   3.265   9.296   6.359
15185WAT     H245798   3.145   9.307   6.469
15186WAT      O45799   0.611   3.151   5.758
15186WAT     H145800   0.586   3.228   5.700
15186WAT     H245801   0.700   3.114   5.728
15187WAT      O45802   5.949   1.685   4.057
15187WAT     H145803   6.002   1.711   4.138
15187WAT     H245804   5.866   1.637   4.085
15188WAT      O45805   2.808   4.979   9.396
15188WAT     H145806   2.884   5.043   9.400
15188WAT     H245807   2.836   4.891   9.435
15189WAT      O45808   6.952   6.449   4.017
15189WAT     H145809   7.004   6.454   4.103
15189WAT     H245810   6.889   6.372   4.021
15190WAT      O45811   3.430   8.195   6.505
15190WAT     H145812   3.386   8.241   6.582
15190WAT     H245813   3.377   8.114   6.480
15191WAT      O45814   9.772   8.000   7.328
15191WAT     H145815   9.749   8.097   7.321
15191WAT     H245816   9.871   7.989   7.329
15192WAT      O45817   6.945   6.517   1.014
15192WAT     H145818   6.867   6.518   0.952
15192WAT     H245819   6.997   6.432   1.002
15193WAT      O45820   8.376   1.012   7.266
15193WAT     H145821   8.429   0.954   7.204
15193WAT     H245822   8.297   1.050   7.218
15194WAT      O45823   6.347   5.117   5.075
15194WAT     H145824   6.291   5.087   4.997
15194WAT     H245825   6.376   5.037   5.127
15195WAT      O45826   7.252   7.150   6.918
15195WAT     H145827   7.308   7.067   6.926
15195WAT     H245828   7.234   7.168   6.821
15196WAT      O45829   6.582   7.110   8.341
15196WAT     H145830   6.571   7.190   8.399
15196WAT     H245831   6.679   7.097   8.320
15197WAT      O45832   1.448   5.382   0.679
15197WAT     H145833   1.525   5.420   0.628
15197WAT     H245834   1.445   5.283   0.666
15198WAT      O45835   2.095   8.536   5.766
15198WAT     H145836   2.130   8.458   5.715
15198WAT     H245837   2.053   8.505   5.851
15199WAT      O45838   3.939   4.331   7.168
15199WAT     H145839   3.981   4.279   7.243
15199WAT     H245840   3.988   4.311   7.083
15200WAT      O45841   7.776   6.574   6.458
15200WAT     H145842   7.860   6.629   6.466
15200WAT     H245843   7.801   6.478   6.448
15201WAT      O45844   1.688   9.620   5.262
15201WAT     H145845   1.630   9.568   5.324
15201WAT     H245846   1.642   9.706   5.237
15202WAT      O45847   8.045   6.522   7.045
15202WAT     H145848   7.969   6.474   7.001
15202WAT     H245849   8.027   6.530   7.143
15203WAT      O45850   0.168   0.243   0.339
15203WAT     H145851   0.117   0.245   0.252
15203WAT     H245852   0.205   0.334   0.358
15204WAT      O45853   4.205   8.785   4.139
15204WAT     H145854   4.261   8.832   4.207
15204WAT     H245855   4.262   8.758   4.061
15205WAT      O45856   3.210   6.412   4.609
15205WAT     H145857   3.190   6.332   4.665
15205WAT     H245858   3.308   6.416   4.589
15206WAT      O45859   9.486   5.374   9.376
15206WAT     H145860   9.581   5.346   9.359
15206WAT     H245861   9.483   5.472   9.393
15207WAT      O45862   3.019   5.099   1.068
15207WAT     H145863   2.940   5.107   1.129
15207WAT     H245864   2.989   5.078   0.975
15208WAT      O45865   9.355   1.992   6.592
15208WAT     H145866   9.390   1.981   6.499
15208WAT     H245867   9.256   2.005   6.589
15209WAT      O45868   4.523   8.076   4.559
15209WAT     H145869   4.528   8.151   4.493
15209WAT     H245870   4.565   8.104   4.645
15210WAT      O45871   1.389   2.382   5.243
15210WAT     H145872   1.307   2.335   5.212
15210WAT     H245873   1.363   2.466   5.291
15211WAT      O45874   4.819   9.618   8.034
15211WAT     H145875   4.877   9.549   7.990
15211WAT     H245876   4.752   9.652   7.968
15212WAT      O45877   5.331   1.947   0.955
15212WAT     H145878   5.385   1.874   0.912
15212WAT     H245879   5.393   2.008   1.005
15213WAT      O45880   9.116   6.193   7.060
15213WAT     H145881   9.027   6.236   7.075
15213WAT     H245882   9.183   6.234   7.122
15214WAT      O45883   2.676   1.541   4.013
15214WAT     H145884   2.651   1.566   3.919
15214WAT     H245885   2.645   1.612   4.076
15215WAT      O45886   9.782   6.114   3.310
15215WAT     H145887   9.773   6.142   3.405
15215WAT     H245888   9.714   6.161   3.254
15216WAT      O45889   0.467   2.571   2.978
15216WAT     H145890   0.448   2.525   2.891
15216WAT     H245891   0.398   2.544   3.045
15217WAT      O45892   6.266   4.424   8.203
15217WAT     H145893   6.207   4.436   8.124
15217WAT     H245894   6.274   4.511   8.253
15218WAT      O45895   4.529   4.633   8.686
15218WAT     H145896   4.538   4.709   8.622
15218WAT     H245897   4.484   4.663   8.770
15219WAT      O45898   6.540   7.776   6.679
15219WAT     H145899   6.476   7.794   6.754
15219WAT     H245900   6.619   7.726   6.715
15220WAT      O45901   2.022   1.740   1.235
15220WAT     H145902   2.095   1.763   1.299
15220WAT     H245903   1.998   1.821   1.181
15221WAT      O45904   1.338   8.992   2.028
15221WAT     H145905   1.390   9.033   2.103
15221WAT     H245906   1.384   9.012   1.941
15222WAT      O45907   4.603   3.426   4.744
15222WAT     H145908   4.639   3.510   4.786
15222WAT     H245909   4.602   3.436   4.645
15223WAT      O45910   8.419   6.147   6.635
15223WAT     H145911   8.455   6.240   6.624
15223WAT     H245912   8.347   6.148   6.705
15224WAT      O45913   3.283   2.355   6.474
15224WAT     H145914   3.282   2.264   6.515
15224WAT     H245915   3.214   2.361   6.401
15225WAT      O45916   0.755   5.110   6.757
15225WAT     H145917   0.839   5.163   6.743
15225WAT     H245918   0.737   5.102   6.855
15226WAT      O45919   6.300   8.795   2.423
15226WAT     H145920   6.375   8.745   2.466
15226WAT     H245921   6.338   8.858   2.354
15227WAT      O45922   2.319   8.445   7.843
15227WAT     H145923   2.347   8.536   7.873
15227WAT     H245924   2.259   8.453   7.763
15228WAT      O45925   2.362   5.525   0.786
15228WAT     H145926   2.337   5.443   0.734
15228WAT     H245927   2.280   5.571   0.819
15229WAT      O45928   2.082   2.531   1.102
15229WAT     H145929   1.999   2.546   1.156
15229WAT     H245930   2.068   2.455   1.039
15230WAT      O45931   9.488   7.830   8.261
15230WAT     H145932   9.490   7.838   8.161
15230WAT     H245933   9.463   7.736   8.286
15231WAT      O45934   3.897   1.522   8.332
15231WAT     H145935   3.925   1.609   8.290
15231WAT     H245936   3.902   1.531   8.431
15232WAT      O45937   1.024   7.742   3.303
15232WAT     H145938   1.090   7.774   3.235
15232WAT     H245939   1.072   7.714   3.386
15233WAT      O45940   9.811   9.160   2.247
15233WAT     H145941   9.790   9.099   2.171
15233WAT     H245942   9.809   9.109   2.333
15234WAT      O45943   1.383   7.507   9.604
15234WAT     H145944   1.330   7.566   9.665
15234WAT     H245945   1.456   7.462   9.657
15235WAT      O45946   3.085   9.060   2.342
15235WAT     H145947   3.035   9.147   2.353
15235WAT     H245948   3.125   9.034   2.430
15236WAT      O45949   4.744   2.293   5.521
15236WAT     H145950   4.647   2.314   5.534
15236WAT     H245951   4.765   2.206   5.566
15237WAT      O45952   4.074   9.269   3.861
15237WAT     H145953   4.141   9.216   3.914
15237WAT     H245954   4.005   9.207   3.824
15238WAT      O45955   5.711   4.119   2.339
15238WAT     H145956   5.704   4.029   2.382
15238WAT     H245957   5.802   4.156   2.356
15239WAT      O45958   6.142   1.723   4.237
15239WAT     H145959   6.125   1.702   4.333
15239WAT     H245960   6.175   1.817   4.228
15240WAT      O45961   3.689   1.564   0.228
15240WAT     H145962   3.629   1.590   0.303
15240WAT     H245963   3.783   1.555   0.262
15241WAT      O45964   0.566   1.574   3.907
15241WAT     H145965   0.489   1.636   3.921
15241WAT     H245966   0.539   1.481   3.933
15242WAT      O45967   2.173   0.562   0.375
15242WAT     H145968   2.112   0.570   0.454
15242WAT     H245969   2.134   0.611   0.297
15243WAT      O45970   7.153   0.512   8.907
15243WAT     H145971   7.140   0.612   8.902
15243WAT     H245972   7.096   0.468   8.838
15244WAT      O45973   7.242   6.205   5.715
15244WAT     H145974   7.165   6.220   5.654
15244WAT     H245975   7.255   6.107   5.729
15245WAT      O45976   5.759   0.616   7.747
15245WAT     H145977   5.728   0.576   7.660
15245WAT     H245978   5.708   0.576   7.823
15246WAT      O45979   0.014   3.338   2.177
15246WAT     H145980  -0.022   3.389   2.255
15246WAT     H245981  -0.045   3.352   2.098
15247WAT      O45982   1.824   8.382   1.141
15247WAT     H145983   1.730   8.359   1.167
15247WAT     H245984   1.860   8.450   1.205
15248WAT      O45985   7.985   4.656   7.302
15248WAT     H145986   8.039   4.602   7.367
15248WAT     H245987   7.951   4.597   7.229
15249WAT      O45988   7.269   5.304   7.090
15249WAT     H145989   7.313   5.289   7.178
15249WAT     H245990   7.225   5.394   7.088
15250WAT      O45991   8.484   7.286   1.949
15250WAT     H145992   8.505   7.323   2.040
15250WAT     H245993   8.387   7.300   1.929
15251WAT      O45994   7.153   2.473   5.987
15251WAT     H145995   7.179   2.379   6.011
15251WAT     H245996   7.136   2.525   6.071
15252WAT      O45997   5.271   0.794   3.789
15252WAT     H145998   5.205   0.868   3.792
15252WAT     H245999   5.227   0.711   3.753
15253WAT      O46000   5.787   6.581   5.625
15253WAT     H146001   5.838   6.667   5.616
15253WAT     H246002   5.851   6.504   5.622
15254WAT      O46003   6.505   4.987   4.752
15254WAT     H146004   6.501   4.917   4.823
15254WAT     H246005   6.417   5.034   4.748
15255WAT      O46006   1.294   4.753   0.753
15255WAT     H146007   1.330   4.665   0.724
15255WAT     H246008   1.309   4.764   0.852
15256WAT      O46009   5.576   0.721   9.191
15256WAT     H146010   5.641   0.792   9.165
15256WAT     H246011   5.608   0.633   9.157
15257WAT      O46012   8.296   6.251   4.596
15257WAT     H146013   8.258   6.301   4.674
15257WAT     H246014   8.386   6.214   4.621
15258WAT      O46015   2.976   3.862   0.387
15258WAT     H146016   2.943   3.839   0.479
15258WAT     H246017   3.065   3.818   0.371
15259WAT      O46018   5.112   5.816   6.637
15259WAT     H146019   5.031   5.830   6.693
15259WAT     H246020   5.192   5.856   6.683
15260WAT      O46021   6.855   6.138   6.843
15260WAT     H146022   6.840   6.145   6.744
15260WAT     H246023   6.929   6.073   6.861
15261WAT      O46024   3.018   5.890   3.161
15261WAT     H146025   3.025   5.902   3.260
15261WAT     H246026   3.094   5.936   3.116
15262WAT      O46027   4.205   1.938   2.514
15262WAT     H146028   4.273   1.876   2.476
15262WAT     H246029   4.236   1.971   2.603
15263WAT      O46030   8.949   4.895   8.993
15263WAT     H146031   8.925   4.846   8.909
15263WAT     H246032   8.920   4.841   9.072
15264WAT      O46033   0.722   0.575   2.681
15264WAT     H146034   0.675   0.662   2.663
15264WAT     H246035   0.812   0.594   2.720
15265WAT      O46036   7.278   4.917   0.931
15265WAT     H146037   7.274   4.936   1.029
15265WAT     H246038   7.186   4.926   0.892
15266WAT      O46039   8.436   4.510   8.471
15266WAT     H146040   8.418   4.593   8.524
15266WAT     H246041   8.528   4.514   8.432
15267WAT      O46042   5.750   2.655   7.895
15267WAT     H146043   5.836   2.642   7.944
15267WAT     H246044   5.764   2.637   7.797
15268WAT      O46045   6.024   8.744   2.438
15268WAT     H146046   6.015   8.646   2.419
15268WAT     H246047   6.121   8.769   2.436
15269WAT      O46048   1.760   5.457   1.702
15269WAT     H146049   1.824   5.389   1.665
15269WAT     H246050   1.782   5.475   1.798
15270WAT      O46051   5.768   8.773   8.670
15270WAT     H146052   5.720   8.733   8.749
15270WAT     H246053   5.863   8.792   8.695
15271WAT      O46054   6.809   2.386   3.572
15271WAT     H146055   6.715   2.390   3.538
15271WAT     H246056   6.872   2.378   3.495
15272WAT      O46057   1.406   8.032   3.239
15272WAT     H146058   1.454   8.049   3.325
15272WAT     H246059   1.353   8.112   3.214
15273WAT      O46060   3.595   7.241   9.844
15273WAT     H146061   3.569   7.206   9.754
15273WAT     H246062   3.650   7.324   9.832
15274WAT      O46063   2.793   4.114   4.842
15274WAT     H146064   2.884   4.079   4.820
15274WAT     H246065   2.742   4.044   4.893
15275WAT      O46066   4.510   8.509   7.148
15275WAT     H146067   4.522   8.501   7.049
15275WAT     H246068   4.421   8.551   7.167
15276WAT      O46069   7.259   9.453   0.336
15276WAT     H146070   7.249   9.424   0.241
15276WAT     H246071   7.328   9.397   0.381
15277WAT      O46072   3.059   7.684   7.423
15277WAT     H146073   3.107   7.635   7.496
15277WAT     H246074   3.040   7.777   7.452
15278WAT      O46075   8.822   4.394   7.999
15278WAT     H146076   8.852   4.368   7.908
15278WAT     H246077   8.839   4.492   8.013
15279WAT      O46078   0.575   8.112   2.335
15279WAT     H146079   0.640   8.064   2.394
15279WAT     H246080   0.543   8.050   2.263
15280WAT      O46081   2.073   1.081   7.740
15280WAT     H146082   2.146   1.124   7.793
15280WAT     H246083   1.993   1.066   7.799
15281WAT      O46084   0.191   4.456   6.369
15281WAT     H146085   0.217   4.412   6.456
15281WAT     H246086   0.189   4.386   6.297
15282WAT      O46087   5.840   2.951   3.927
15282WAT     H146088   5.781   3.027   3.953
15282WAT     H246089   5.934   2.983   3.918
15283WAT      O46090   7.373   0.744   5.852
15283WAT     H146091   7.307   0.780   5.786
15283WAT     H246092   7.386   0.646   5.836
15284WAT      O46093   1.120   0.054   7.677
15284WAT     H146094   1.120  -0.039   7.640
15284WAT     H246095   1.176   0.057   7.760
15285WAT      O46096   0.539   5.137   3.033
15285WAT     H146097   0.563   5.217   2.977
15285WAT     H246098   0.469   5.163   3.100
15286WAT      O46099   9.671   9.386   6.160
15286WAT     H146100   9.672   9.481   6.190
15286WAT     H246101   9.750   9.338   6.197
15287WAT      O46102   5.398   5.435   5.354
15287WAT     H146103   5.427   5.357   5.299
15287WAT     H246104   5.460   5.448   5.431
15288WAT      O46105   1.313   8.144   4.903
15288WAT     H146106   1.364   8.226   4.877
15288WAT     H246107   1.217   8.153   4.875
15289WAT      O46108   3.327   9.202   4.582
15289WAT     H146109   3.299   9.282   4.635
15289WAT     H246110   3.423   9.213   4.554
15290WAT      O46111   1.508   1.022   1.820
15290WAT     H146112   1.456   0.938   1.837
15290WAT     H246113   1.449   1.101   1.832
15291WAT      O46114   4.472   9.103   7.057
15291WAT     H146115   4.470   9.022   7.116
15291WAT     H246116   4.419   9.086   6.974
15292WAT      O46117   9.315   9.631   1.516
15292WAT     H146118   9.215   9.632   1.518
15292WAT     H246119   9.347   9.559   1.455
15293WAT      O46120   4.165   4.884   4.091
15293WAT     H146121   4.139   4.977   4.113
15293WAT     H246122   4.098   4.820   4.129
15294WAT      O46123   9.692   1.676   2.918
15294WAT     H146124   9.773   1.708   2.968
15294WAT     H246125   9.656   1.749   2.861
15295WAT      O46126   0.076   2.173   6.983
15295WAT     H146127   0.037   2.161   7.074
15295WAT     H246128   0.003   2.188   6.917
15296WAT      O46129   5.313   7.582   6.107
15296WAT     H146130   5.330   7.680   6.099
15296WAT     H246131   5.215   7.567   6.123
15297WAT      O46132   3.381   2.300   1.499
15297WAT     H146133   3.451   2.298   1.427
15297WAT     H246134   3.314   2.227   1.483
15298WAT      O46135   8.466   3.602   4.260
15298WAT     H146136   8.394   3.533   4.270
15298WAT     H246137   8.525   3.578   4.183
15299WAT      O46138   4.594   6.750   0.267
15299WAT     H146139   4.676   6.755   0.211
15299WAT     H246140   4.551   6.840   0.272
15300WAT      O46141   6.739   8.793   1.960
15300WAT     H146142   6.826   8.750   1.987
15300WAT     H246143   6.677   8.723   1.924
15301WAT      O46144   7.469   9.157   4.937
15301WAT     H146145   7.477   9.058   4.949
15301WAT     H246146   7.392   9.178   4.877
15302WAT      O46147   8.780   8.543   7.686
15302WAT     H146148   8.739   8.552   7.596
15302WAT     H246149   8.783   8.632   7.731
15303WAT      O46150   9.540   5.590   9.521
15303WAT     H146151   9.636   5.602   9.493
15303WAT     H246152   9.535   5.580   9.620
15304WAT      O46153   9.046   7.228   7.556
15304WAT     H146154   8.983   7.157   7.525
15304WAT     H246155   8.998   7.292   7.616
15305WAT      O46156   5.884   4.481   6.051
15305WAT     H146157   5.904   4.384   6.066
15305WAT     H246158   5.786   4.497   6.064
15306WAT      O46159   8.053   5.253   8.573
15306WAT     H146160   8.072   5.197   8.653
15306WAT     H246161   8.077   5.348   8.592
15307WAT      O46162   5.669   7.679   7.961
15307WAT     H146163   5.707   7.771   7.960
15307WAT     H246164   5.677   7.641   8.053
15308WAT      O46165   8.357   8.671   8.676
15308WAT     H146166   8.413   8.681   8.594
15308WAT     H246167   8.261   8.677   8.652
15309WAT      O46168   1.262   4.394   6.066
15309WAT     H146169   1.228   4.392   6.160
15309WAT     H246170   1.198   4.444   6.008
15310WAT      O46171   0.951   0.911   8.253
15310WAT     H146172   0.963   0.812   8.242
15310WAT     H246173   0.873   0.942   8.200
15311WAT      O46174   2.809   2.819   1.358
15311WAT     H146175   2.723   2.860   1.390
15311WAT     H246176   2.885   2.878   1.383
15312WAT      O46177   0.411   3.394   2.993
15312WAT     H146178   0.324   3.366   2.954
15312WAT     H246179   0.422   3.353   3.084
15313WAT      O46180   2.412   2.801   6.681
15313WAT     H146181   2.319   2.833   6.700
15313WAT     H246182   2.422   2.706   6.711
15314WAT      O46183   1.370   4.293   6.996
15314WAT     H146184   1.357   4.203   6.955
15314WAT     H246185   1.330   4.363   6.937
15315WAT      O46186   5.922   9.699   0.917
15315WAT     H146187   5.986   9.773   0.895
15315WAT     H246188   5.893   9.654   0.833
15316WAT      O46189   3.603   5.942   8.582
15316WAT     H146190   3.662   5.933   8.502
15316WAT     H246191   3.599   6.038   8.610
15317WAT      O46192   8.216   1.684   3.151
15317WAT     H146193   8.294   1.744   3.166
15317WAT     H246194   8.233   1.595   3.195
15318WAT      O46195   7.855   9.035   6.229
15318WAT     H146196   7.789   8.999   6.162
15318WAT     H246197   7.828   9.005   6.321
15319WAT      O46198   8.237   6.494   3.834
15319WAT     H146199   8.176   6.476   3.912
15319WAT     H246200   8.325   6.449   3.850
15320WAT      O46201   6.277   4.280   7.159
15320WAT     H146202   6.317   4.243   7.243
15320WAT     H246203   6.341   4.344   7.117
15321WAT      O46204   7.081   9.638   0.774
15321WAT     H146205   7.134   9.673   0.697
15321WAT     H246206   7.113   9.681   0.859
15322WAT      O46207   3.957   9.341   8.960
15322WAT     H146208   3.879   9.397   8.987
15322WAT     H246209   3.977   9.275   9.032
15323WAT      O46210   7.831   2.607   3.843
15323WAT     H146211   7.795   2.526   3.889
15323WAT     H246212   7.898   2.579   3.773
15324WAT      O46213   5.030   6.910   8.340
15324WAT     H146214   4.982   6.834   8.296
15324WAT     H246215   4.966   6.986   8.356
15325WAT      O46216   5.066   7.676   3.123
15325WAT     H146217   5.081   7.611   3.198
15325WAT     H246218   4.970   7.701   3.119
15326WAT      O46219   3.355   0.478   7.111
15326WAT     H146220   3.329   0.529   7.029
15326WAT     H246221   3.445   0.437   7.098
15327WAT      O46222   5.778   5.550   6.164
15327WAT     H146223   5.869   5.538   6.124
15327WAT     H246224   5.716   5.482   6.125
15328WAT      O46225   9.293   8.618   8.152
15328WAT     H146226   9.299   8.646   8.247
15328WAT     H246227   9.370   8.656   8.101
15329WAT      O46228   1.609   7.944   4.278
15329WAT     H146229   1.586   7.890   4.359
15329WAT     H246230   1.708   7.939   4.261
15330WAT      O46231   3.672   9.722   5.498
15330WAT     H146232   3.598   9.715   5.432
15330WAT     H246233   3.677   9.637   5.552
15331WAT      O46234   6.733   2.252   3.794
15331WAT     H146235   6.758   2.313   3.719
15331WAT     H246236   6.697   2.166   3.757
15332WAT      O46237   9.365   2.382   3.986
15332WAT     H146238   9.446   2.440   3.980
15332WAT     H246239   9.287   2.429   3.946
15333WAT      O46240   5.843   1.375   4.084
15333WAT     H146241   5.942   1.385   4.098
15333WAT     H246242   5.827   1.336   3.993
15334WAT      O46243   4.901   8.184   5.843
15334WAT     H146244   4.951   8.260   5.800
15334WAT     H246245   4.945   8.162   5.931
15335WAT      O46246   1.068   5.482   3.691
15335WAT     H146247   1.033   5.490   3.784
15335WAT     H246248   0.992   5.487   3.626
15336WAT      O46249   3.808   5.940   8.981
15336WAT     H146250   3.773   5.871   8.918
15336WAT     H246251   3.739   5.961   9.050
15337WAT      O46252   1.361   7.581   3.410
15337WAT     H146253   1.428   7.652   3.432
15337WAT     H246254   1.274   7.603   3.455
15338WAT      O46255   6.823   4.206   4.712
15338WAT     H146256   6.903   4.158   4.675
15338WAT     H246257   6.745   4.195   4.651
15339WAT      O46258   4.226   8.095   0.084
15339WAT     H146259   4.204   8.051  -0.004
15339WAT     H246260   4.147   8.149   0.114
15340WAT      O46261   7.894   2.231   2.858
15340WAT     H146262   7.847   2.318   2.843
15340WAT     H246263   7.970   2.222   2.794
15341WAT      O46264   1.169   3.879   7.587
15341WAT     H146265   1.086   3.833   7.553
15341WAT     H246266   1.143   3.947   7.655
15342WAT      O46267   2.753   4.406   7.823
15342WAT     H146268   2.663   4.447   7.809
15342WAT     H246269   2.789   4.375   7.735
15343WAT      O46270   6.227   1.982   4.297
15343WAT     H146271   6.233   2.048   4.222
15343WAT     H246272   6.223   2.032   4.384
15344WAT      O46273   1.942   2.282   5.785
15344WAT     H146274   1.976   2.280   5.879
15344WAT     H246275   1.913   2.375   5.762
15345WAT      O46276   6.548   4.435   6.659
15345WAT     H146277   6.531   4.524   6.700
15345WAT     H246278   6.541   4.442   6.559
15346WAT      O46279   5.548   5.335   6.421
15346WAT     H146280   5.617   5.333   6.349
15346WAT     H246281   5.588   5.300   6.506
15347WAT      O46282   7.523   2.173   1.558
15347WAT     H146283   7.551   2.248   1.618
15347WAT     H246284   7.592   2.100   1.562
15348WAT      O46285   1.659   4.541   0.727
15348WAT     H146286   1.561   4.557   0.738
15348WAT     H246287   1.694   4.597   0.652
15349WAT      O46288   6.340   0.933   4.074
15349WAT     H146289   6.271   0.970   4.137
15349WAT     H246290   6.397   1.007   4.040
15350WAT      O46291   1.677   1.152   9.343
15350WAT     H146292   1.664   1.102   9.429
15350WAT     H246293   1.769   1.190   9.341
15351WAT      O46294   3.165   9.839   5.924
15351WAT     H146295   3.246   9.829   5.981
15351WAT     H246296   3.091   9.880   5.978
15352WAT      O46297   4.911   2.560   2.771
15352WAT     H146298   4.825   2.511   2.762
15352WAT     H246299   4.983   2.497   2.801
15353WAT      O46300   5.922   5.307   8.756
15353WAT     H146301   5.952   5.225   8.707
15353WAT     H246302   5.962   5.307   8.848
15354WAT      O46303   9.251   6.514   9.773
15354WAT     H146304   9.189   6.540   9.699
15354WAT     H246305   9.345   6.535   9.747
15355WAT      O46306   3.540   4.748   5.194
15355WAT     H146307   3.574   4.830   5.240
15355WAT     H246308   3.615   4.704   5.144
15356WAT      O46309   9.669   5.451   3.588
15356WAT     H146310   9.711   5.501   3.663
15356WAT     H246311   9.738   5.396   3.541
15357WAT      O46312   6.422   0.919   8.721
15357WAT     H146313   6.366   0.926   8.804
15357WAT     H246314   6.456   1.010   8.697
15358WAT      O46315   7.600   0.189   1.503
15358WAT     H146316   7.689   0.154   1.474
15358WAT     H246317   7.612   0.248   1.583
15359WAT      O46318   9.864   9.017   5.794
15359WAT     H146319   9.869   8.952   5.870
15359WAT     H246320   9.882   8.969   5.708
15360WAT      O46321   6.288   0.681   3.501
15360WAT     H146322   6.242   0.769   3.512
15360WAT     H246323   6.370   0.693   3.445
15361WAT      O46324   7.140   7.605   2.809
15361WAT     H146325   7.119   7.698   2.841
15361WAT     H246326   7.212   7.566   2.867
15362WAT      O46327   9.007   7.753   8.965
15362WAT     H146328   9.100   7.723   8.987
15362WAT     H246329   8.988   7.840   9.011
15363WAT      O46330   8.210   7.919   3.750
15363WAT     H146331   8.230   8.017   3.749
15363WAT     H246332   8.272   7.873   3.686
15364WAT      O46333   0.339   3.104   9.012
15364WAT     H146334   0.390   3.190   9.021
15364WAT     H246335   0.263   3.117   8.949
15365WAT      O46336   8.051   5.587   1.400
15365WAT     H146337   8.018   5.681   1.413
15365WAT     H246338   7.991   5.539   1.335
15366WAT      O46339   3.950   7.551   2.623
15366WAT     H146340   3.868   7.510   2.661
15366WAT     H246341   3.958   7.646   2.654
15367WAT      O46342   6.850   1.850   7.037
15367WAT     H146343   6.844   1.931   7.096
15367WAT     H246344   6.766   1.797   7.045
15368WAT      O46345   4.042   6.103   2.556
15368WAT     H146346   4.126   6.056   2.529
15368WAT     H246347   3.979   6.106   2.479
15369WAT      O46348   0.153   9.201   8.944
15369WAT     H146349   0.082   9.233   8.882
15369WAT     H246350   0.207   9.280   8.975
15370WAT      O46351   9.715   3.207   0.593
15370WAT     H146352   9.665   3.120   0.594
15370WAT     H246353   9.656   3.279   0.628
15371WAT      O46354   4.276   8.496   3.251
15371WAT     H146355   4.274   8.596   3.255
15371WAT     H246356   4.263   8.458   3.343
15372WAT      O46357   7.578   6.181   0.120
15372WAT     H146358   7.583   6.102   0.059
15372WAT     H246359   7.484   6.216   0.122
15373WAT      O46360   8.475   6.571   9.128
15373WAT     H146361   8.575   6.570   9.139
15373WAT     H246362   8.444   6.483   9.092
15374WAT      O46363   0.051   1.086   8.000
15374WAT     H146364   0.067   1.023   7.925
15374WAT     H246365   0.138   1.113   8.041
15375WAT      O46366   4.413   2.285   2.625
15375WAT     H146367   4.407   2.208   2.561
15375WAT     H246368   4.373   2.366   2.583
15376WAT      O46369   2.151   5.908   3.524
15376WAT     H146370   2.226   5.848   3.497
15376WAT     H246371   2.130   5.894   3.620
15377WAT      O46372   3.003   3.617   5.937
15377WAT     H146373   2.965   3.525   5.922
15377WAT     H246374   2.962   3.680   5.872
15378WAT      O46375   0.683   2.303   7.507
15378WAT     H146376   0.622   2.260   7.440
15378WAT     H246377   0.770   2.254   7.509
15379WAT      O46378   7.695   4.744   0.425
15379WAT     H146379   7.753   4.808   0.375
15379WAT     H246380   7.666   4.785   0.512
15380WAT      O46381   8.987   4.361   0.630
15380WAT     H146382   8.902   4.385   0.677
15380WAT     H246383   8.983   4.265   0.600
15381WAT      O46384   4.944   3.970   7.605
15381WAT     H146385   4.873   3.930   7.662
15381WAT     H246386   5.032   3.929   7.626
15382WAT      O46387   3.795   5.257   2.758
15382WAT     H146388   3.871   5.228   2.816
15382WAT     H246389   3.759   5.344   2.790
15383WAT      O46390   3.208   6.189   3.306
15383WAT     H146391   3.195   6.284   3.278
15383WAT     H246392   3.184   6.179   3.402
15384WAT      O46393   2.254   1.838   3.855
15384WAT     H146394   2.305   1.924   3.859
15384WAT     H246395   2.255   1.794   3.945
15385WAT      O46396   0.253   8.231   2.033
15385WAT     H146397   0.180   8.163   2.032
15385WAT     H246398   0.224   8.310   2.087
15386WAT      O46399   6.882   9.252   7.895
15386WAT     H146400   6.787   9.270   7.868
15386WAT     H246401   6.944   9.308   7.840
15387WAT      O46402   7.725   4.143   4.832
15387WAT     H146403   7.715   4.122   4.735
15387WAT     H246404   7.669   4.223   4.855
15388WAT      O46405   0.294   5.946   3.472
15388WAT     H146406   0.311   5.882   3.397
15388WAT     H246407   0.256   6.031   3.435
15389WAT      O46408   8.849   1.171   8.404
15389WAT     H146409   8.893   1.132   8.485
15389WAT     H246410   8.900   1.145   8.323
15390WAT      O46411   8.579   2.421   6.657
15390WAT     H146412   8.533   2.437   6.569
15390WAT     H246413   8.537   2.479   6.727
15391WAT      O46414   2.447   5.121   4.150
15391WAT     H146415   2.453   5.106   4.249
15391WAT     H246416   2.463   5.217   4.130
15392WAT      O46417   7.991   1.839   2.140
15392WAT     H146418   8.010   1.758   2.084
15392WAT     H246419   7.892   1.850   2.150
15393WAT      O46420   2.199   6.882   0.949
15393WAT     H146421   2.289   6.907   0.914
15393WAT     H246422   2.186   6.923   1.039
15394WAT      O46423   8.234   2.158   5.117
15394WAT     H146424   8.306   2.101   5.156
15394WAT     H246425   8.211   2.231   5.181
15395WAT      O46426   5.350   0.717   7.132
15395WAT     H146427   5.291   0.778   7.079
15395WAT     H246428   5.310   0.702   7.222
15396WAT      O46429   2.749   4.474   8.623
15396WAT     H146430   2.737   4.493   8.525
15396WAT     H246431   2.769   4.377   8.635
15397WAT      O46432   2.722   6.145   7.159
15397WAT     H146433   2.637   6.130   7.209
15397WAT     H246434   2.794   6.086   7.197
15398WAT      O46435   2.860   0.091   1.035
15398WAT     H146436   2.958   0.111   1.044
15398WAT     H246437   2.811   0.128   1.114
15399WAT      O46438   5.416   4.130   9.428
15399WAT     H146439   5.413   4.172   9.337
15399WAT     H246440   5.333   4.152   9.478
15400WAT      O46441   7.877   2.994   6.773
15400WAT     H146442   7.834   3.028   6.856
15400WAT     H246443   7.833   3.036   6.693
15401WAT      O46444   3.299   6.211   2.479
15401WAT     H146445   3.278   6.205   2.382
15401WAT     H246446   3.316   6.306   2.505
15402WAT      O46447   7.803   0.909   2.252
15402WAT     H146448   7.813   0.824   2.303
15402WAT     H246449   7.724   0.904   2.192
15403WAT      O46450   1.998   4.084   6.032
15403WAT     H146451   1.991   4.008   6.097
15403WAT     H246452   1.935   4.068   5.956
15404WAT      O46453   7.879   0.958   1.300
15404WAT     H146454   7.816   0.936   1.374
15404WAT     H246455   7.853   0.907   1.218
15405WAT      O46456   8.529   7.276   2.521
15405WAT     H146457   8.616   7.230   2.505
15405WAT     H246458   8.456   7.208   2.531
15406WAT      O46459   3.521   9.046   0.346
15406WAT     H146460   3.488   9.008   0.260
15406WAT     H246461   3.522   9.145   0.341
15407WAT      O46462   0.421   8.964   0.559
15407WAT     H146463   0.459   8.940   0.649
15407WAT     H246464   0.409   8.881   0.505
15408WAT      O46465   8.412   2.426   4.408
15408WAT     H146466   8.486   2.477   4.363
15408WAT     H246467   8.436   2.330   4.415
15409WAT      O46468   6.569   0.740   1.260
15409WAT     H146469   6.590   0.755   1.163
15409WAT     H246470   6.512   0.815   1.294
15410WAT      O46471   5.782   5.177   3.797
15410WAT     H146472   5.711   5.124   3.843
15410WAT     H246473   5.743   5.220   3.715
15411WAT      O46474   9.016   0.757   2.450
15411WAT     H146475   8.954   0.738   2.375
15411WAT     H246476   9.050   0.671   2.488
15412WAT      O46477   8.053   0.220   9.630
15412WAT     H146478   8.134   0.256   9.583
15412WAT     H246479   7.980   0.289   9.628
15413WAT      O46480   4.718   3.233   3.740
15413WAT     H146481   4.809   3.205   3.769
15413WAT     H246482   4.721   3.265   3.645
15414WAT      O46483   5.293   3.694   8.856
15414WAT     H146484   5.287   3.640   8.772
15414WAT     H246485   5.204   3.693   8.902
15415WAT      O46486   6.053   0.267   8.145
15415WAT     H146487   6.126   0.225   8.091
15415WAT     H246488   6.083   0.276   8.240
15416WAT      O46489   2.095   0.763   4.109
15416WAT     H146490   2.084   0.786   4.206
15416WAT     H246491   2.075   0.666   4.095
15417WAT      O46492   3.862   8.951   6.748
15417WAT     H146493   3.769   8.987   6.751
15417WAT     H246494   3.924   9.015   6.793
15418WAT      O46495   2.241   5.175   9.178
15418WAT     H146496   2.301   5.099   9.202
15418WAT     H246497   2.294   5.249   9.137
15419WAT      O46498   9.370   3.322   3.370
15419WAT     H146499   9.434   3.381   3.319
15419WAT     H246500   9.347   3.242   3.314
15420WAT      O46501   9.134   0.026   7.239
15420WAT     H146502   9.142   0.089   7.317
15420WAT     H246503   9.195  -0.052   7.253
15421WAT      O46504   2.459   5.218   6.048
15421WAT     H146505   2.489   5.137   5.997
15421WAT     H246506   2.359   5.224   6.044
15422WAT      O46507   1.953   9.381   8.608
15422WAT     H146508   2.009   9.359   8.688
15422WAT     H246509   1.909   9.297   8.575
15423WAT      O46510   0.114   0.649   2.280
15423WAT     H146511   0.067   0.560   2.276
15423WAT     H246512   0.089   0.703   2.200
15424WAT      O46513   8.741   4.062   3.099
15424WAT     H146514   8.669   4.068   3.030
15424WAT     H246515   8.805   3.990   3.074
15425WAT      O46516   3.447   2.723   5.407
15425WAT     H146517   3.450   2.822   5.395
15425WAT     H246518   3.393   2.682   5.333
15426WAT      O46519   5.658   2.448   4.897
15426WAT     H146520   5.601   2.435   4.816
15426WAT     H246521   5.612   2.409   4.977
15427WAT      O46522   5.753   2.134   5.854
15427WAT     H146523   5.773   2.036   5.856
15427WAT     H246524   5.821   2.182   5.910
15428WAT      O46525   8.653   7.612   8.530
15428WAT     H146526   8.732   7.672   8.542
15428WAT     H246527   8.658   7.568   8.440
15429WAT      O46528   1.369   3.349   5.708
15429WAT     H146529   1.399   3.391   5.794
15429WAT     H246530   1.332   3.258   5.727
15430WAT      O46531   1.174   6.186   6.172
15430WAT     H146532   1.236   6.110   6.151
15430WAT     H246533   1.124   6.165   6.256
15431WAT      O46534   5.534   4.859   0.003
15431WAT     H146535   5.618   4.868   0.056
15431WAT     H246536   5.538   4.920  -0.076
15432WAT      O46537   2.657   1.599   3.763
15432WAT     H146538   2.742   1.628   3.719
15432WAT     H246539   2.625   1.515   3.721
15433WAT      O46540   1.603   9.670   8.826
15433WAT     H146541   1.506   9.660   8.848
15433WAT     H246542   1.656   9.601   8.875
15434WAT      O46543   3.281   0.980   9.685
15434WAT     H146544   3.311   0.888   9.712
15434WAT     H246545   3.294   1.043   9.762
15435WAT      O46546   7.977   5.137   4.054
15435WAT     H146547   7.972   5.107   3.959
15435WAT     H246548   7.884   5.148   4.090
15436WAT      O46549   9.043   6.003   8.425
15436WAT     H146550   8.984   6.083   8.434
15436WAT     H246551   9.102   6.014   8.345
15437WAT      O46552   6.340   1.007   6.429
15437WAT     H146553   6.405   1.024   6.355
15437WAT     H246554   6.340   1.083   6.493
15438WAT      O46555   0.203   2.917   2.833
15438WAT     H146556   0.134   2.871   2.890
15438WAT     H246557   0.275   2.953   2.891
15439WAT      O46558   9.115   0.540   4.884
15439WAT     H146559   9.140   0.627   4.926
15439WAT     H246560   9.016   0.537   4.870
15440WAT      O46561   6.811   9.509   5.264
15440WAT     H146562   6.870   9.492   5.185
15440WAT     H246563   6.868   9.534   5.343
15441WAT      O46564   6.783   9.847   7.602
15441WAT     H146565   6.791   9.766   7.660
15441WAT     H246566   6.870   9.865   7.557
15442WAT      O46567   4.907   9.100   4.425
15442WAT     H146568   4.830   9.158   4.452
15442WAT     H246569   4.971   9.155   4.370
15443WAT      O46570   1.631   9.142   0.072
15443WAT     H146571   1.582   9.055   0.076
15443WAT     H246572   1.568   9.214   0.044
15444WAT      O46573   2.033   6.044   6.891
15444WAT     H146574   2.048   6.120   6.955
15444WAT     H246575   2.117   6.026   6.840
15445WAT      O46576   6.832   1.187   0.045
15445WAT     H146577   6.838   1.170   0.143
15445WAT     H246578   6.892   1.263   0.020
15446WAT      O46579   4.972   0.803   0.629
15446WAT     H146580   5.054   0.756   0.595
15446WAT     H246581   4.891   0.753   0.599
15447WAT      O46582   7.533   3.183   1.806
15447WAT     H146583   7.458   3.223   1.860
15447WAT     H246584   7.495   3.135   1.727
15448WAT      O46585   6.309   2.632   0.720
15448WAT     H146586   6.228   2.685   0.743
15448WAT     H246587   6.389   2.693   0.717
15449WAT      O46588   8.361   7.148   4.084
15449WAT     H146589   8.291   7.170   4.152
15449WAT     H246590   8.370   7.048   4.077
15450WAT      O46591   7.048   2.681   9.648
15450WAT     H146592   7.013   2.746   9.581
15450WAT     H246593   7.135   2.644   9.615
15451WAT      O46594   3.172   4.990   1.891
15451WAT     H146595   3.090   5.047   1.891
15451WAT     H246596   3.156   4.907   1.944
15452WAT      O46597   4.525   1.404   7.641
15452WAT     H146598   4.545   1.371   7.733
15452WAT     H246599   4.481   1.494   7.647
15453WAT      O46600   0.104   4.940   8.101
15453WAT     H146601   0.103   4.840   8.107
15453WAT     H246602   0.161   4.978   8.173
15454WAT      O46603   8.175   0.066   6.858
15454WAT     H146604   8.199   0.117   6.776
15454WAT     H246605   8.250   0.003   6.881
15455WAT      O46606   3.911   9.426   1.898
15455WAT     H146607   3.917   9.481   1.815
15455WAT     H246608   3.949   9.478   1.975
15456WAT      O46609   1.037   0.151   6.311
15456WAT     H146610   1.047   0.243   6.274
15456WAT     H246611   0.964   0.103   6.264
15457WAT      O46612   3.178   5.526   7.552
15457WAT     H146613   3.116   5.448   7.542
15457WAT     H246614   3.259   5.499   7.604
15458WAT      O46615   2.916   6.191   4.703
15458WAT     H146616   3.015   6.178   4.706
15458WAT     H246617   2.873   6.115   4.654
15459WAT      O46618   1.251   8.528   4.938
15459WAT     H146619   1.214   8.446   4.894
15459WAT     H246620   1.336   8.505   4.984
15460WAT      O46621   9.850   1.686   1.199
15460WAT     H146622   9.894   1.757   1.144
15460WAT     H246623   9.783   1.728   1.260
15461WAT      O46624   3.497   3.231   1.858
15461WAT     H146625   3.565   3.158   1.866
15461WAT     H246626   3.476   3.268   1.949
15462WAT      O46627   7.184   7.573   1.197
15462WAT     H146628   7.240   7.492   1.211
15462WAT     H246629   7.243   7.652   1.178
15463WAT      O46630   4.997   1.716   0.440
15463WAT     H146631   4.965   1.809   0.420
15463WAT     H246632   5.082   1.721   0.492
15464WAT      O46633   3.850   2.064   3.904
15464WAT     H146634   3.889   2.068   3.996
15464WAT     H246635   3.890   2.137   3.848
15465WAT      O46636   2.275   9.246   9.727
15465WAT     H146637   2.371   9.271   9.714
15465WAT     H246638   2.258   9.224   9.823
15466WAT      O46639   5.105   6.915   7.656
15466WAT     H146640   5.159   6.980   7.604
15466WAT     H246641   5.082   6.954   7.746
15467WAT      O46642   4.073   6.892   8.251
15467WAT     H146643   4.029   6.914   8.163
15467WAT     H246644   4.139   6.818   8.238
15468WAT      O46645   5.239   3.017   1.247
15468WAT     H146646   5.169   3.007   1.318
15468WAT     H246647   5.195   3.016   1.157
15469WAT      O46648   7.337   8.644   9.670
15469WAT     H146649   7.264   8.655   9.603
15469WAT     H246650   7.302   8.661   9.762
15470WAT      O46651   0.470   2.928   7.229
15470WAT     H146652   0.539   3.000   7.234
15470WAT     H246653   0.379   2.969   7.231
15471WAT      O46654  -0.005   0.654   1.025
15471WAT     H146655   0.039   0.684   0.940
15471WAT     H246656   0.045   0.576   1.063
15472WAT      O46657   3.283   3.600   0.767
15472WAT     H146658   3.225   3.541   0.711
15472WAT     H246659   3.294   3.560   0.858
15473WAT      O46660   1.649   6.312   2.621
15473WAT     H146661   1.583   6.274   2.556
15473WAT     H246662   1.738   6.271   2.605
15474WAT      O46663   7.885   9.704   9.877
15474WAT     H146664   7.908   9.801   9.883
15474WAT     H246665   7.806   9.692   9.816
15475WAT      O46666   9.007   3.785   4.060
15475WAT     H146667   8.926   3.810   4.114
15475WAT     H246668   9.087   3.782   4.121
15476WAT      O46669   5.362   6.622   5.635
15476WAT     H146670   5.432   6.687   5.606
15476WAT     H246671   5.397   6.568   5.712
15477WAT      O46672   4.881   6.047   6.938
15477WAT     H146673   4.790   6.027   6.975
15477WAT     H246674   4.872   6.114   6.864
15478WAT      O46675   4.513   2.647   6.685
15478WAT     H146676   4.461   2.723   6.647
15478WAT     H246677   4.497   2.643   6.784
15479WAT      O46678   5.985   9.174   3.803
15479WAT     H146679   6.039   9.222   3.733
15479WAT     H246680   5.968   9.235   3.880
15480WAT      O46681   6.724   1.334   4.904
15480WAT     H146682   6.765   1.360   4.992
15480WAT     H246683   6.738   1.407   4.838
15481WAT      O46684   3.212   9.839   9.708
15481WAT     H146685   3.137   9.866   9.648
15481WAT     H246686   3.185   9.851   9.803
15482WAT      O46687   4.047   7.101   7.146
15482WAT     H146688   4.144   7.118   7.160
15482WAT     H246689   4.033   7.007   7.116
15483WAT      O46690   6.118   2.789   0.801
15483WAT     H146691   6.109   2.880   0.760
15483WAT     H246692   6.075   2.789   0.891
15484WAT      O46693   9.412   8.802   1.390
15484WAT     H146694   9.419   8.882   1.330
15484WAT     H246695   9.330   8.750   1.367
15485WAT      O46696   7.259   0.989   6.937
15485WAT     H146697   7.221   0.990   6.844
15485WAT     H246698   7.336   1.052   6.941
15486WAT      O46699   9.435   8.985   3.384
15486WAT     H146700   9.499   8.953   3.453
15486WAT     H246701   9.365   9.042   3.428
15487WAT      O46702   9.751   9.247   6.685
15487WAT     H146703   9.763   9.166   6.627
15487WAT     H246704   9.796   9.325   6.642
15488WAT      O46705   6.762   2.488   8.162
15488WAT     H146706   6.834   2.558   8.172
15488WAT     H246707   6.687   2.525   8.107
15489WAT      O46708   8.828   7.607   1.497
15489WAT     H146709   8.909   7.612   1.556
15489WAT     H246710   8.841   7.666   1.417
15490WAT      O46711   8.293   0.959   8.033
15490WAT     H146712   8.215   0.897   8.043
15490WAT     H246713   8.266   1.039   7.979
15491WAT      O46714   3.236   0.672   1.561
15491WAT     H146715   3.188   0.708   1.481
15491WAT     H246716   3.200   0.715   1.644
15492WAT      O46717   4.145   0.752   1.633
15492WAT     H146718   4.228   0.770   1.580
15492WAT     H246719   4.170   0.720   1.724
15493WAT      O46720   4.699   2.501   5.348
15493WAT     H146721   4.732   2.429   5.409
15493WAT     H246722   4.607   2.477   5.315
15494WAT      O46723   3.259   9.416   4.722
15494WAT     H146724   3.325   9.484   4.756
15494WAT     H246725   3.226   9.445   4.632
15495WAT      O46726   9.318   0.968   0.166
15495WAT     H146727   9.224   0.960   0.198
15495WAT     H246728   9.328   0.921   0.078
15496WAT      O46729   5.964   7.209   5.237
15496WAT     H146730   5.923   7.300   5.229
15496WAT     H246731   5.960   7.162   5.149
15497WAT      O46732   9.741   8.758   7.707
15497WAT     H146733   9.700   8.722   7.623
15497WAT     H246734   9.840   8.754   7.701
15498WAT      O46735   9.519   8.856   2.178
15498WAT     H146736   9.537   8.896   2.088
15498WAT     H246737   9.513   8.756   2.169
15499WAT      O46738   5.442   4.340   1.622
15499WAT     H146739   5.512   4.369   1.687
15499WAT     H246740   5.352   4.341   1.667
15500WAT      O46741   3.004   6.635   6.742
15500WAT     H146742   3.043   6.621   6.833
15500WAT     H246743   2.904   6.640   6.749
15501WAT      O46744   1.603   2.848   3.434
15501WAT     H146745   1.636   2.754   3.445
15501WAT     H246746   1.584   2.866   3.338
15502WAT      O46747   7.999   5.033   1.108
15502WAT     H146748   7.952   5.042   1.020
15502WAT     H246749   7.995   4.938   1.138
15503WAT      O46750   9.814   5.537   4.415
15503WAT     H146751   9.832   5.635   4.407
15503WAT     H246752   9.789   5.515   4.509
15504WAT      O46753   9.341   4.741   1.537
15504WAT     H146754   9.252   4.695   1.545
15504WAT     H246755   9.391   4.732   1.623
15505WAT      O46756   8.270   9.205   0.335
15505WAT     H146757   8.312   9.125   0.291
15505WAT     H246758   8.218   9.175   0.415
15506WAT      O46759   2.632   5.029   9.648
15506WAT     H146760   2.688   5.012   9.728
15506WAT     H246761   2.689   5.063   9.573
15507WAT      O46762   9.358   6.109   9.254
15507WAT     H146763   9.260   6.107   9.275
15507WAT     H246764   9.390   6.015   9.239
15508WAT      O46765   5.658   6.803   3.922
15508WAT     H146766   5.630   6.722   3.872
15508WAT     H246767   5.742   6.841   3.881
15509WAT      O46768   6.108   2.646   8.616
15509WAT     H146769   6.036   2.715   8.613
15509WAT     H246770   6.189   2.684   8.661
15510WAT      O46771   0.508   2.894   7.882
15510WAT     H146772   0.577   2.876   7.812
15510WAT     H246773   0.460   2.979   7.860
15511WAT      O46774   5.106   6.402   3.125
15511WAT     H146775   5.068   6.455   3.049
15511WAT     H246776   5.172   6.459   3.174
15512WAT      O46777   8.284   4.627   6.726
15512WAT     H146778   8.275   4.527   6.724
15512WAT     H246779   8.334   4.658   6.646
15513WAT      O46780   4.163   5.536   6.536
15513WAT     H146781   4.126   5.627   6.553
15513WAT     H246782   4.197   5.530   6.442
15514WAT      O46783   3.742   2.914   3.668
15514WAT     H146784   3.835   2.881   3.655
15514WAT     H246785   3.688   2.894   3.586
15515WAT      O46786   8.255   7.340   5.560
15515WAT     H146787   8.204   7.347   5.474
15515WAT     H246788   8.280   7.431   5.592
15516WAT      O46789   4.540   4.273   8.567
15516WAT     H146790   4.504   4.221   8.489
15516WAT     H246791   4.588   4.354   8.533
15517WAT      O46792   2.507   1.214   5.451
15517WAT     H146793   2.556   1.300   5.434
15517WAT     H246794   2.570   1.137   5.446
15518WAT      O46795   2.797   0.701   0.427
15518WAT     H146796   2.895   0.692   0.410
15518WAT     H246797   2.762   0.779   0.375
15519WAT      O46798   7.064   1.953   5.764
15519WAT     H146799   7.129   2.026   5.745
15519WAT     H246800   7.086   1.909   5.851
15520WAT      O46801   7.268   0.995   7.748
15520WAT     H146802   7.255   1.072   7.686
15520WAT     H246803   7.359   1.002   7.790
15521WAT      O46804   6.112   6.540   9.278
15521WAT     H146805   6.018   6.571   9.285
15521WAT     H246806   6.117   6.462   9.216
15522WAT      O46807   7.111   7.117   7.559
15522WAT     H146808   7.053   7.055   7.612
15522WAT     H246809   7.080   7.211   7.574
15523WAT      O46810   4.174   4.981   3.819
15523WAT     H146811   4.150   4.931   3.903
15523WAT     H246812   4.097   5.038   3.791
15524WAT      O46813   4.198   5.544   5.935
15524WAT     H146814   4.260   5.477   5.976
15524WAT     H246815   4.249   5.625   5.908
15525WAT      O46816   7.709   6.562   4.788
15525WAT     H146817   7.671   6.475   4.819
15525WAT     H246818   7.694   6.573   4.690
15526WAT      O46819   1.767   4.340   5.035
15526WAT     H146820   1.717   4.301   5.112
15526WAT     H246821   1.713   4.330   4.952
15527WAT      O46822   6.857   1.260   6.014
15527WAT     H146823   6.923   1.274   5.940
15527WAT     H246824   6.822   1.348   6.044
15528WAT      O46825   1.209   5.847   2.214
15528WAT     H146826   1.193   5.798   2.300
15528WAT     H246827   1.199   5.945   2.229
15529WAT      O46828   0.792   6.803   4.681
15529WAT     H146829   0.737   6.886   4.693
15529WAT     H246830   0.832   6.802   4.589
15530WAT      O46831   9.012   3.116   7.529
15530WAT     H146832   9.030   3.044   7.462
15530WAT     H246833   8.938   3.174   7.497
15531WAT      O46834   4.634   3.321   5.290
15531WAT     H146835   4.676   3.359   5.373
15531WAT     H246836   4.659   3.225   5.282
15532WAT      O46837   9.034   2.418   2.690
15532WAT     H146838   9.105   2.379   2.749
15532WAT     H246839   9.053   2.395   2.595
15533WAT      O46840   7.439   4.292   6.265
15533WAT     H146841   7.444   4.391   6.279
15533WAT     H246842   7.531   4.253   6.270
15534WAT      O46843   6.317   1.929   1.461
15534WAT     H146844   6.263   2.014   1.462
15534WAT     H246845   6.414   1.952   1.460
15535WAT      O46846   9.550   1.328   4.331
15535WAT     H146847   9.583   1.234   4.339
15535WAT     H246848   9.482   1.333   4.257
15536WAT      O46849   1.434   1.661   4.349
15536WAT     H146850   1.434   1.761   4.345
15536WAT     H246851   1.344   1.628   4.376
15537WAT      O46852   9.882   2.349   4.963
15537WAT     H146853   9.918   2.266   5.005
15537WAT     H246854   9.898   2.347   4.864
15538WAT      O46855   8.878   4.655   3.887
15538WAT     H146856   8.870   4.734   3.825
15538WAT     H246857   8.905   4.575   3.835
15539WAT      O46858   6.835   6.365   1.719
15539WAT     H146859   6.776   6.305   1.664
15539WAT     H246860   6.901   6.411   1.660
15540WAT      O46861   6.859   8.907   0.273
15540WAT     H146862   6.828   8.877   0.183
15540WAT     H246863   6.878   8.827   0.331
15541WAT      O46864   5.607   4.591   6.129
15541WAT     H146865   5.556   4.547   6.055
15541WAT     H246866   5.544   4.618   6.202
15542WAT      O46867   7.565   8.554   4.053
15542WAT     H146868   7.529   8.477   4.001
15542WAT     H246869   7.495   8.586   4.117
15543WAT      O46870   8.881   3.607   2.463
15543WAT     H146871   8.829   3.523   2.478
15543WAT     H246872   8.910   3.645   2.551
15544WAT      O46873   3.665   3.934   6.424
15544WAT     H146874   3.604   3.957   6.500
15544WAT     H246875   3.670   4.012   6.361
15545WAT      O46876   1.907   0.110   9.295
15545WAT     H146877   1.862   0.122   9.206
15545WAT     H246878   2.005   0.124   9.284
15546WAT      O46879   7.478   1.319   7.386
15546WAT     H146880   7.443   1.374   7.310
15546WAT     H246881   7.557   1.366   7.427
15547WAT      O46882   4.403   0.932   8.332
15547WAT     H146883   4.326   0.982   8.372
15547WAT     H246884   4.488   0.974   8.361
15548WAT      O46885   2.140   6.983   2.737
15548WAT     H146886   2.064   6.960   2.799
15548WAT     H246887   2.159   7.081   2.742
15549WAT      O46888   7.421   2.183   1.886
15549WAT     H146889   7.325   2.201   1.905
15549WAT     H246890   7.466   2.266   1.855
15550WAT      O46891   0.400   9.135   4.731
15550WAT     H146892   0.323   9.197   4.713
15550WAT     H246893   0.437   9.103   4.644
15551WAT      O46894   5.731   4.344   3.627
15551WAT     H146895   5.789   4.391   3.561
15551WAT     H246896   5.776   4.261   3.659
15552WAT      O46897   9.726   5.592   7.327
15552WAT     H146898   9.791   5.666   7.309
15552WAT     H246899   9.733   5.564   7.423
15553WAT      O46900   2.208   3.065   5.321
15553WAT     H146901   2.234   3.049   5.226
15553WAT     H246902   2.249   3.151   5.353
15554WAT      O46903   6.176   1.934   2.130
15554WAT     H146904   6.160   1.836   2.141
15554WAT     H246905   6.113   1.971   2.061
15555WAT      O46906   3.958   1.154   8.481
15555WAT     H146907   3.864   1.153   8.517
15555WAT     H246908   3.968   1.229   8.416
15556WAT      O46909   0.574   5.553   0.609
15556WAT     H146910   0.599   5.639   0.654
15556WAT     H246911   0.504   5.571   0.540
15557WAT      O46912   7.843   2.601   9.800
15557WAT     H146913   7.815   2.667   9.730
15557WAT     H246914   7.872   2.516   9.756
15558WAT      O46915   6.923   3.901   7.372
15558WAT     H146916   6.979   3.837   7.319
15558WAT     H246917   6.966   3.991   7.371
15559WAT      O46918   0.334   6.567   7.132
15559WAT     H146919   0.241   6.576   7.099
15559WAT     H246920   0.370   6.657   7.157
15560WAT      O46921   4.905   7.147   1.769
15560WAT     H146922   4.896   7.225   1.706
15560WAT     H246923   4.820   7.093   1.767
15561WAT      O46924   7.930   1.080   4.175
15561WAT     H146925   7.849   1.133   4.200
15561WAT     H246926   7.907   0.983   4.172
15562WAT      O46927   2.081   8.017   9.017
15562WAT     H146928   2.090   7.956   9.095
15562WAT     H246929   2.012   7.981   8.954
15563WAT      O46930   0.888   1.606   6.796
15563WAT     H146931   0.793   1.590   6.821
15563WAT     H246932   0.895   1.617   6.696
15564WAT      O46933   8.760   7.495   9.822
15564WAT     H146934   8.763   7.406   9.869
15564WAT     H246935   8.722   7.564   9.883
15565WAT      O46936   3.544   8.229   5.111
15565WAT     H146937   3.491   8.245   5.194
15565WAT     H246938   3.629   8.181   5.134
15566WAT      O46939   1.141   9.767   5.686
15566WAT     H146940   1.054   9.818   5.693
15566WAT     H246941   1.124   9.679   5.642
15567WAT      O46942   0.067   6.080   4.979
15567WAT     H146943   0.121   6.163   4.987
15567WAT     H246944  -0.024   6.102   4.943
15568WAT      O46945   3.827   8.089   9.859
15568WAT     H146946   3.823   8.091   9.759
15568WAT     H246947   3.758   8.024   9.893
15569WAT      O46948   7.525   7.573   9.297
15569WAT     H146949   7.510   7.672   9.292
15569WAT     H246950   7.439   7.527   9.319
15570WAT      O46951   4.925   6.538   3.603
15570WAT     H146952   4.833   6.522   3.567
15570WAT     H246953   4.991   6.531   3.529
15571WAT      O46954   6.306   2.693   2.537
15571WAT     H146955   6.286   2.608   2.585
15571WAT     H246956   6.221   2.742   2.519
15572WAT      O46957   9.606   3.417   0.682
15572WAT     H146958   9.632   3.508   0.714
15572WAT     H246959   9.528   3.425   0.619
15573WAT      O46960   1.179   0.142   4.453
15573WAT     H146961   1.159   0.234   4.420
15573WAT     H246962   1.134   0.129   4.542
15574WAT      O46963   6.972   0.579   2.951
15574WAT     H146964   6.974   0.498   3.009
15574WAT     H246965   6.985   0.661   3.008
15575WAT      O46966   8.544   1.369   6.190
15575WAT     H146967   8.539   1.363   6.289
15575WAT     H246968   8.484   1.442   6.158
15576WAT      O46969   4.985   1.263   4.894
15576WAT     H146970   4.952   1.267   4.988
15576WAT     H246971   5.080   1.294   4.891
15577WAT      O46972   1.196   7.147   1.379
15577WAT     H146973   1.260   7.191   1.316
15577WAT     H246974   1.130   7.093   1.328
15578WAT      O46975   7.843   2.837   4.562
15578WAT     H146976   7.755   2.849   4.608
15578WAT     H246977   7.902   2.915   4.581
15579WAT      O46978   6.265   0.252   3.006
15579WAT     H146979   6.184   0.279   3.059
15579WAT     H246980   6.299   0.165   3.042
15580WAT      O46981   3.052   9.809   3.475
15580WAT     H146982   3.089   9.726   3.517
15580WAT     H246983   3.031   9.876   3.546
15581WAT      O46984   5.162   2.831   4.869
15581WAT     H146985   5.071   2.806   4.903
15581WAT     H246986   5.183   2.925   4.896
15582WAT      O46987   4.126   2.989   8.511
15582WAT     H146988   4.101   3.051   8.585
15582WAT     H246989   4.221   2.960   8.523
15583WAT      O46990   7.414   8.937   5.851
15583WAT     H146991   7.388   8.842   5.837
15583WAT     H246992   7.415   8.957   5.949
15584WAT      O46993   6.796   5.059   4.144
15584WAT     H146994   6.881   5.067   4.195
15584WAT     H246995   6.724   5.021   4.203
15585WAT      O46996   3.841   3.453   7.529
15585WAT     H146997   3.862   3.550   7.512
15585WAT     H246998   3.761   3.447   7.588
15586WAT      O46999   1.114   3.088   7.388
15586WAT     H147000   1.190   3.125   7.441
15586WAT     H247001   1.056   3.032   7.447
15587WAT      O47002   3.059   0.231   4.520
15587WAT     H147003   3.144   0.280   4.501
15587WAT     H247004   3.016   0.203   4.434
15588WAT      O47005   0.504   0.460   7.181
15588WAT     H147006   0.406   0.443   7.193
15588WAT     H247007   0.525   0.554   7.207
15589WAT      O47008   3.033   2.504   5.939
15589WAT     H147009   3.103   2.558   5.891
15589WAT     H247010   3.063   2.409   5.944
15590WAT      O47011   0.635   5.860   1.192
15590WAT     H147012   0.662   5.889   1.284
15590WAT     H247013   0.536   5.846   1.190
15591WAT      O47014   6.138   8.981   0.316
15591WAT     H147015   6.214   8.920   0.340
15591WAT     H247016   6.149   9.013   0.222
15592WAT      O47017   1.626   3.827   9.715
15592WAT     H147018   1.565   3.776   9.775
15592WAT     H247019   1.721   3.807   9.739
15593WAT      O47020   3.192   5.143   3.100
15593WAT     H147021   3.268   5.192   3.057
15593WAT     H247022   3.213   5.127   3.197
15594WAT      O47023   4.318   8.736   1.093
15594WAT     H147024   4.360   8.646   1.092
15594WAT     H247025   4.303   8.767   0.999
15595WAT      O47026   3.078   4.455   4.024
15595WAT     H147027   3.119   4.543   4.045
15595WAT     H247028   3.086   4.438   3.925
15596WAT      O47029   9.379   7.895   3.266
15596WAT     H147030   9.303   7.837   3.296
15596WAT     H247031   9.436   7.917   3.345
15597WAT      O47032   7.890   2.087   4.604
15597WAT     H147033   7.913   2.010   4.664
15597WAT     H247034   7.810   2.064   4.549
15598WAT      O47035   7.881   1.860   0.620
15598WAT     H147036   7.896   1.767   0.587
15598WAT     H247037   7.784   1.875   0.636
15599WAT      O47038   1.106   9.264   5.647
15599WAT     H147039   1.142   9.208   5.721
15599WAT     H247040   1.017   9.227   5.617
15600WAT      O47041   6.086   5.155   0.172
15600WAT     H147042   5.987   5.168   0.166
15600WAT     H247043   6.132   5.212   0.104
15601WAT      O47044   5.213   4.362   1.761
15601WAT     H147045   5.158   4.434   1.804
15601WAT     H247046   5.179   4.273   1.790
15602WAT      O47047   4.024   6.690   1.429
15602WAT     H147048   4.095   6.748   1.390
15602WAT     H247049   4.007   6.612   1.369
15603WAT      O47050   4.034   3.572   0.275
15603WAT     H147051   4.059   3.650   0.333
15603WAT     H247052   3.995   3.606   0.190
15604WAT      O47053   2.099   2.858   1.054
15604WAT     H147054   2.038   2.801   0.999
15604WAT     H247055   2.180   2.882   1.000
15605WAT      O47056   8.089   8.992   0.155
15605WAT     H147057   8.061   8.949   0.070
15605WAT     H247058   8.137   8.926   0.212
15606WAT      O47059   6.866   8.342   2.656
15606WAT     H147060   6.957   8.379   2.671
15606WAT     H247061   6.873   8.250   2.617
15607WAT      O47062   6.273   9.837   4.701
15607WAT     H147063   6.213   9.799   4.631
15607WAT     H247064   6.266   9.936   4.700
15608WAT      O47065   6.834   7.591   9.679
15608WAT     H147066   6.774   7.531   9.732
15608WAT     H247067   6.779   7.658   9.629
15609WAT      O47068   9.621   5.752   1.831
15609WAT     H147069   9.618   5.839   1.782
15609WAT     H247070   9.716   5.731   1.856
15610WAT      O47071   6.822   8.442   8.669
15610WAT     H147072   6.810   8.362   8.609
15610WAT     H247073   6.733   8.475   8.698
15611WAT      O47074   5.145   3.355   0.275
15611WAT     H147075   5.188   3.444   0.291
15611WAT     H247076   5.197   3.305   0.206
15612WAT      O47077   4.674   6.728   1.887
15612WAT     H147078   4.632   6.772   1.966
15612WAT     H247079   4.673   6.629   1.900
15613WAT      O47080   7.726   8.321   3.149
15613WAT     H147081   7.821   8.335   3.119
15613WAT     H247082   7.678   8.408   3.148
15614WAT      O47083   0.015   0.296   6.926
15614WAT     H147084  -0.038   0.358   6.984
15614WAT     H247085   0.051   0.348   6.848
15615WAT      O47086   5.779   7.519   2.679
15615WAT     H147087   5.788   7.423   2.653
15615WAT     H247088   5.761   7.574   2.597
15616WAT      O47089   3.407   4.478   1.560
15616WAT     H147090   3.438   4.428   1.480
15616WAT     H247091   3.399   4.575   1.538
15617WAT      O47092   8.142   2.755   7.637
15617WAT     H147093   8.113   2.748   7.732
15617WAT     H247094   8.111   2.675   7.586
15618WAT      O47095   5.371   4.931   8.316
15618WAT     H147096   5.278   4.935   8.280
15618WAT     H247097   5.368   4.908   8.413
15619WAT      O47098   3.343   4.101   7.869
15619WAT     H147099   3.261   4.155   7.888
15619WAT     H247100   3.337   4.013   7.916
15620WAT      O47101   7.036   6.000   5.982
15620WAT     H147102   7.020   6.080   5.925
15620WAT     H247103   7.134   5.990   5.999
15621WAT      O47104   5.810   3.212   2.556
15621WAT     H147105   5.842   3.250   2.642
15621WAT     H247106   5.772   3.121   2.572
15622WAT      O47107   0.838   0.866   2.461
15622WAT     H147108   0.755   0.879   2.516
15622WAT     H247109   0.813   0.870   2.364
15623WAT      O47110   3.611   0.398   5.106
15623WAT     H147111   3.696   0.346   5.103
15623WAT     H247112   3.624   0.486   5.060
15624WAT      O47113   8.442   7.453   9.375
15624WAT     H147114   8.537   7.468   9.349
15624WAT     H247115   8.416   7.359   9.356
15625WAT      O47116   3.990   7.841   9.161
15625WAT     H147117   3.931   7.775   9.209
15625WAT     H247118   3.933   7.905   9.109
15626WAT      O47119   7.069   8.903   3.410
15626WAT     H147120   7.134   8.927   3.482
15626WAT     H247121   7.030   8.987   3.371
15627WAT      O47122   1.164   5.507   6.055
15627WAT     H147123   1.150   5.532   6.151
15627WAT     H247124   1.208   5.582   6.007
15628WAT      O47125   5.194   1.613   8.983
15628WAT     H147126   5.145   1.624   8.896
15628WAT     H247127   5.168   1.526   9.025
15629WAT      O47128   4.073   0.086   7.939
15629WAT     H147129   4.162   0.120   7.969
15629WAT     H247130   4.016   0.067   8.019
15630WAT      O47131   3.867   7.949   2.891
15630WAT     H147132   3.859   8.001   2.976
15630WAT     H247133   3.912   7.861   2.910
15631WAT      O47134   4.747   2.062   1.092
15631WAT     H147135   4.813   1.987   1.099
15631WAT     H247136   4.685   2.044   1.016
15632WAT      O47137   1.744   5.794   0.587
15632WAT     H147138   1.685   5.789   0.668
15632WAT     H247139   1.812   5.866   0.600
15633WAT      O47140   1.183   7.032   3.711
15633WAT     H147141   1.175   7.060   3.615
15633WAT     H247142   1.127   6.951   3.727
15634WAT      O47143   2.462   7.140   7.861
15634WAT     H147144   2.392   7.167   7.926
15634WAT     H247145   2.499   7.221   7.816
15635WAT      O47146   5.508   7.664   0.106
15635WAT     H147147   5.583   7.709   0.058
15635WAT     H247148   5.430   7.652   0.045
15636WAT      O47149   6.662   7.042   3.555
15636WAT     H147150   6.664   6.970   3.487
15636WAT     H247151   6.742   7.101   3.544
15637WAT      O47152   7.345   4.824   2.835
15637WAT     H147153   7.379   4.913   2.864
15637WAT     H247154   7.253   4.833   2.797
15638WAT      O47155   9.866   3.837   0.320
15638WAT     H147156   9.945   3.806   0.267
15638WAT     H247157   9.810   3.757   0.345
15639WAT      O47158   6.556   7.850   2.706
15639WAT     H147159   6.535   7.908   2.785
15639WAT     H247160   6.573   7.756   2.737
15640WAT      O47161   9.623   8.712   3.430
15640WAT     H147162   9.592   8.676   3.518
15640WAT     H247163   9.658   8.805   3.443
15641WAT      O47164   7.555   5.886   6.158
15641WAT     H147165   7.592   5.941   6.233
15641WAT     H247166   7.627   5.871   6.090
15642WAT      O47167   6.369   6.386   0.488
15642WAT     H147168   6.464   6.367   0.464
15642WAT     H247169   6.346   6.341   0.574
15643WAT      O47170   5.818   0.193   3.231
15643WAT     H147171   5.810   0.204   3.330
15643WAT     H247172   5.837   0.097   3.209
15644WAT      O47173   1.224   8.508   8.522
15644WAT     H147174   1.159   8.435   8.544
15644WAT     H247175   1.183   8.596   8.545
15645WAT      O47176   8.231   6.819   3.474
15645WAT     H147177   8.190   6.759   3.543
15645WAT     H247178   8.283   6.764   3.409
15646WAT      O47179   9.663   8.281   4.535
15646WAT     H147180   9.586   8.219   4.526
15646WAT     H247181   9.670   8.338   4.453
15647WAT      O47182   1.638   3.117   3.450
15647WAT     H147183   1.660   3.143   3.356
15647WAT     H247184   1.652   3.018   3.461
15648WAT      O47185   1.377   8.502   2.962
15648WAT     H147186   1.280   8.484   2.945
15648WAT     H247187   1.425   8.513   2.874
15649WAT      O47188   8.597   3.801   3.121
15649WAT     H147189   8.509   3.848   3.130
15649WAT     H247190   8.597   3.744   3.039
15650WAT      O47191   4.326   7.704   8.088
15650WAT     H147192   4.305   7.801   8.072
15650WAT     H247193   4.402   7.697   8.153
15651WAT      O47194   0.565   2.466   4.102
15651WAT     H147195   0.617   2.432   4.180
15651WAT     H247196   0.588   2.563   4.086
15652WAT      O47197   5.741   5.254   6.208
15652WAT     H147198   5.709   5.207   6.126
15652WAT     H247199   5.840   5.261   6.205
15653WAT      O47200   1.621   2.365   6.765
15653WAT     H147201   1.593   2.320   6.680
15653WAT     H247202   1.627   2.296   6.838
15654WAT      O47203   3.684   5.452   7.592
15654WAT     H147204   3.758   5.435   7.658
15654WAT     H247205   3.597   5.459   7.641
15655WAT      O47206   3.996   5.582   0.806
15655WAT     H147207   3.900   5.583   0.830
15655WAT     H247208   4.023   5.673   0.772
15656WAT      O47209   5.686   4.957   8.570
15656WAT     H147210   5.620   4.974   8.643
15656WAT     H247211   5.671   4.865   8.533
15657WAT      O47212   3.467   3.365   8.316
15657WAT     H147213   3.449   3.454   8.357
15657WAT     H247214   3.548   3.324   8.358
15658WAT      O47215   0.945   0.369   6.453
15658WAT     H147216   0.950   0.277   6.414
15658WAT     H247217   0.849   0.394   6.465
15659WAT      O47218   1.333   4.762   3.228
15659WAT     H147219   1.303   4.779   3.134
15659WAT     H247220   1.407   4.695   3.229
15660WAT      O47221   4.363   3.301   0.986
15660WAT     H147222   4.305   3.263   0.914
15660WAT     H247223   4.454   3.260   0.981
15661WAT      O47224   7.367   2.610   4.435
15661WAT     H147225   7.301   2.634   4.506
15661WAT     H247226   7.415   2.526   4.460
15662WAT      O47227   1.502   1.457   8.728
15662WAT     H147228   1.455   1.378   8.688
15662WAT     H247229   1.491   1.536   8.667
15663WAT      O47230   9.079   6.695   6.193
15663WAT     H147231   9.111   6.785   6.164
15663WAT     H247232   9.095   6.629   6.119
15664WAT      O47233   6.400   2.110   1.997
15664WAT     H147234   6.378   2.042   2.066
15664WAT     H247235   6.445   2.066   1.919
15665WAT      O47236   7.382   6.949   0.869
15665WAT     H147237   7.288   6.975   0.845
15665WAT     H247238   7.391   6.947   0.969
15666WAT      O47239   7.053   6.379   5.563
15666WAT     H147240   7.080   6.406   5.655
15666WAT     H247241   7.029   6.460   5.510
15667WAT      O47242   4.818   5.872   7.360
15667WAT     H147243   4.888   5.928   7.404
15667WAT     H247244   4.729   5.894   7.399
15668WAT      O47245   2.211   7.441   5.508
15668WAT     H147246   2.232   7.456   5.411
15668WAT     H247247   2.292   7.460   5.563
15669WAT      O47248   9.237   4.883   8.045
15669WAT     H147249   9.165   4.847   8.104
15669WAT     H247250   9.203   4.961   7.993
15670WAT      O47251   8.707   1.489   2.544
15670WAT     H147252   8.696   1.586   2.567
15670WAT     H247253   8.722   1.436   2.627
15671WAT      O47254   8.400   0.741   8.958
15671WAT     H147255   8.407   0.714   8.862
15671WAT     H247256   8.446   0.673   9.015
15672WAT      O47257   4.329   2.083   3.007
15672WAT     H147258   4.297   2.177   3.004
15672WAT     H247259   4.419   2.079   3.050
15673WAT      O47260   2.824   2.525   1.177
15673WAT     H147261   2.744   2.478   1.141
15673WAT     H247262   2.800   2.572   1.262
15674WAT      O47263   9.183   8.462   6.899
15674WAT     H147264   9.175   8.364   6.882
15674WAT     H247265   9.107   8.510   6.853
15675WAT      O47266   5.591   6.707   2.154
15675WAT     H147267   5.593   6.768   2.075
15675WAT     H247268   5.498   6.670   2.165
15676WAT      O47269   7.820   5.000   7.575
15676WAT     H147270   7.858   5.092   7.579
15676WAT     H247271   7.870   4.946   7.507
15677WAT      O47272   8.804   5.922   2.016
15677WAT     H147273   8.762   5.982   1.949
15677WAT     H247274   8.751   5.837   2.024
15678WAT      O47275   9.858   1.603   1.698
15678WAT     H147276   9.887   1.620   1.792
15678WAT     H247277   9.916   1.532   1.657
15679WAT      O47278   5.381   2.054   4.541
15679WAT     H147279   5.382   2.088   4.635
15679WAT     H247280   5.364   1.956   4.541
15680WAT      O47281   8.590   4.349   8.159
15680WAT     H147282   8.647   4.372   8.080
15680WAT     H247283   8.593   4.424   8.225
15681WAT      O47284   7.915   0.460   9.636
15681WAT     H147285   7.918   0.488   9.540
15681WAT     H247286   7.820   0.465   9.669
15682WAT      O47287   7.085   5.078   9.566
15682WAT     H147288   7.176   5.085   9.608
15682WAT     H247289   7.093   5.089   9.467
15683WAT      O47290   9.403   6.897   7.318
15683WAT     H147291   9.358   6.809   7.331
15683WAT     H247292   9.357   6.947   7.244
15684WAT      O47293   0.678   0.761   7.698
15684WAT     H147294   0.701   0.665   7.679
15684WAT     H247295   0.617   0.795   7.628
15685WAT      O47296   0.914   0.071   1.506
15685WAT     H147297   0.921   0.010   1.427
15685WAT     H247298   1.006   0.096   1.537
15686WAT      O47299   1.975   1.468   5.017
15686WAT     H147300   1.905   1.457   5.087
15686WAT     H247301   1.936   1.513   4.937
15687WAT      O47302   8.119   2.127   3.843
15687WAT     H147303   8.039   2.110   3.785
15687WAT     H247304   8.113   2.219   3.882
15688WAT      O47305   9.213   8.164   2.602
15688WAT     H147306   9.261   8.239   2.649
15688WAT     H247307   9.236   8.078   2.647
15689WAT      O47308   8.885   4.138   0.014
15689WAT     H147309   8.949   4.062   0.022
15689WAT     H247310   8.934   4.224   0.028
15690WAT      O47311   5.598   7.378   5.398
15690WAT     H147312   5.573   7.329   5.482
15690WAT     H247313   5.677   7.436   5.417
15691WAT      O47314   8.830   3.752   4.317
15691WAT     H147315   8.887   3.810   4.375
15691WAT     H247316   8.798   3.804   4.238
15692WAT      O47317   3.456   3.986   2.933
15692WAT     H147318   3.383   4.053   2.947
15692WAT     H247319   3.516   3.985   3.013
15693WAT      O47320   2.283   4.639   8.953
15693WAT     H147321   2.263   4.589   8.869
15693WAT     H247322   2.382   4.653   8.961
15694WAT      O47323   8.857   3.525   3.674
15694WAT     H147324   8.763   3.535   3.708
15694WAT     H247325   8.856   3.527   3.574
15695WAT      O47326   4.646   0.847   2.450
15695WAT     H147327   4.661   0.749   2.434
15695WAT     H247328   4.729   0.898   2.426
15696WAT      O47329   9.388   1.857   7.255
15696WAT     H147330   9.305   1.878   7.308
15696WAT     H247331   9.438   1.783   7.300
15697WAT      O47332   9.623   1.158   7.964
15697WAT     H147333   9.651   1.100   7.888
15697WAT     H247334   9.654   1.117   8.050
15698WAT      O47335   4.585   5.731   2.994
15698WAT     H147336   4.543   5.754   2.906
15698WAT     H247337   4.611   5.635   2.994
15699WAT      O47338   9.352   0.945   3.473
15699WAT     H147339   9.420   0.914   3.539
15699WAT     H247340   9.260   0.919   3.503
15700WAT      O47341   7.066   2.945   9.547
15700WAT     H147342   7.127   2.911   9.476
15700WAT     H247343   7.111   3.021   9.595
15701WAT      O47344   5.513   1.680   0.044
15701WAT     H147345   5.490   1.670  -0.053
15701WAT     H247346   5.435   1.653   0.100
15702WAT      O47347   3.966   7.364   1.685
15702WAT     H147348   3.997   7.456   1.659
15702WAT     H247349   3.893   7.371   1.753
15703WAT      O47350   2.665   0.634   7.665
15703WAT     H147351   2.573   0.603   7.686
15703WAT     H247352   2.708   0.571   7.600
15704WAT      O47353   0.632   2.998   3.741
15704WAT     H147354   0.568   3.024   3.814
15704WAT     H247355   0.628   3.067   3.669
15705WAT      O47356  -0.001   8.371   8.853
15705WAT     H147357  -0.029   8.389   8.947
15705WAT     H247358   0.098   8.356   8.850
15706WAT      O47359   3.353   0.646   1.259
15706WAT     H147360   3.358   0.735   1.214
15706WAT     H247361   3.325   0.658   1.354
15707WAT      O47362   8.941   1.516   8.595
15707WAT     H147363   9.023   1.470   8.560
15707WAT     H247364   8.943   1.516   8.695
15708WAT      O47365   6.858   6.224   8.434
15708WAT     H147366   6.897   6.215   8.343
15708WAT     H247367   6.799   6.304   8.437
15709WAT      O47368   7.861   0.898   2.715
15709WAT     H147369   7.881   0.809   2.674
15709WAT     H247370   7.891   0.898   2.810
15710WAT      O47371   2.723   8.771   5.704
15710WAT     H147372   2.786   8.696   5.723
15710WAT     H247373   2.712   8.827   5.786
15711WAT      O47374   7.260   3.919   3.904
15711WAT     H147375   7.273   4.003   3.850
15711WAT     H247376   7.184   3.931   3.967
15712WAT      O47377   8.534   5.653   2.229
15712WAT     H147378   8.536   5.566   2.279
15712WAT     H247379   8.509   5.727   2.292
15713WAT      O47380   4.201   6.194   7.163
15713WAT     H147381   4.271   6.177   7.094
15713WAT     H247382   4.110   6.179   7.123
15714WAT      O47383   2.547   0.156   8.373
15714WAT     H147384   2.474   0.215   8.408
15714WAT     H247385   2.541   0.066   8.416
15715WAT      O47386   5.054   0.033   1.794
15715WAT     H147387   5.060  -0.025   1.876
15715WAT     H247388   4.961   0.068   1.786
15716WAT      O47389   7.047   8.097   8.467
15716WAT     H147390   7.021   8.039   8.544
15716WAT     H247391   7.136   8.139   8.485
15717WAT      O47392   2.495   1.714   5.442
15717WAT     H147393   2.461   1.682   5.353
15717WAT     H247394   2.420   1.757   5.493
15718WAT      O47395   5.611   6.517   0.872
15718WAT     H147396   5.654   6.459   0.940
15718WAT     H247397   5.614   6.612   0.902
15719WAT      O47398   1.420   1.883   0.252
15719WAT     H147399   1.432   1.915   0.158
15719WAT     H247400   1.323   1.888   0.277
15720WAT      O47401   8.944   3.702   6.812
15720WAT     H147402   8.979   3.692   6.906
15720WAT     H247403   8.953   3.797   6.783
15721WAT      O47404   7.559   5.758   8.592
15721WAT     H147405   7.595   5.851   8.590
15721WAT     H247406   7.473   5.754   8.540
15722WAT      O47407   8.348   3.624   1.460
15722WAT     H147408   8.436   3.639   1.505
15722WAT     H247409   8.323   3.705   1.407
15723WAT      O47410   7.515   0.109   6.281
15723WAT     H147411   7.448   0.043   6.250
15723WAT     H247412   7.499   0.130   6.378
15724WAT      O47413   8.935   2.846   0.723
15724WAT     H147414   8.939   2.812   0.629
15724WAT     H247415   9.028   2.868   0.755
15725WAT      O47416   8.906   0.212   9.789
15725WAT     H147417   8.943   0.166   9.709
15725WAT     H247418   8.911   0.151   9.868
15726WAT      O47419   1.837   8.704   5.189
15726WAT     H147420   1.811   8.660   5.104
15726WAT     H247421   1.761   8.700   5.254
15727WAT      O47422   7.173   8.919   7.363
15727WAT     H147423   7.150   8.916   7.461
15727WAT     H247424   7.255   8.975   7.351
15728WAT      O47425   5.962   4.708   8.739
15728WAT     H147426   5.942   4.782   8.803
15728WAT     H247427   5.876   4.666   8.709
15729WAT      O47428   7.436   0.770   3.537
15729WAT     H147429   7.426   0.773   3.437
15729WAT     H247430   7.422   0.677   3.569
15730WAT      O47431   8.464   3.858   8.789
15730WAT     H147432   8.367   3.836   8.780
15730WAT     H247433   8.481   3.898   8.879
15731WAT      O47434   5.604   7.665   0.779
15731WAT     H147435   5.515   7.630   0.806
15731WAT     H247436   5.615   7.758   0.812
15732WAT      O47437   5.521   3.319   0.997
15732WAT     H147438   5.579   3.335   1.076
15732WAT     H247439   5.430   3.292   1.028
15733WAT      O47440   9.367   6.896   1.762
15733WAT     H147441   9.375   6.856   1.854
15733WAT     H247442   9.271   6.902   1.737
15734WAT      O47443   3.562   4.666   1.002
15734WAT     H147444   3.502   4.595   1.039
15734WAT     H247445   3.634   4.686   1.068
15735WAT      O47446   5.796   8.297   4.523
15735WAT     H147447   5.790   8.239   4.442
15735WAT     H247448   5.836   8.244   4.598
15736WAT      O47449   5.856   7.715   0.637
15736WAT     H147450   5.871   7.763   0.550
15736WAT     H247451   5.758   7.697   0.647
15737WAT      O47452   4.039   1.557   9.114
15737WAT     H147453   3.964   1.507   9.070
15737WAT     H247454   4.066   1.633   9.056
15738WAT      O47455   0.407   1.158   1.172
15738WAT     H147456   0.397   1.258   1.169
15738WAT     H247457   0.480   1.130   1.110
15739WAT      O47458   2.453   5.717   4.030
15739WAT     H147459   2.514   5.773   3.973
15739WAT     H247460   2.502   5.688   4.112
15740WAT      O47461   9.241   6.332   4.337
15740WAT     H147462   9.146   6.301   4.350
15740WAT     H247463   9.299   6.253   4.315
15741WAT      O47464   4.067   5.319   5.827
15741WAT     H147465   4.108   5.385   5.890
15741WAT     H247466   3.976   5.350   5.800
15742WAT      O47467   9.488   0.020   8.168
15742WAT     H147468   9.538  -0.012   8.088
15742WAT     H247469   9.400   0.058   8.140
15743WAT      O47470   0.357   5.685   9.283
15743WAT     H147471   0.444   5.730   9.300
15743WAT     H247472   0.283   5.753   9.285
15744WAT      O47473   8.515   7.672   7.190
15744WAT     H147474   8.509   7.696   7.093
15744WAT     H247475   8.457   7.734   7.243
15745WAT      O47476   7.278   5.146   0.114
15745WAT     H147477   7.259   5.244   0.112
15745WAT     H247478   7.358   5.129   0.173
15746WAT      O47479   1.615   5.125   3.393
15746WAT     H147480   1.584   5.116   3.488
15746WAT     H247481   1.692   5.064   3.377
15747WAT      O47482   8.566   8.392   8.062
15747WAT     H147483   8.470   8.372   8.040
15747WAT     H247484   8.588   8.485   8.033
15748WAT      O47485   6.756   0.235   9.493
15748WAT     H147486   6.766   0.272   9.585
15748WAT     H247487   6.659   0.218   9.475
15749WAT      O47488   8.510   1.058   6.222
15749WAT     H147489   8.455   1.136   6.194
15749WAT     H247490   8.600   1.064   6.179
15750WAT      O47491   0.031   4.311   8.938
15750WAT     H147492   0.034   4.244   8.865
15750WAT     H247493   0.111   4.371   8.932
15751WAT      O47494   4.814   2.876   0.932
15751WAT     H147495   4.818   2.898   0.834
15751WAT     H247496   4.759   2.794   0.945
15752WAT      O47497   1.599   5.479   7.531
15752WAT     H147498   1.600   5.414   7.606
15752WAT     H247499   1.548   5.439   7.454
15753WAT      O47500   7.278   1.521   7.281
15753WAT     H147501   7.246   1.614   7.299
15753WAT     H247502   7.200   1.458   7.282
15754WAT      O47503   7.907   2.220   7.495
15754WAT     H147504   7.877   2.179   7.410
15754WAT     H247505   7.828   2.250   7.548
15755WAT      O47506   8.312   6.795   7.313
15755WAT     H147507   8.217   6.762   7.317
15755WAT     H247508   8.314   6.894   7.319
15756WAT      O47509   5.832   6.825   7.824
15756WAT     H147510   5.823   6.802   7.727
15756WAT     H247511   5.749   6.799   7.873
15757WAT      O47512   6.751   8.810   5.741
15757WAT     H147513   6.685   8.884   5.729
15757WAT     H247514   6.801   8.796   5.656
15758WAT      O47515   0.308   0.673   2.672
15758WAT     H147516   0.208   0.670   2.678
15758WAT     H247517   0.347   0.620   2.747
15759WAT      O47518   4.786   6.469   2.645
15759WAT     H147519   4.807   6.394   2.582
15759WAT     H247520   4.785   6.555   2.594
15760WAT      O47521   1.880   3.417   7.002
15760WAT     H147522   1.788   3.379   7.018
15760WAT     H247523   1.914   3.457   7.087
15761WAT      O47524   5.081   8.329   2.416
15761WAT     H147525   5.116   8.236   2.408
15761WAT     H247526   5.075   8.371   2.325
15762WAT      O47527   4.893   4.439   6.562
15762WAT     H147528   4.847   4.432   6.474
15762WAT     H247529   4.984   4.480   6.549
15763WAT      O47530   7.621   5.967   5.123
15763WAT     H147531   7.641   6.007   5.212
15763WAT     H247532   7.654   6.027   5.051
15764WAT      O47533   8.468   8.701   8.433
15764WAT     H147534   8.422   8.620   8.397
15764WAT     H247535   8.452   8.779   8.372
15765WAT      O47536   9.623   9.422   7.680
15765WAT     H147537   9.697   9.390   7.621
15765WAT     H247538   9.661   9.448   7.769
15766WAT      O47539   6.543   1.050   4.576
15766WAT     H147540   6.504   1.138   4.601
15766WAT     H247541   6.534   0.987   4.654
15767WAT      O47542   3.089   1.813   5.484
15767WAT     H147543   3.036   1.852   5.559
15767WAT     H247544   3.138   1.885   5.435
15768WAT      O47545   5.722   7.800   0.005
15768WAT     H147546   5.818   7.808   0.031
15768WAT     H247547   5.706   7.848  -0.081
15769WAT      O47548   1.014   7.163   8.301
15769WAT     H147549   1.032   7.065   8.295
15769WAT     H247550   1.014   7.203   8.209
15770WAT      O47551   9.430   1.225  -0.004
15770WAT     H147552   9.512   1.210   0.050
15770WAT     H247553   9.363   1.153   0.017
15771WAT      O47554   7.909   4.139   2.270
15771WAT     H147555   8.000   4.173   2.293
15771WAT     H247556   7.870   4.090   2.348
15772WAT      O47557   3.113   4.014   8.878
15772WAT     H147558   3.126   4.057   8.968
15772WAT     H247559   3.080   4.082   8.813
15773WAT      O47560   3.249   5.822   2.345
15773WAT     H147561   3.154   5.796   2.325
15773WAT     H247562   3.294   5.851   2.260
15774WAT      O47563   5.886   5.133   9.267
15774WAT     H147564   5.837   5.068   9.210
15774WAT     H247565   5.972   5.092   9.297
15775WAT      O47566   1.695   5.739   7.998
15775WAT     H147567   1.636   5.670   8.038
15775WAT     H247568   1.720   5.712   7.905
15776WAT      O47569   0.254   5.589   6.367
15776WAT     H147570   0.349   5.576   6.340
15776WAT     H247571   0.193   5.551   6.297
15777WAT      O47572   7.288   0.066   2.702
15777WAT     H147573   7.350  -0.011   2.685
15777WAT     H247574   7.250   0.059   2.794
15778WAT      O47575   0.755   0.979   6.525
15778WAT     H147576   0.764   1.061   6.469
15778WAT     H247577   0.677   0.988   6.587
15779WAT      O47578   5.543   0.062   1.611
15779WAT     H147579   5.610   0.020   1.549
15779WAT     H247580   5.579   0.059   1.704
15780WAT      O47581   7.063   8.177   4.819
15780WAT     H147582   7.076   8.177   4.720
15780WAT     H247583   7.112   8.255   4.858
15781WAT      O47584   8.703   3.221   7.518
15781WAT     H147585   8.644   3.188   7.444
15781WAT     H247586   8.648   3.238   7.600
15782WAT      O47587   3.514   5.147   5.056
15782WAT     H147588   3.564   5.134   5.142
15782WAT     H247589   3.500   5.059   5.012
15783WAT      O47590   7.655   0.244   3.348
15783WAT     H147591   7.621   0.334   3.374
15783WAT     H247592   7.587   0.175   3.372
15784WAT      O47593   0.361   3.670   3.959
15784WAT     H147594   0.264   3.692   3.969
15784WAT     H247595   0.370   3.574   3.933
15785WAT      O47596   5.471   6.106   7.198
15785WAT     H147597   5.469   6.137   7.293
15785WAT     H247598   5.379   6.084   7.168
15786WAT      O47599   1.924   4.098   5.735
15786WAT     H147600   2.006   4.048   5.707
15786WAT     H247601   1.950   4.192   5.761
15787WAT      O47602   7.154   6.147   5.413
15787WAT     H147603   7.200   6.174   5.328
15787WAT     H247604   7.106   6.226   5.451
15788WAT      O47605   3.410   4.666   5.844
15788WAT     H147606   3.500   4.706   5.828
15788WAT     H247607   3.353   4.731   5.894
15789WAT      O47608   2.052   2.533   6.010
15789WAT     H147609   2.075   2.599   5.939
15789WAT     H247610   1.999   2.578   6.082
15790WAT      O47611   8.865   3.870   0.715
15790WAT     H147612   8.768   3.878   0.735
15790WAT     H247613   8.896   3.951   0.666
15791WAT      O47614   4.748   5.328   0.789
15791WAT     H147615   4.789   5.419   0.793
15791WAT     H247616   4.732   5.304   0.693
15792WAT      O47617   5.788   8.683   8.026
15792WAT     H147618   5.862   8.643   8.079
15792WAT     H247619   5.814   8.688   7.930
15793WAT      O47620   3.252   8.945   1.391
15793WAT     H147621   3.329   9.007   1.379
15793WAT     H247622   3.270   8.859   1.343
15794WAT      O47623   8.083   2.088   1.890
15794WAT     H147624   8.132   2.173   1.912
15794WAT     H247625   8.090   2.025   1.967
15795WAT      O47626   7.973   8.904   4.954
15795WAT     H147627   8.071   8.909   4.975
15795WAT     H247628   7.929   8.840   5.017
15796WAT      O47629   6.299   0.327   3.320
15796WAT     H147630   6.272   0.245   3.269
15796WAT     H247631   6.221   0.360   3.374
15797WAT      O47632   0.131   3.372   3.661
15797WAT     H147633   0.219   3.326   3.649
15797WAT     H247634   0.063   3.329   3.601
15798WAT      O47635   7.839   9.593   5.870
15798WAT     H147636   7.835   9.507   5.819
15798WAT     H247637   7.900   9.582   5.948
15799WAT      O47638   5.175   5.963   8.118
15799WAT     H147639   5.202   5.934   8.026
15799WAT     H247640   5.255   5.998   8.166
15800WAT      O47641   3.177   0.679   9.726
15800WAT     H147642   3.167   0.589   9.770
15800WAT     H247643   3.091   0.729   9.733
15801WAT      O47644   1.262   4.147   8.758
15801WAT     H147645   1.341   4.106   8.805
15801WAT     H247646   1.180   4.093   8.780
15802WAT      O47647   3.349   9.645   2.787
15802WAT     H147648   3.370   9.554   2.753
15802WAT     H247649   3.305   9.637   2.877
15803WAT      O47650   8.075   3.235   4.098
15803WAT     H147651   8.085   3.139   4.124
15803WAT     H247652   8.165   3.272   4.074
15804WAT      O47653   7.518   1.215   1.347
15804WAT     H147654   7.584   1.276   1.305
15804WAT     H247655   7.491   1.251   1.436
15805WAT      O47656   0.766   7.608   0.015
15805WAT     H147657   0.833   7.660  -0.038
15805WAT     H247658   0.694   7.670   0.046
15806WAT      O47659   6.019   7.861   6.326
15806WAT     H147660   6.031   7.840   6.229
15806WAT     H247661   5.993   7.778   6.375
15807WAT      O47662   0.230   2.597   3.861
15807WAT     H147663   0.146   2.618   3.810
15807WAT     H247664   0.219   2.510   3.909
15808WAT      O47665   3.709   6.451   8.059
15808WAT     H147666   3.741   6.542   8.086
15808WAT     H247667   3.787   6.393   8.037
15809WAT      O47668   0.458   2.911   6.695
15809WAT     H147669   0.434   2.994   6.744
15809WAT     H247670   0.425   2.831   6.745
15810WAT      O47671   3.894   6.676   3.142
15810WAT     H147672   3.794   6.688   3.145
15810WAT     H247673   3.919   6.625   3.060
15811WAT      O47674   8.771   5.137   4.692
15811WAT     H147675   8.811   5.148   4.601
15811WAT     H247676   8.731   5.046   4.701
15812WAT      O47677   5.754   1.188   8.102
15812WAT     H147678   5.686   1.117   8.081
15812WAT     H247679   5.707   1.269   8.135
15813WAT      O47680   6.004   6.728   2.977
15813WAT     H147681   6.097   6.762   2.966
15813WAT     H247682   5.948   6.800   3.019
15814WAT      O47683   5.101   1.982   1.102
15814WAT     H147684   5.091   2.081   1.103
15814WAT     H247685   5.186   1.957   1.055
15815WAT      O47686   8.454   1.631   0.126
15815WAT     H147687   8.365   1.637   0.080
15815WAT     H247688   8.523   1.601   0.061
15816WAT      O47689   0.836   4.284   3.691
15816WAT     H147690   0.866   4.293   3.596
15816WAT     H247691   0.840   4.188   3.719
15817WAT      O47692   4.955   8.123   0.407
15817WAT     H147693   4.896   8.096   0.483
15817WAT     H247694   4.995   8.042   0.365
15818WAT      O47695   1.893   6.075   7.950
15818WAT     H147696   1.829   6.069   7.874
15818WAT     H247697   1.945   6.160   7.944
15819WAT      O47698   2.823   3.824   8.583
15819WAT     H147699   2.749   3.877   8.541
15819WAT     H247700   2.824   3.840   8.681
15820WAT      O47701   5.435   5.101   2.253
15820WAT     H147702   5.339   5.075   2.239
15820WAT     H247703   5.442   5.201   2.259
15821WAT      O47704   9.291   0.913   8.990
15821WAT     H147705   9.232   0.837   8.960
15821WAT     H247706   9.298   0.980   8.917
15822WAT      O47707   3.195   5.183   9.196
15822WAT     H147708   3.169   5.279   9.208
15822WAT     H247709   3.277   5.178   9.139
15823WAT      O47710   2.630   3.357   9.018
15823WAT     H147711   2.577   3.376   9.100
15823WAT     H247712   2.643   3.441   8.966
15824WAT      O47713   2.070   5.215   3.935
15824WAT     H147714   2.097   5.306   3.966
15824WAT     H247715   2.004   5.176   3.999
15825WAT      O47716   1.550   2.489   5.765
15825WAT     H147717   1.510   2.558   5.705
15825WAT     H247718   1.532   2.398   5.727
15826WAT      O47719   0.656   0.067   4.569
15826WAT     H147720   0.587   0.068   4.641
15826WAT     H247721   0.639  -0.011   4.508
15827WAT      O47722   3.847   8.029   8.253
15827WAT     H147723   3.919   8.099   8.250
15827WAT     H247724   3.780   8.054   8.323
15828WAT      O47725   7.167   9.776   6.565
15828WAT     H147726   7.235   9.766   6.638
15828WAT     H247727   7.212   9.782   6.477
15829WAT      O47728   8.180   5.877   0.856
15829WAT     H147729   8.182   5.805   0.787
15829WAT     H247730   8.260   5.936   0.845
15830WAT      O47731   2.187   5.921   0.299
15830WAT     H147732   2.169   5.824   0.287
15830WAT     H247733   2.285   5.937   0.306
15831WAT      O47734   1.695   0.753   9.182
15831WAT     H147735   1.738   0.829   9.134
15831WAT     H247736   1.739   0.667   9.155
15832WAT      O47737   6.188   5.349   9.878
15832WAT     H147738   6.238   5.304   9.804
15832WAT     H247739   6.195   5.448   9.866
15833WAT      O47740   7.010   8.280   0.952
15833WAT     H147741   7.068   8.350   0.993
15833WAT     H247742   7.017   8.196   1.005
15834WAT      O47743   6.916   2.811   6.952
15834WAT     H147744   6.961   2.867   7.021
15834WAT     H247745   6.817   2.812   6.967
15835WAT      O47746   7.291   2.503   7.231
15835WAT     H147747   7.255   2.479   7.142
15835WAT     H247748   7.216   2.523   7.294
15836WAT      O47749   1.794   0.211   8.232
15836WAT     H147750   1.774   0.113   8.222
15836WAT     H247751   1.767   0.259   8.148
15837WAT      O47752   8.789   7.321   4.373
15837WAT     H147753   8.780   7.408   4.324
15837WAT     H247754   8.867   7.326   4.436
15838WAT      O47755   7.065   1.069   7.173
15838WAT     H147756   7.125   1.018   7.112
15838WAT     H247757   6.973   1.031   7.169
15839WAT      O47758   3.774   5.813   1.800
15839WAT     H147759   3.874   5.818   1.791
15839WAT     H247760   3.740   5.743   1.737
15840WAT      O47761   1.931   5.201   7.986
15840WAT     H147762   1.925   5.158   8.076
15840WAT     H247763   1.863   5.274   7.980
15841WAT      O47764   0.223   0.975   3.379
15841WAT     H147765   0.199   0.920   3.459
15841WAT     H247766   0.209   1.072   3.398
15842WAT      O47767   9.348   5.689   5.443
15842WAT     H147768   9.345   5.598   5.485
15842WAT     H247769   9.404   5.684   5.360
15843WAT      O47770   3.927   2.063   6.122
15843WAT     H147771   3.979   1.982   6.094
15843WAT     H247772   3.873   2.041   6.203
15844WAT      O47773   0.634   9.141   1.776
15844WAT     H147774   0.724   9.124   1.817
15844WAT     H247775   0.616   9.072   1.705
15845WAT      O47776   0.848   5.563   6.223
15845WAT     H147777   0.793   5.515   6.155
15845WAT     H247778   0.869   5.501   6.298
15846WAT      O47779   1.272   8.242   6.679
15846WAT     H147780   1.310   8.312   6.739
15846WAT     H247781   1.283   8.269   6.584
15847WAT      O47782   7.172   7.858   8.659
15847WAT     H147783   7.212   7.805   8.734
15847WAT     H247784   7.073   7.861   8.669
15848WAT      O47785   1.796   8.844   2.883
15848WAT     H147786   1.840   8.883   2.964
15848WAT     H247787   1.830   8.891   2.801
15849WAT      O47788   8.693   6.400   3.554
15849WAT     H147789   8.748   6.402   3.470
15849WAT     H247790   8.753   6.397   3.634
15850WAT      O47791   5.054   3.784   0.678
15850WAT     H147792   5.051   3.802   0.580
15850WAT     H247793   5.131   3.724   0.698
15851WAT      O47794   8.085   0.790   1.375
15851WAT     H147795   8.038   0.743   1.450
15851WAT     H247796   8.028   0.865   1.342
15852WAT      O47797   8.112   1.311   1.588
15852WAT     H147798   8.105   1.211   1.581
15852WAT     H247799   8.205   1.336   1.611
15853WAT      O47800   5.583   7.257   0.289
15853WAT     H147801   5.583   7.265   0.190
15853WAT     H247802   5.499   7.212   0.319
15854WAT      O47803   2.116   2.641   3.059
15854WAT     H147804   2.078   2.715   3.115
15854WAT     H247805   2.042   2.582   3.028
15855WAT      O47806   6.666   9.509   0.648
15855WAT     H147807   6.699   9.513   0.742
15855WAT     H247808   6.566   9.511   0.647
15856WAT      O47809   2.340   6.448   9.573
15856WAT     H147810   2.333   6.409   9.665
15856WAT     H247811   2.329   6.547   9.578
15857WAT      O47812   6.096   5.676   2.683
15857WAT     H147813   6.128   5.603   2.624
15857WAT     H247814   6.064   5.638   2.770
15858WAT      O47815   6.815   4.754   9.828
15858WAT     H147816   6.892   4.803   9.789
15858WAT     H247817   6.806   4.776   9.925
15859WAT      O47818   7.280   0.762   2.336
15859WAT     H147819   7.208   0.693   2.345
15859WAT     H247820   7.369   0.716   2.329
15860WAT      O47821   0.513   2.519   0.161
15860WAT     H147822   0.510   2.609   0.205
15860WAT     H247823   0.605   2.503   0.125
15861WAT      O47824   9.557   0.852   5.854
15861WAT     H147825   9.633   0.801   5.815
15861WAT     H247826   9.560   0.947   5.821
15862WAT      O47827   3.194   4.910   6.285
15862WAT     H147828   3.283   4.923   6.327
15862WAT     H247829   3.185   4.816   6.253
15863WAT      O47830   7.466   1.915   5.749
15863WAT     H147831   7.521   1.979   5.802
15863WAT     H247832   7.457   1.948   5.655
15864WAT      O47833   0.479   4.125   2.178
15864WAT     H147834   0.549   4.057   2.198
15864WAT     H247835   0.426   4.143   2.261
15865WAT      O47836   5.966   1.100   8.918
15865WAT     H147837   6.007   1.018   8.878
15865WAT     H247838   5.923   1.077   9.005
15866WAT      O47839   2.780   3.941   9.286
15866WAT     H147840   2.878   3.941   9.267
15866WAT     H247841   2.765   3.921   9.383
15867WAT      O47842   5.082   9.432   3.512
15867WAT     H147843   5.116   9.490   3.586
15867WAT     H247844   4.983   9.441   3.504
15868WAT      O47845   3.689   4.356   5.009
15868WAT     H147846   3.776   4.375   4.963
15868WAT     H247847   3.705   4.346   5.107
15869WAT      O47848   6.839   8.946   1.356
15869WAT     H147849   6.823   9.044   1.367
15869WAT     H247850   6.752   8.897   1.361
15870WAT      O47851   8.955   9.332   3.786
15870WAT     H147852   8.953   9.363   3.691
15870WAT     H247853   8.863   9.335   3.824
15871WAT      O47854   8.308   5.604   5.958
15871WAT     H147855   8.388   5.601   6.018
15871WAT     H247856   8.337   5.589   5.863
15872WAT      O47857   8.990   9.457   1.373
15872WAT     H147858   8.900   9.458   1.331
15872WAT     H247859   9.000   9.538   1.432
15873WAT      O47860   9.122   4.564   6.297
15873WAT     H147861   9.149   4.660   6.303
15873WAT     H247862   9.072   4.548   6.212
15874WAT      O47863   3.338   8.035   7.038
15874WAT     H147864   3.424   8.084   7.050
15874WAT     H247865   3.285   8.040   7.122
15875WAT      O47866   7.569   4.649   5.261
15875WAT     H147867   7.495   4.588   5.289
15875WAT     H247868   7.545   4.744   5.284
15876WAT      O47869   8.276   7.358   6.796
15876WAT     H147870   8.359   7.413   6.780
15876WAT     H247871   8.280   7.318   6.888
15877WAT      O47872   6.653   5.372   8.168
15877WAT     H147873   6.640   5.381   8.069
15877WAT     H247874   6.705   5.288   8.187
15878WAT      O47875   4.603   4.075   1.698
15878WAT     H147876   4.555   4.080   1.786
15878WAT     H247877   4.670   4.000   1.701
15879WAT      O47878   5.906   0.483   7.118
15879WAT     H147879   5.835   0.464   7.186
15879WAT     H247880   5.986   0.427   7.138
15880WAT      O47881   9.495   4.456   6.586
15880WAT     H147882   9.587   4.461   6.624
15880WAT     H247883   9.483   4.529   6.519
15881WAT      O47884   2.772   1.571   1.405
15881WAT     H147885   2.758   1.523   1.318
15881WAT     H247886   2.850   1.531   1.453
15882WAT      O47887   4.260   0.415   1.908
15882WAT     H147888   4.192   0.355   1.865
15882WAT     H247889   4.352   0.388   1.878
15883WAT      O47890   6.416   4.275   5.020
15883WAT     H147891   6.471   4.350   4.984
15883WAT     H247892   6.374   4.303   5.107
15884WAT      O47893   0.158   8.275   7.322
15884WAT     H147894   0.249   8.305   7.351
15884WAT     H247895   0.155   8.175   7.320
15885WAT      O47896   4.737   5.362   4.508
15885WAT     H147897   4.823   5.414   4.503
15885WAT     H247898   4.661   5.422   4.484
15886WAT      O47899   6.090   5.591   9.712
15886WAT     H147900   6.008   5.647   9.706
15886WAT     H247901   6.110   5.551   9.622
15887WAT      O47902   5.933   9.518   8.909
15887WAT     H147903   6.002   9.448   8.890
15887WAT     H247904   5.917   9.523   9.008
15888WAT      O47905   7.879   4.784   3.834
15888WAT     H147906   7.973   4.790   3.802
15888WAT     H247907   7.874   4.721   3.912
15889WAT      O47908   3.679   0.651   7.475
15889WAT     H147909   3.629   0.572   7.439
15889WAT     H247910   3.616   0.727   7.488
15890WAT      O47911   2.042   6.724   9.101
15890WAT     H147912   2.015   6.687   9.189
15890WAT     H247913   1.960   6.740   9.045
15891WAT      O47914   5.213   8.587   6.837
15891WAT     H147915   5.162   8.626   6.913
15891WAT     H247916   5.150   8.562   6.763
15892WAT      O47917   3.034   7.129   5.317
15892WAT     H147918   3.008   7.185   5.396
15892WAT     H247919   3.121   7.084   5.336
15893WAT      O47920   5.784   7.262   2.869
15893WAT     H147921   5.805   7.234   2.775
15893WAT     H247922   5.688   7.290   2.874
15894WAT      O47923   2.335   3.489   2.660
15894WAT     H147924   2.288   3.532   2.737
15894WAT     H247925   2.285   3.509   2.575
15895WAT      O47926   0.508   0.798   9.312
15895WAT     H147927   0.497   0.711   9.361
15895WAT     H247928   0.426   0.816   9.258
15896WAT      O47929   3.868   6.931   3.309
15896WAT     H147930   3.945   6.994   3.302
15896WAT     H247931   3.902   6.837   3.307
15897WAT      O47932   7.411   3.764   5.961
15897WAT     H147933   7.466   3.749   6.043
15897WAT     H247934   7.452   3.836   5.905
15898WAT      O47935   5.570   5.475   5.546
15898WAT     H147936   5.612   5.409   5.608
15898WAT     H247937   5.524   5.547   5.600
15899WAT      O47938   6.487   6.338   8.446
15899WAT     H147939   6.408   6.395   8.466
15899WAT     H247940   6.457   6.254   8.401
15900WAT      O47941   8.702   7.748   9.624
15900WAT     H147942   8.640   7.811   9.576
15900WAT     H247943   8.692   7.761   9.723
15901WAT      O47944   4.790   8.474   7.996
15901WAT     H147945   4.809   8.467   7.898
15901WAT     H247946   4.692   8.490   8.010
15902WAT      O47947   3.179   2.898   1.024
15902WAT     H147948   3.226   2.816   0.991
15902WAT     H247949   3.093   2.872   1.068
15903WAT      O47950   8.891   4.759   9.240
15903WAT     H147951   8.927   4.739   9.331
15903WAT     H247952   8.800   4.800   9.249
15904WAT      O47953   0.796   1.889   4.412
15904WAT     H147954   0.799   1.986   4.389
15904WAT     H247955   0.701   1.860   4.421
15905WAT      O47956   1.739   1.083   8.426
15905WAT     H147957   1.834   1.080   8.394
15905WAT     H247958   1.732   1.145   8.504
15906WAT      O47959   7.107   8.465   2.722
15906WAT     H147960   7.128   8.373   2.756
15906WAT     H247961   7.135   8.532   2.790
15907WAT      O47962   0.763   2.391   7.087
15907WAT     H147963   0.750   2.490   7.079
15907WAT     H247964   0.696   2.345   7.030
15908WAT      O47965   4.431   0.429   1.531
15908WAT     H147966   4.331   0.438   1.537
15908WAT     H247967   4.461   0.354   1.590
15909WAT      O47968   3.515   8.357   8.647
15909WAT     H147969   3.422   8.387   8.667
15909WAT     H247970   3.530   8.358   8.549
15910WAT      O47971   4.780   4.274   3.498
15910WAT     H147972   4.752   4.194   3.551
15910WAT     H247973   4.773   4.356   3.556
15911WAT      O47974   9.819   4.498   8.217
15911WAT     H147975   9.899   4.522   8.271
15911WAT     H247976   9.790   4.577   8.163
15912WAT      O47977   7.479   7.233   6.339
15912WAT     H147978   7.425   7.150   6.329
15912WAT     H247979   7.573   7.210   6.365
15913WAT      O47980   5.185   8.453   3.004
15913WAT     H147981   5.184   8.405   3.091
15913WAT     H247982   5.222   8.394   2.933
15914WAT      O47983   3.420   0.461   9.730
15914WAT     H147984   3.329   0.475   9.770
15914WAT     H247985   3.480   0.419   9.798
15915WAT      O47986   8.913   1.763   7.272
15915WAT     H147987   8.925   1.854   7.231
15915WAT     H247988   8.859   1.706   7.211
15916WAT      O47989   0.701   2.773   6.725
15916WAT     H147990   0.625   2.828   6.691
15916WAT     H247991   0.738   2.718   6.649
15917WAT      O47992   9.514   8.498   0.334
15917WAT     H147993   9.576   8.420   0.338
15917WAT     H247994   9.567   8.583   0.343
15918WAT      O47995   5.898   9.421   1.393
15918WAT     H147996   5.833   9.458   1.459
15918WAT     H247997   5.890   9.470   1.306
15919WAT      O47998   4.035   1.619   3.231
15919WAT     H147999   4.107   1.656   3.172
15919WAT     H248000   3.992   1.541   3.186
15920WAT      O48001   0.407   1.218   9.806
15920WAT     H148002   0.479   1.282   9.829
15920WAT     H248003   0.426   1.129   9.849
15921WAT      O48004   2.546   7.398   9.760
15921WAT     H148005   2.553   7.312   9.812
15921WAT     H248006   2.577   7.474   9.817
15922WAT      O48007   7.112   8.979   6.129
15922WAT     H148008   7.078   9.068   6.099
15922WAT     H248009   7.041   8.910   6.114
15923WAT      O48010   4.766   4.446   3.054
15923WAT     H148011   4.744   4.364   3.107
15923WAT     H248012   4.687   4.508   3.054
15924WAT      O48013   9.380   5.023   1.530
15924WAT     H148014   9.378   4.923   1.533
15924WAT     H248015   9.290   5.059   1.553
15925WAT      O48016   6.533   7.765   3.653
15925WAT     H148017   6.534   7.665   3.656
15925WAT     H248018   6.627   7.799   3.653
15926WAT      O48019   9.599   7.109   0.570
15926WAT     H148020   9.630   7.168   0.645
15926WAT     H248021   9.649   7.023   0.572
15927WAT      O48022   0.315   4.832   2.493
15927WAT     H148023   0.279   4.879   2.574
15927WAT     H248024   0.239   4.786   2.445
15928WAT      O48025   1.171   7.622   0.428
15928WAT     H148026   1.214   7.561   0.495
15928WAT     H248027   1.163   7.576   0.340
15929WAT      O48028   8.698   6.136   4.812
15929WAT     H148029   8.645   6.158   4.894
15929WAT     H248030   8.637   6.135   4.732
15930WAT      O48031   0.710   5.305   6.060
15930WAT     H148032   0.613   5.304   6.036
15930WAT     H248033   0.758   5.371   6.001
15931WAT      O48034   6.723   6.266   3.910
15931WAT     H148035   6.772   6.199   3.967
15931WAT     H248036   6.657   6.315   3.966
15932WAT      O48037   7.583   8.839   5.129
15932WAT     H148038   7.611   8.818   5.223
15932WAT     H248039   7.491   8.878   5.130
15933WAT      O48040   1.193   1.070   5.787
15933WAT     H148041   1.281   1.117   5.800
15933WAT     H248042   1.163   1.032   5.874
15934WAT      O48043   3.945   4.138   8.526
15934WAT     H148044   3.921   4.233   8.544
15934WAT     H248045   3.879   4.078   8.571
15935WAT      O48046   4.639   9.423   0.638
15935WAT     H148047   4.625   9.513   0.678
15935WAT     H248048   4.552   9.373   0.635
15936WAT      O48049   8.917   7.501   7.263
15936WAT     H148050   8.948   7.573   7.326
15936WAT     H248051   8.872   7.543   7.184
15937WAT      O48052   2.392   3.682   6.507
15937WAT     H148053   2.323   3.679   6.580
15937WAT     H248054   2.353   3.643   6.424
15938WAT      O48055   7.777   1.759   2.869
15938WAT     H148056   7.777   1.809   2.956
15938WAT     H248057   7.859   1.700   2.865
15939WAT      O48058   6.205   4.755   4.467
15939WAT     H148059   6.212   4.656   4.454
15939WAT     H248060   6.153   4.795   4.392
15940WAT      O48061   5.629   3.939   1.322
15940WAT     H148062   5.530   3.950   1.312
15940WAT     H248063   5.654   3.943   1.419
15941WAT      O48064   0.630   9.109   9.039
15941WAT     H148065   0.691   9.033   9.062
15941WAT     H248066   0.684   9.192   9.028
15942WAT      O48067   0.422   5.086   2.415
15942WAT     H148068   0.376   4.998   2.413
15942WAT     H248069   0.390   5.139   2.494
15943WAT      O48070   1.691   8.684   6.500
15943WAT     H148071   1.661   8.589   6.512
15943WAT     H248072   1.748   8.711   6.578
15944WAT      O48073   6.552   0.323   8.868
15944WAT     H148074   6.460   0.352   8.896
15944WAT     H248075   6.590   0.262   8.938
15945WAT      O48076   7.989   2.421   9.357
15945WAT     H148077   7.981   2.509   9.405
15945WAT     H248078   8.072   2.375   9.387
15946WAT      O48079   1.716   5.451   4.461
15946WAT     H148080   1.754   5.542   4.443
15946WAT     H248081   1.781   5.399   4.517
15947WAT      O48082   3.250   5.262   2.818
15947WAT     H148083   3.248   5.302   2.726
15947WAT     H248084   3.290   5.170   2.813
15948WAT      O48085   1.617   5.675   5.968
15948WAT     H148086   1.659   5.590   5.938
15948WAT     H248087   1.645   5.694   6.062
15949WAT      O48088   1.468   1.929   9.471
15949WAT     H148089   1.499   2.000   9.408
15949WAT     H248090   1.372   1.943   9.492
15950WAT      O48091   3.079   2.808   7.548
15950WAT     H148092   3.096   2.840   7.642
15950WAT     H248093   3.165   2.786   7.503
15951WAT      O48094   4.124   1.834   3.968
15951WAT     H148095   4.037   1.876   3.993
15951WAT     H248096   4.127   1.740   4.004
15952WAT      O48097   8.161   8.941   7.956
15952WAT     H148098   8.238   8.883   7.932
15952WAT     H248099   8.076   8.899   7.922
15953WAT      O48100   0.884   0.774   9.046
15953WAT     H148101   0.925   0.800   9.134
15953WAT     H248102   0.806   0.714   9.063
15954WAT      O48103   3.664   8.014   4.393
15954WAT     H148104   3.658   8.107   4.358
15954WAT     H248105   3.582   7.994   4.447
15955WAT      O48106   7.249   9.366   8.223
15955WAT     H148107   7.177   9.328   8.165
15955WAT     H248108   7.308   9.426   8.169
15956WAT      O48109   6.085   9.611   3.686
15956WAT     H148110   6.138   9.557   3.751
15956WAT     H248111   6.002   9.645   3.731
15957WAT      O48112   7.552   2.246   5.097
15957WAT     H148113   7.467   2.201   5.126
15957WAT     H248114   7.570   2.324   5.158
15958WAT      O48115   2.902   7.047   3.478
15958WAT     H148116   2.866   7.109   3.408
15958WAT     H248117   2.958   6.976   3.435
15959WAT      O48118   8.710   5.481   0.071
15959WAT     H148119   8.662   5.562   0.036
15959WAT     H248120   8.694   5.473   0.169
15960WAT      O48121   1.929   0.923   8.121
15960WAT     H148122   1.894   0.988   8.189
15960WAT     H248123   1.894   0.947   8.030
15961WAT      O48124   5.129   7.484   2.751
15961WAT     H148125   5.057   7.446   2.809
15961WAT     H248126   5.211   7.499   2.806
15962WAT      O48127   2.004   0.016   8.095
15962WAT     H148128   2.075  -0.054   8.109
15962WAT     H248129   1.927  -0.002   8.156
15963WAT      O48130   6.968   6.779   3.847
15963WAT     H148131   6.912   6.697   3.857
15963WAT     H248132   7.039   6.779   3.918
15964WAT      O48133   4.172   6.766   2.149
15964WAT     H148134   4.081   6.727   2.159
15964WAT     H248135   4.177   6.821   2.066
15965WAT      O48136   6.600   0.164   9.081
15965WAT     H148137   6.583   0.069   9.057
15965WAT     H248138   6.604   0.174   9.180
15966WAT      O48139   5.590   1.403   8.134
15966WAT     H148140   5.535   1.377   8.213
15966WAT     H248141   5.592   1.503   8.126
15967WAT      O48142   3.553   1.855   4.117
15967WAT     H148143   3.484   1.799   4.071
15967WAT     H248144   3.544   1.950   4.087
15968WAT      O48145   8.261   1.688   8.377
15968WAT     H148146   8.258   1.713   8.474
15968WAT     H248147   8.239   1.768   8.322
15969WAT      O48148   5.836   7.726   6.533
15969WAT     H148149   5.889   7.716   6.617
15969WAT     H248150   5.763   7.793   6.548
15970WAT      O48151   7.342   6.060   3.591
15970WAT     H148152   7.338   5.991   3.519
15970WAT     H248153   7.260   6.118   3.585
15971WAT      O48154   6.524   8.561   1.202
15971WAT     H148155   6.604   8.537   1.147
15971WAT     H248156   6.446   8.506   1.174
15972WAT      O48157   8.210   6.750   2.614
15972WAT     H148158   8.237   6.672   2.558
15972WAT     H248159   8.288   6.780   2.669
15973WAT      O48160   6.290   1.852   5.983
15973WAT     H148161   6.360   1.903   5.934
15973WAT     H248162   6.298   1.868   6.081
15974WAT      O48163   2.237   2.871   0.649
15974WAT     H148164   2.240   2.961   0.693
15974WAT     H248165   2.268   2.802   0.714
15975WAT      O48166   0.651   1.805   3.748
15975WAT     H148167   0.630   1.889   3.698
15975WAT     H248168   0.749   1.787   3.743
15976WAT      O48169   9.483   3.061   8.352
15976WAT     H148170   9.572   3.104   8.366
15976WAT     H248171   9.477   3.030   8.257
15977WAT      O48172   1.924   2.816   3.176
15977WAT     H148173   1.896   2.865   3.093
15977WAT     H248174   1.843   2.772   3.217
15978WAT      O48175   8.483   6.688   7.127
15978WAT     H148176   8.447   6.595   7.132
15978WAT     H248177   8.433   6.746   7.192
15979WAT      O48178   2.421   6.523   5.973
15979WAT     H148179   2.477   6.583   5.917
15979WAT     H248180   2.466   6.507   6.061
15980WAT      O48181   2.953   0.515   1.376
15980WAT     H148182   2.993   0.606   1.384
15980WAT     H248183   3.014   0.448   1.417
15981WAT      O48184   8.893   0.959   5.020
15981WAT     H148185   8.888   0.919   4.929
15981WAT     H248186   8.830   0.910   5.081
15982WAT      O48187   7.233   7.349   8.128
15982WAT     H148188   7.181   7.431   8.103
15982WAT     H248189   7.316   7.376   8.177
15983WAT      O48190   3.119   2.909   0.527
15983WAT     H148191   3.026   2.885   0.499
15983WAT     H248192   3.170   2.944   0.449
15984WAT      O48193   1.235   3.059   4.689
15984WAT     H148194   1.232   2.975   4.635
15984WAT     H248195   1.224   3.138   4.629
15985WAT      O48196   6.289   0.172   0.491
15985WAT     H148197   6.260   0.089   0.538
15985WAT     H248198   6.223   0.194   0.419
15986WAT      O48199   9.659   6.647   2.838
15986WAT     H148200   9.631   6.721   2.777
15986WAT     H248201   9.726   6.681   2.903
15987WAT      O48202   6.934   3.652   5.603
15987WAT     H148203   6.958   3.575   5.543
15987WAT     H248204   6.894   3.725   5.549
15988WAT      O48205   7.786   2.631   0.392
15988WAT     H148206   7.875   2.660   0.428
15988WAT     H248207   7.742   2.708   0.346
15989WAT      O48208   0.152   0.997   0.153
15989WAT     H148209   0.061   0.966   0.125
15989WAT     H248210   0.164   1.093   0.126
15990WAT      O48211   2.922   0.908   2.714
15990WAT     H148212   2.907   0.977   2.785
15990WAT     H248213   2.837   0.858   2.698
15991WAT      O48214   5.394   6.985   2.606
15991WAT     H148215   5.437   6.999   2.695
15991WAT     H248216   5.434   6.905   2.562
15992WAT      O48217   2.302   3.943   2.823
15992WAT     H148218   2.381   3.919   2.768
15992WAT     H248219   2.329   4.007   2.895
15993WAT      O48220   4.827   2.200   8.498
15993WAT     H148221   4.836   2.167   8.404
15993WAT     H248222   4.736   2.178   8.532
15994WAT      O48223   6.970   5.546   8.112
15994WAT     H148224   6.987   5.490   8.030
15994WAT     H248225   7.055   5.557   8.163
15995WAT      O48226   5.181   6.389   8.739
15995WAT     H148227   5.114   6.377   8.813
15995WAT     H248228   5.226   6.301   8.721
15996WAT      O48229   6.427   3.182   5.154
15996WAT     H148230   6.473   3.263   5.117
15996WAT     H248231   6.486   3.138   5.221
15997WAT      O48232   8.063   0.123   7.615
15997WAT     H148233   8.044   0.221   7.629
15997WAT     H248234   8.121   0.112   7.534
15998WAT      O48235   6.211   9.375   8.637
15998WAT     H148236   6.298   9.424   8.629
15998WAT     H248237   6.150   9.401   8.563
15999WAT      O48238   8.276   6.102   8.128
15999WAT     H148239   8.322   6.183   8.093
15999WAT     H248240   8.336   6.054   8.192
16000WAT      O48241   5.218   0.230   9.442
16000WAT     H148242   5.238   0.241   9.540
16000WAT     H248243   5.286   0.170   9.400
16001WAT      O48244   5.438   8.981   3.777
16001WAT     H148245   5.385   9.004   3.695
16001WAT     H248246   5.519   9.039   3.781
16002WAT      O48247   6.448   2.137   3.105
16002WAT     H148248   6.478   2.058   3.159
16002WAT     H248249   6.356   2.119   3.070
16003WAT      O48250   6.603   1.147   7.750
16003WAT     H148251   6.537   1.200   7.697
16003WAT     H248252   6.693   1.191   7.744
16004WAT      O48253   2.110   4.527   2.958
16004WAT     H148254   2.086   4.509   2.863
16004WAT     H248255   2.045   4.481   3.018
16005WAT      O48256   5.853   5.020   8.116
16005WAT     H148257   5.777   5.019   8.181
16005WAT     H248258   5.934   4.980   8.160
16006WAT      O48259   8.622   6.029   2.323
16006WAT     H148260   8.570   6.113   2.337
16006WAT     H248261   8.717   6.051   2.303
16007WAT      O48262   0.319   9.622   7.193
16007WAT     H148263   0.418   9.615   7.179
16007WAT     H248264   0.290   9.558   7.264
16008WAT      O48265   6.618   4.655   7.642
16008WAT     H148266   6.593   4.615   7.731
16008WAT     H248267   6.563   4.736   7.625
16009WAT      O48268   5.943   0.844   4.235
16009WAT     H148269   5.906   0.859   4.143
16009WAT     H248270   5.926   0.925   4.291
16010WAT      O48271   8.577   0.678   2.637
16010WAT     H148272   8.605   0.690   2.732
16010WAT     H248273   8.659   0.662   2.581
16011WAT      O48274   5.608   4.964   9.654
16011WAT     H148275   5.615   5.057   9.619
16011WAT     H248276   5.671   4.905   9.604
16012WAT      O48277   4.893   9.314   1.525
16012WAT     H148278   4.887   9.344   1.429
16012WAT     H248279   4.888   9.393   1.585
16013WAT      O48280   2.010   8.971   6.217
16013WAT     H148281   1.980   8.878   6.235
16013WAT     H248282   1.987   8.996   6.123
16014WAT      O48283   0.205   0.828   8.162
16014WAT     H148284   0.138   0.830   8.236
16014WAT     H248285   0.264   0.909   8.170
16015WAT      O48286   5.009   8.439   8.601
16015WAT     H148287   4.922   8.411   8.641
16015WAT     H248288   5.015   8.405   8.507
16016WAT      O48289   0.460   4.285   9.476
16016WAT     H148290   0.498   4.291   9.384
16016WAT     H248291   0.451   4.376   9.515
16017WAT      O48292   4.858   3.288   7.987
16017WAT     H148293   4.913   3.206   7.975
16017WAT     H248294   4.809   3.284   8.074
16018WAT      O48295   8.178   6.997   4.319
16018WAT     H148296   8.092   7.039   4.346
16018WAT     H248297   8.162   6.904   4.286
16019WAT      O48298   4.574   9.472   5.724
16019WAT     H148299   4.485   9.462   5.769
16019WAT     H248300   4.639   9.515   5.787
16020WAT      O48301   3.765   2.473   2.458
16020WAT     H148302   3.666   2.460   2.458
16020WAT     H248303   3.790   2.540   2.528
16021WAT      O48304   2.203   0.731   1.454
16021WAT     H148305   2.148   0.730   1.370
16021WAT     H248306   2.147   0.767   1.529
16022WAT      O48307   5.925   1.367   5.781
16022WAT     H148308   5.853   1.299   5.769
16022WAT     H248309   5.984   1.339   5.857
16023WAT      O48310   6.362   3.638   8.481
16023WAT     H148311   6.304   3.559   8.461
16023WAT     H248312   6.402   3.627   8.573
16024WAT      O48313   2.998   9.774   4.217
16024WAT     H148314   2.929   9.816   4.158
16024WAT     H248315   2.999   9.675   4.202
16025WAT      O48316   4.818   0.679   7.939
16025WAT     H148317   4.856   0.711   7.852
16025WAT     H248318   4.731   0.724   7.956
16026WAT      O48319   3.044   1.940   1.723
16026WAT     H148320   3.088   1.971   1.808
16026WAT     H248321   2.951   1.976   1.719
16027WAT      O48322   3.354   2.480   5.253
16027WAT     H148323   3.404   2.517   5.175
16027WAT     H248324   3.263   2.450   5.224
16028WAT      O48325   8.213   0.851   0.199
16028WAT     H148326   8.152   0.796   0.142
16028WAT     H248327   8.177   0.853   0.292
16029WAT      O48328   9.037   7.661   3.684
16029WAT     H148329   9.030   7.665   3.584
16029WAT     H248330   9.133   7.659   3.711
16030WAT      O48331   3.158   5.425   1.341
16030WAT     H148332   3.109   5.511   1.323
16030WAT     H248333   3.167   5.373   1.257
16031WAT      O48334   3.975   3.639   6.411
16031WAT     H148335   3.946   3.734   6.409
16031WAT     H248336   3.927   3.591   6.485
16032WAT      O48337   5.829   7.361   8.051
16032WAT     H148338   5.769   7.309   7.990
16032WAT     H248339   5.778   7.395   8.129
16033WAT      O48340   5.295   6.870   7.025
16033WAT     H148341   5.221   6.915   6.976
16033WAT     H248342   5.381   6.881   6.975
16034WAT      O48343   4.551   7.976   4.869
16034WAT     H148344   4.641   7.995   4.908
16034WAT     H248345   4.561   7.929   4.782
16035WAT      O48346   0.424   4.533   6.028
16035WAT     H148347   0.472   4.463   6.080
16035WAT     H248348   0.382   4.492   5.947
16036WAT      O48349   7.306   1.565   6.786
16036WAT     H148350   7.319   1.559   6.885
16036WAT     H248351   7.372   1.506   6.739
16037WAT      O48352   4.283   9.750   1.361
16037WAT     H148353   4.360   9.798   1.402
16037WAT     H248354   4.293   9.748   1.262
16038WAT      O48355   3.612   6.570   6.274
16038WAT     H148356   3.614   6.647   6.209
16038WAT     H248357   3.572   6.490   6.229
16039WAT      O48358   3.718   2.015   7.135
16039WAT     H148359   3.634   1.960   7.146
16039WAT     H248360   3.796   1.963   7.169
16040WAT      O48361   6.626   2.522   3.376
16040WAT     H148362   6.554   2.478   3.322
16040WAT     H248363   6.714   2.511   3.329
16041WAT      O48364   8.689   5.444   0.368
16041WAT     H148365   8.706   5.354   0.328
16041WAT     H248366   8.592   5.451   0.393
16042WAT      O48367   0.071   6.860   0.860
16042WAT     H148368   0.143   6.796   0.834
16042WAT     H248369   0.075   6.941   0.801
16043WAT      O48370   3.834   4.408   3.123
16043WAT     H148371   3.755   4.467   3.143
16043WAT     H248372   3.835   4.331   3.186
16044WAT      O48373   6.854   2.912   3.998
16044WAT     H148374   6.877   2.893   3.903
16044WAT     H248375   6.764   2.873   4.019
16045WAT      O48376   8.095   7.904   7.671
16045WAT     H148377   8.049   7.987   7.704
16045WAT     H248378   8.032   7.853   7.612
16046WAT      O48379   5.954   1.682   0.317
16046WAT     H148380   5.881   1.728   0.268
16046WAT     H248381   5.949   1.583   0.299
16047WAT      O48382   2.652   0.858   5.875
16047WAT     H148383   2.743   0.866   5.835
16047WAT     H248384   2.623   0.948   5.910
16048WAT      O48385   1.526   2.165   5.077
16048WAT     H148386   1.510   2.246   5.134
16048WAT     H248387   1.533   2.191   4.981
16049WAT      O48388   1.819   5.022   6.526
16049WAT     H148389   1.841   5.111   6.566
16049WAT     H248390   1.845   5.021   6.430
16050WAT      O48391   5.415   9.286   0.466
16050WAT     H148392   5.472   9.261   0.388
16050WAT     H248393   5.336   9.224   0.471
16051WAT      O48394   9.740   8.917   6.246
16051WAT     H148395   9.724   8.913   6.345
16051WAT     H248396   9.657   8.887   6.198
16052WAT      O48397   1.428   6.648   3.438
16052WAT     H148398   1.329   6.632   3.442
16052WAT     H248399   1.451   6.691   3.351
16053WAT      O48400   2.062   1.643   4.591
16053WAT     H148401   2.013   1.590   4.521
16053WAT     H248402   2.157   1.654   4.563
16054WAT      O48403   6.398   3.503   5.363
16054WAT     H148404   6.305   3.533   5.340
16054WAT     H248405   6.395   3.447   5.445
16055WAT      O48406   3.292   1.743   8.496
16055WAT     H148407   3.346   1.761   8.413
16055WAT     H248408   3.287   1.826   8.551
16056WAT      O48409   1.379   6.568   5.336
16056WAT     H148410   1.334   6.637   5.279
16056WAT     H248411   1.457   6.530   5.287
16057WAT      O48412   9.032   3.087   9.820
16057WAT     H148413   9.113   3.123   9.867
16057WAT     H248414   9.060   3.043   9.734
16058WAT      O48415   3.027   5.048   8.724
16058WAT     H148416   3.088   5.128   8.720
16058WAT     H248417   2.947   5.063   8.667
16059WAT      O48418   0.259   6.986   1.585
16059WAT     H148419   0.242   6.978   1.487
16059WAT     H248420   0.191   6.933   1.635
16060WAT      O48421   9.845   9.197   6.244
16060WAT     H148422   9.873   9.199   6.148
16060WAT     H248423   9.805   9.108   6.265
16061WAT      O48424   2.919   2.484   2.851
16061WAT     H148425   2.852   2.484   2.777
16061WAT     H248426   3.009   2.511   2.815
16062WAT      O48427   8.797   9.778   5.596
16062WAT     H148428   8.812   9.870   5.559
16062WAT     H248429   8.884   9.740   5.627
16063WAT      O48430   1.203   9.570   2.657
16063WAT     H148431   1.248   9.523   2.581
16063WAT     H248432   1.150   9.503   2.710
16064WAT      O48433   6.691   5.467   1.747
16064WAT     H148434   6.730   5.433   1.833
16064WAT     H248435   6.743   5.431   1.670
16065WAT      O48436   1.388   8.709   3.160
16065WAT     H148437   1.471   8.763   3.170
16065WAT     H248438   1.398   8.646   3.082
16066WAT      O48439   3.934   8.511   8.126
16066WAT     H148440   4.021   8.558   8.109
16066WAT     H248441   3.929   8.483   8.222
16067WAT      O48442   0.477   8.120   2.776
16067WAT     H148443   0.416   8.074   2.711
16067WAT     H248444   0.565   8.073   2.778
16068WAT      O48445   4.838   3.526   9.661
16068WAT     H148446   4.928   3.483   9.663
16068WAT     H248447   4.779   3.476   9.597
16069WAT      O48448   2.560   4.224   7.372
16069WAT     H148449   2.539   4.317   7.340
16069WAT     H248450   2.535   4.158   7.302
16070WAT      O48451   6.497   7.193   7.621
16070WAT     H148452   6.440   7.111   7.622
16070WAT     H248453   6.591   7.168   7.598
16071WAT      O48454   2.412   8.239   0.980
16071WAT     H148455   2.482   8.309   0.969
16071WAT     H248456   2.372   8.246   1.072
16072WAT      O48457   3.414   8.901   5.858
16072WAT     H148458   3.351   8.944   5.922
16072WAT     H248459   3.506   8.939   5.871
16073WAT      O48460   2.845   0.586   5.698
16073WAT     H148461   2.936   0.618   5.671
16073WAT     H248462   2.777   0.626   5.636
16074WAT      O48463   7.262   1.593   2.314
16074WAT     H148464   7.199   1.516   2.324
16074WAT     H248465   7.303   1.592   2.223
16075WAT      O48466   3.799   3.172   2.413
16075WAT     H148467   3.838   3.085   2.444
16075WAT     H248468   3.700   3.169   2.423
16076WAT      O48469   5.550   5.941   5.617
16076WAT     H148470   5.650   5.945   5.620
16076WAT     H248471   5.516   6.004   5.546
16077WAT      O48472   5.900   4.054   1.249
16077WAT     H148473   5.974   3.990   1.268
16077WAT     H248474   5.812   4.011   1.271
16078WAT      O48475   6.895   1.232   4.628
16078WAT     H148476   6.817   1.237   4.689
16078WAT     H248477   6.980   1.230   4.681
16079WAT      O48478   2.411   8.969   1.701
16079WAT     H148479   2.405   9.022   1.786
16079WAT     H248480   2.411   9.032   1.623
16080WAT      O48481   4.431   2.761   5.194
16080WAT     H148482   4.336   2.792   5.189
16080WAT     H248483   4.434   2.661   5.198
16081WAT      O48484   0.177   9.547   4.947
16081WAT     H148485   0.176   9.481   5.021
16081WAT     H248486   0.272   9.571   4.924
16082WAT      O48487   4.466   8.065   6.126
16082WAT     H148488   4.406   8.144   6.142
16082WAT     H248489   4.410   7.982   6.116
16083WAT      O48490   8.861   3.582   5.455
16083WAT     H148491   8.942   3.641   5.459
16083WAT     H248492   8.884   3.498   5.406
16084WAT      O48493   0.080   4.164   4.597
16084WAT     H148494   0.015   4.091   4.578
16084WAT     H248495   0.070   4.195   4.691
16085WAT      O48496   9.379   1.709   1.215
16085WAT     H148497   9.331   1.782   1.167
16085WAT     H248498   9.330   1.686   1.299
16086WAT      O48499   6.216   5.826   8.369
16086WAT     H148500   6.245   5.801   8.277
16086WAT     H248501   6.128   5.874   8.365
16087WAT      O48502   0.882   1.836   1.472
16087WAT     H148503   0.791   1.850   1.433
16087WAT     H248504   0.936   1.920   1.463
16088WAT      O48505   4.567   6.432   4.022
16088WAT     H148506   4.663   6.415   4.001
16088WAT     H248507   4.510   6.396   3.948
16089WAT      O48508   9.809   7.532   1.696
16089WAT     H148509   9.835   7.624   1.723
16089WAT     H248510   9.844   7.513   1.604
16090WAT      O48511   4.961   7.187   6.563
16090WAT     H148512   4.987   7.091   6.575
16090WAT     H248513   4.877   7.192   6.508
16091WAT      O48514   5.009   1.404   9.731
16091WAT     H148515   4.921   1.385   9.687
16091WAT     H248516   4.999   1.397   9.830
16092WAT      O48517   4.788   2.585   4.256
16092WAT     H148518   4.729   2.523   4.308
16092WAT     H248519   4.802   2.669   4.308
16093WAT      O48520   6.284   6.083   1.582
16093WAT     H148521   6.295   6.057   1.678
16093WAT     H248522   6.313   6.007   1.523
16094WAT      O48523   4.310   7.076   3.295
16094WAT     H148524   4.336   6.993   3.345
16094WAT     H248525   4.320   7.059   3.197
16095WAT      O48526   6.652   0.497   0.715
16095WAT     H148527   6.573   0.436   0.714
16095WAT     H248528   6.700   0.491   0.627
16096WAT      O48529   1.673   3.313   7.305
16096WAT     H148530   1.731   3.243   7.347
16096WAT     H248531   1.663   3.294   7.208
16097WAT      O48532   6.088   9.040   2.477
16097WAT     H148533   6.180   9.053   2.439
16097WAT     H248534   6.089   8.964   2.542
16098WAT      O48535   9.118   4.363   3.314
16098WAT     H148536   9.203   4.398   3.275
16098WAT     H248537   9.134   4.334   3.409
16099WAT      O48538   0.273   6.652   4.645
16099WAT     H148539   0.201   6.683   4.708
16099WAT     H248540   0.247   6.676   4.551
16100WAT      O48541   2.130   6.112   1.111
16100WAT     H148542   2.041   6.158   1.103
16100WAT     H248543   2.191   6.166   1.168
16101WAT      O48544   0.578   3.484   2.571
16101WAT     H148545   0.545   3.454   2.481
16101WAT     H248546   0.512   3.547   2.610
16102WAT      O48547   3.387   0.215   6.100
16102WAT     H148548   3.355   0.272   6.176
16102WAT     H248549   3.389   0.119   6.129
16103WAT      O48550   9.582   3.150   5.661
16103WAT     H148551   9.505   3.205   5.628
16103WAT     H248552   9.596   3.073   5.599
16104WAT      O48553   2.398   4.608   3.924
16104WAT     H148554   2.320   4.663   3.894
16104WAT     H248555   2.483   4.657   3.905
16105WAT      O48556   7.801   3.072   2.171
16105WAT     H148557   7.715   3.090   2.219
16105WAT     H248558   7.845   2.990   2.209
16106WAT      O48559   7.647   3.457   0.605
16106WAT     H148560   7.695   3.545   0.613
16106WAT     H248561   7.608   3.433   0.694
16107WAT      O48562   4.646   6.970   7.547
16107WAT     H148563   4.681   7.056   7.510
16107WAT     H248564   4.691   6.949   7.633
16108WAT      O48565   7.460   0.775   8.200
16108WAT     H148566   7.520   0.741   8.127
16108WAT     H248567   7.487   0.733   8.286
16109WAT      O48568   1.762   4.429   3.982
16109WAT     H148569   1.692   4.419   4.053
16109WAT     H248570   1.760   4.523   3.947
16110WAT      O48571   1.431   9.634   1.750
16110WAT     H148572   1.514   9.629   1.694
16110WAT     H248573   1.453   9.677   1.838
16111WAT      O48574   8.647   8.101   6.320
16111WAT     H148575   8.737   8.057   6.310
16111WAT     H248576   8.594   8.086   6.237
16112WAT      O48577   5.230   7.270   4.966
16112WAT     H148578   5.155   7.218   5.006
16112WAT     H248579   5.215   7.280   4.868
16113WAT      O48580   3.269   6.317   5.235
16113WAT     H148581   3.233   6.401   5.194
16113WAT     H248582   3.330   6.341   5.311
16114WAT      O48583   9.286   8.744   4.450
16114WAT     H148584   9.242   8.752   4.540
16114WAT     H248585   9.335   8.657   4.444
16115WAT      O48586   5.626   5.689   2.825
16115WAT     H148587   5.704   5.640   2.786
16115WAT     H248588   5.542   5.656   2.784
16116WAT      O48589   6.091   8.678   6.454
16116WAT     H148590   6.102   8.716   6.546
16116WAT     H248591   6.178   8.640   6.422
16117WAT      O48592   8.221   7.585   6.453
16117WAT     H148593   8.198   7.571   6.550
16117WAT     H248594   8.186   7.508   6.400
16118WAT      O48595   8.517   4.740   7.537
16118WAT     H148596   8.607   4.706   7.565
16118WAT     H248597   8.520   4.839   7.527
16119WAT      O48598   9.263   5.906   3.193
16119WAT     H148599   9.268   5.965   3.113
16119WAT     H248600   9.325   5.828   3.181
16120WAT      O48601   4.553   8.944   8.981
16120WAT     H148602   4.548   8.844   8.971
16120WAT     H248603   4.626   8.980   8.924
16121WAT      O48604   4.619   0.413   5.485
16121WAT     H148605   4.702   0.380   5.440
16121WAT     H248606   4.643   0.490   5.545
16122WAT      O48607   3.818   1.190   0.060
16122WAT     H148608   3.866   1.103   0.074
16122WAT     H248609   3.762   1.184  -0.023
16123WAT      O48610   2.144   1.093   9.327
16123WAT     H148611   2.170   0.999   9.306
16123WAT     H248612   2.200   1.156   9.273
16124WAT      O48613   8.963   3.176   1.847
16124WAT     H148614   8.869   3.140   1.844
16124WAT     H248615   9.023   3.116   1.796
16125WAT      O48616   0.127   7.372   7.021
16125WAT     H148617   0.073   7.393   7.103
16125WAT     H248618   0.129   7.273   7.007
16126WAT      O48619   3.266   6.141   2.151
16126WAT     H148620   3.359   6.158   2.118
16126WAT     H248621   3.214   6.093   2.081
16127WAT      O48622   3.818   3.778   3.975
16127WAT     H148623   3.881   3.817   4.042
16127WAT     H248624   3.725   3.780   4.011
16128WAT      O48625   8.896   2.515   3.992
16128WAT     H148626   8.799   2.538   3.991
16128WAT     H248627   8.910   2.431   4.045
16129WAT      O48628   3.392   0.527   9.468
16129WAT     H148629   3.394   0.495   9.563
16129WAT     H248630   3.479   0.573   9.447
16130WAT      O48631   3.865   0.318   0.277
16130WAT     H148632   3.922   0.359   0.206
16130WAT     H248633   3.831   0.229   0.245
16131WAT      O48634   8.742   5.240   7.180
16131WAT     H148635   8.835   5.274   7.195
16131WAT     H248636   8.689   5.251   7.264
16132WAT      O48637   2.503   5.727   5.959
16132WAT     H148638   2.570   5.711   5.886
16132WAT     H248639   2.505   5.823   5.986
16133WAT      O48640   9.427   6.920   3.069
16133WAT     H148641   9.328   6.926   3.072
16133WAT     H248642   9.458   6.849   3.132
16134WAT      O48643   1.980   0.095   7.078
16134WAT     H148644   2.029   0.165   7.025
16134WAT     H248645   1.990   0.006   7.034
16135WAT      O48646   8.155   9.484   5.970
16135WAT     H148647   8.253   9.472   5.954
16135WAT     H248648   8.120   9.405   6.020
16136WAT      O48649   0.308   0.932   0.900
16136WAT     H148650   0.298   1.028   0.925
16136WAT     H248651   0.293   0.874   0.980
16137WAT      O48652   2.696   9.473   7.276
16137WAT     H148653   2.756   9.472   7.356
16137WAT     H248654   2.601   9.464   7.306
16138WAT      O48655   4.959   1.823   5.649
16138WAT     H148656   4.971   1.787   5.741
16138WAT     H248657   5.002   1.761   5.583
16139WAT      O48658   1.183   8.780   4.943
16139WAT     H148659   1.145   8.798   5.034
16139WAT     H248660   1.222   8.688   4.941
16140WAT      O48661   3.193   9.461   5.643
16140WAT     H148662   3.207   9.481   5.546
16140WAT     H248663   3.196   9.363   5.657
16141WAT      O48664   5.282   1.755   3.384
16141WAT     H148665   5.211   1.686   3.400
16141WAT     H248666   5.298   1.764   3.286
16142WAT      O48667   3.626   3.448   5.886
16142WAT     H148668   3.692   3.481   5.819
16142WAT     H248669   3.645   3.352   5.908
16143WAT      O48670   2.616   2.246   4.490
16143WAT     H148671   2.639   2.336   4.452
16143WAT     H248672   2.560   2.259   4.572
16144WAT      O48673   4.140   7.368   2.679
16144WAT     H148674   4.212   7.404   2.738
16144WAT     H248675   4.092   7.445   2.636
16145WAT      O48676   1.760   9.771   3.518
16145WAT     H148677   1.811   9.686   3.508
16145WAT     H248678   1.815   9.847   3.484
16146WAT      O48679   0.506   9.031   1.149
16146WAT     H148680   0.597   9.002   1.117
16146WAT     H248681   0.507   9.129   1.168
16147WAT      O48682   4.204   4.032   0.705
16147WAT     H148683   4.179   3.943   0.743
16147WAT     H248684   4.226   4.095   0.779
16148WAT      O48685   9.811   2.780   4.052
16148WAT     H148686   9.759   2.704   4.013
16148WAT     H248687   9.795   2.784   4.151
16149WAT      O48688   0.946   2.092   0.300
16149WAT     H148689   0.858   2.063   0.263
16149WAT     H248690   0.946   2.191   0.315
16150WAT      O48691   5.611   8.487   9.132
16150WAT     H148692   5.589   8.391   9.148
16150WAT     H248693   5.701   8.508   9.171
16151WAT      O48694   4.340   0.145   6.890
16151WAT     H148695   4.313   0.050   6.903
16151WAT     H248696   4.412   0.169   6.955
16152WAT      O48697   5.067   9.621   2.216
16152WAT     H148698   5.136   9.624   2.288
16152WAT     H248699   5.022   9.531   2.216
16153WAT      O48700   0.508   0.813   7.499
16153WAT     H148701   0.540   0.810   7.404
16153WAT     H248702   0.448   0.736   7.516
16154WAT      O48703   2.870   1.715   8.761
16154WAT     H148704   2.892   1.699   8.665
16154WAT     H248705   2.821   1.636   8.798
16155WAT      O48706   6.872   1.492   9.421
16155WAT     H148707   6.872   1.527   9.327
16155WAT     H248708   6.920   1.404   9.423
16156WAT      O48709   9.807   3.232   1.315
16156WAT     H148710   9.864   3.156   1.283
16156WAT     H248711   9.830   3.315   1.265
16157WAT      O48712   7.186   0.847   3.903
16157WAT     H148713   7.235   0.858   3.816
16157WAT     H248714   7.126   0.926   3.917
16158WAT      O48715   2.732   1.813   4.849
16158WAT     H148716   2.795   1.886   4.821
16158WAT     H248717   2.654   1.853   4.896
16159WAT      O48718   6.131   9.072   0.048
16159WAT     H148719   6.039   9.107   0.028
16159WAT     H248720   6.171   9.035  -0.035
16160WAT      O48721   7.155   5.745   3.534
16160WAT     H148722   7.105   5.806   3.595
16160WAT     H248723   7.203   5.799   3.465
16161WAT      O48724   6.779   7.731   6.333
16161WAT     H148725   6.700   7.692   6.380
16161WAT     H248726   6.854   7.746   6.398
16162WAT      O48727   0.272   6.471   4.231
16162WAT     H148728   0.368   6.478   4.260
16162WAT     H248729   0.262   6.395   4.167
16163WAT      O48730   0.387   6.380   5.731
16163WAT     H148731   0.374   6.281   5.734
16163WAT     H248732   0.471   6.401   5.681
16164WAT      O48733   7.553   4.105   7.027
16164WAT     H148734   7.511   4.015   7.025
16164WAT     H248735   7.499   4.169   6.972
16165WAT      O48736   4.937   0.790   1.578
16165WAT     H148737   4.914   0.779   1.675
16165WAT     H248738   5.011   0.857   1.568
16166WAT      O48739   9.832   5.879   7.974
16166WAT     H148740   9.794   5.913   8.060
16166WAT     H248741   9.931   5.893   7.974
16167WAT      O48742   4.233   3.566   0.059
16167WAT     H148743   4.180   3.544  -0.023
16167WAT     H248744   4.180   3.543   0.141
16168WAT      O48745   5.989   9.637   8.245
16168WAT     H148746   6.009   9.734   8.244
16168WAT     H248747   5.920   9.616   8.175
16169WAT      O48748   9.648   2.113   3.851
16169WAT     H148749   9.608   2.162   3.773
16169WAT     H248750   9.718   2.170   3.894
16170WAT      O48751   3.293   5.498   4.027
16170WAT     H148752   3.233   5.567   4.067
16170WAT     H248753   3.299   5.419   4.088
16171WAT      O48754   0.929   5.254   4.462
16171WAT     H148755   1.006   5.225   4.404
16171WAT     H248756   0.927   5.199   4.545
16172WAT      O48757   8.565   2.747   0.071
16172WAT     H148758   8.474   2.733   0.031
16172WAT     H248759   8.625   2.672   0.044
16173WAT      O48760   2.380   5.439   2.079
16173WAT     H148761   2.310   5.370   2.059
16173WAT     H248762   2.424   5.417   2.166
16174WAT      O48763   5.052   3.739   9.006
16174WAT     H148764   4.974   3.684   8.979
16174WAT     H248765   5.073   3.722   9.103
16175WAT      O48766   6.601   9.477   1.912
16175WAT     H148767   6.557   9.396   1.952
16175WAT     H248768   6.659   9.449   1.836
16176WAT      O48769   6.624   2.999   4.240
16176WAT     H148770   6.650   2.966   4.330
16176WAT     H248771   6.602   2.922   4.180
16177WAT      O48772   7.444   0.239   8.595
16177WAT     H148773   7.533   0.241   8.549
16177WAT     H248774   7.426   0.328   8.637
16178WAT      O48775   6.139   1.798   8.211
16178WAT     H148776   6.109   1.807   8.306
16178WAT     H248777   6.216   1.860   8.194
16179WAT      O48778   2.452   1.377   8.072
16179WAT     H148779   2.368   1.324   8.079
16179WAT     H248780   2.480   1.382   7.976
16180WAT      O48781   2.383   8.935   2.601
16180WAT     H148782   2.471   8.978   2.623
16180WAT     H248783   2.354   8.962   2.509
16181WAT      O48784   3.748   3.296   6.152
16181WAT     H148785   3.652   3.283   6.174
16181WAT     H248786   3.777   3.387   6.181
16182WAT      O48787   8.335   4.008   4.814
16182WAT     H148788   8.377   4.005   4.905
16182WAT     H248789   8.407   4.011   4.745
16183WAT      O48790   2.826   4.381   9.637
16183WAT     H148791   2.759   4.430   9.580
16183WAT     H248792   2.778   4.339   9.715
16184WAT      O48793   2.693   1.762   9.082
16184WAT     H148794   2.674   1.719   9.170
16184WAT     H248795   2.790   1.785   9.077
16185WAT      O48796   5.109   7.019   2.669
16185WAT     H148797   5.041   6.948   2.685
16185WAT     H248798   5.191   6.979   2.629
16186WAT      O48799   3.377   2.722   4.095
16186WAT     H148800   3.381   2.695   4.191
16186WAT     H248801   3.324   2.806   4.085
16187WAT      O48802   2.763   9.833   3.783
16187WAT     H148803   2.719   9.840   3.693
16187WAT     H248804   2.757   9.738   3.814
16188WAT      O48805   6.893   5.002   3.021
16188WAT     H148806   6.954   5.034   2.949
16188WAT     H248807   6.875   5.077   3.084
16189WAT      O48808   2.133   5.112   2.339
16189WAT     H148809   2.227   5.136   2.312
16189WAT     H248810   2.075   5.193   2.332
16190WAT      O48811   4.091   3.544   2.223
16190WAT     H148812   3.996   3.532   2.195
16190WAT     H248813   4.111   3.484   2.300
16191WAT      O48814   2.725   4.307   6.819
16191WAT     H148815   2.660   4.350   6.880
16191WAT     H248816   2.791   4.254   6.872
16192WAT      O48817   7.517   4.754   6.863
16192WAT     H148818   7.466   4.792   6.786
16192WAT     H248819   7.589   4.694   6.830
16193WAT      O48820   1.613   9.307   0.457
16193WAT     H148821   1.669   9.230   0.428
16193WAT     H248822   1.671   9.384   0.481
16194WAT      O48823   3.345   0.334   9.261
16194WAT     H148824   3.429   0.280   9.264
16194WAT     H248825   3.343   0.397   9.338
16195WAT      O48826   3.976   3.566   1.344
16195WAT     H148827   3.917   3.485   1.347
16195WAT     H248828   4.031   3.564   1.261
16196WAT      O48829   7.933   7.612   3.351
16196WAT     H148830   7.946   7.633   3.448
16196WAT     H248831   7.991   7.535   3.324
16197WAT      O48832   9.641   0.772   6.782
16197WAT     H148833   9.657   0.686   6.830
16197WAT     H248834   9.716   0.789   6.718
16198WAT      O48835   4.140   8.603   4.319
16198WAT     H148836   4.134   8.665   4.397
16198WAT     H248837   4.180   8.650   4.241
16199WAT      O48838   8.219   7.552   8.896
16199WAT     H148839   8.190   7.565   8.991
16199WAT     H248840   8.238   7.641   8.854
16200WAT      O48841   0.262   8.338   8.886
16200WAT     H148842   0.319   8.264   8.850
16200WAT     H248843   0.288   8.358   8.980
16201WAT      O48844   3.844   6.959   1.139
16201WAT     H148845   3.839   6.860   1.144
16201WAT     H248846   3.939   6.988   1.154
16202WAT      O48847   6.329   6.983   8.859
16202WAT     H148848   6.329   6.910   8.927
16202WAT     H248849   6.316   7.071   8.904
16203WAT      O48850   6.069   1.576   2.437
16203WAT     H148851   5.998   1.506   2.430
16203WAT     H248852   6.028   1.663   2.467
16204WAT      O48853   2.222   2.161   0.904
16204WAT     H148854   2.246   2.162   1.001
16204WAT     H248855   2.294   2.113   0.853
16205WAT      O48856   7.019   7.397   6.628
16205WAT     H148857   6.968   7.360   6.550
16205WAT     H248858   7.071   7.477   6.599
16206WAT      O48859   4.065   1.464   7.169
16206WAT     H148860   4.087   1.393   7.236
16206WAT     H248861   3.989   1.434   7.112
16207WAT      O48862   7.352   3.573   0.495
16207WAT     H148863   7.373   3.666   0.523
16207WAT     H248864   7.412   3.547   0.419
16208WAT      O48865   7.732   1.062   5.165
16208WAT     H148866   7.792   1.100   5.095
16208WAT     H248867   7.637   1.065   5.134
16209WAT      O48868   9.707   6.128   7.757
16209WAT     H148869   9.716   6.075   7.673
16209WAT     H248870   9.610   6.150   7.772
16210WAT      O48871   1.551   0.394   9.458
16210WAT     H148872   1.461   0.432   9.438
16210WAT     H248873   1.552   0.297   9.435
16211WAT      O48874   3.056   7.860   0.611
16211WAT     H148875   3.025   7.945   0.567
16211WAT     H248876   3.005   7.783   0.574
16212WAT      O48877   0.783   3.217   6.985
16212WAT     H148878   0.836   3.206   7.069
16212WAT     H248879   0.840   3.261   6.915
16213WAT      O48880   0.789   7.236   3.643
16213WAT     H148881   0.835   7.273   3.562
16213WAT     H248882   0.803   7.298   3.721
16214WAT      O48883   2.529   1.041   6.080
16214WAT     H148884   2.454   0.988   6.040
16214WAT     H248885   2.554   1.115   6.018
16215WAT      O48886   7.899   4.830   2.044
16215WAT     H148887   7.900   4.756   2.112
16215WAT     H248888   7.819   4.819   1.985
16216WAT      O48889   0.593   0.709   2.980
16216WAT     H148890   0.514   0.655   2.951
16216WAT     H248891   0.625   0.764   2.903
16217WAT      O48892   1.952   3.909   8.725
16217WAT     H148893   1.999   3.997   8.719
16217WAT     H248894   1.959   3.874   8.819
16218WAT      O48895   4.382   1.637   5.159
16218WAT     H148896   4.329   1.704   5.210
16218WAT     H248897   4.462   1.682   5.118
16219WAT      O48898   0.880   3.443   2.007
16219WAT     H148899   0.846   3.532   1.975
16219WAT     H248900   0.802   3.383   2.026
16220WAT      O48901   2.334   7.694   8.654
16220WAT     H148902   2.402   7.670   8.724
16220WAT     H248903   2.245   7.659   8.681
16221WAT      O48904   3.883   4.678   6.746
16221WAT     H148905   3.849   4.645   6.658
16221WAT     H248906   3.891   4.777   6.743
16222WAT      O48907   5.889   8.810   6.852
16222WAT     H148908   5.954   8.794   6.778
16222WAT     H248909   5.924   8.769   6.937
16223WAT      O48910   9.616   5.691   6.962
16223WAT     H148911   9.676   5.720   7.037
16223WAT     H248912   9.579   5.771   6.915
16224WAT      O48913   8.305   7.354   3.838
16224WAT     H148914   8.356   7.325   3.757
16224WAT     H248915   8.311   7.285   3.909
16225WAT      O48916   4.372   4.384   2.900
16225WAT     H148917   4.276   4.390   2.872
16225WAT     H248918   4.376   4.365   2.998
16226WAT      O48919   2.252   7.262   7.604
16226WAT     H148920   2.212   7.337   7.552
16226WAT     H248921   2.195   7.244   7.685
16227WAT      O48922   8.276   7.705   9.434
16227WAT     H148923   8.312   7.612   9.445
16227WAT     H248924   8.207   7.722   9.504
16228WAT      O48925   7.028   3.403   5.862
16228WAT     H148926   6.983   3.332   5.809
16228WAT     H248927   7.094   3.361   5.924
16229WAT      O48928   4.572   6.695   0.554
16229WAT     H148929   4.555   6.599   0.578
16229WAT     H248930   4.562   6.706   0.455
16230WAT      O48931   7.006   1.920   1.820
16230WAT     H148932   6.934   1.967   1.871
16230WAT     H248933   6.972   1.896   1.729
16231WAT      O48934   1.351   8.097   4.472
16231WAT     H148935   1.307   8.162   4.534
16231WAT     H248936   1.289   8.021   4.453
16232WAT      O48937   2.589   9.508   0.820
16232WAT     H148938   2.664   9.551   0.869
16232WAT     H248939   2.502   9.533   0.862
16233WAT      O48940   3.766   4.347   7.788
16233WAT     H148941   3.819   4.327   7.870
16233WAT     H248942   3.669   4.353   7.811
16234WAT      O48943   6.551   3.231   4.132
16234WAT     H148944   6.578   3.136   4.148
16234WAT     H248945   6.518   3.240   4.039
16235WAT      O48946   0.838   9.305   4.691
16235WAT     H148947   0.772   9.238   4.724
16235WAT     H248948   0.793   9.393   4.678
16236WAT      O48949   4.820   2.410   9.350
16236WAT     H148950   4.815   2.311   9.339
16236WAT     H248951   4.909   2.443   9.319
16237WAT      O48952   4.992   3.722   1.839
16237WAT     H148953   4.915   3.776   1.875
16237WAT     H248954   4.965   3.626   1.832
16238WAT      O48955   5.148   3.854   0.428
16238WAT     H148956   5.227   3.914   0.441
16238WAT     H248957   5.072   3.907   0.390
16239WAT      O48958   7.078   6.020   6.430
16239WAT     H148959   7.149   5.997   6.364
16239WAT     H248960   7.103   6.104   6.478
16240WAT      O48961   0.603   1.336   7.516
16240WAT     H148962   0.700   1.359   7.526
16240WAT     H248963   0.579   1.339   7.419
16241WAT      O48964   9.605   9.652   6.196
16241WAT     H148965   9.629   9.715   6.122
16241WAT     H248966   9.508   9.664   6.219
16242WAT      O48967   7.535   7.914   7.837
16242WAT     H148968   7.567   7.962   7.755
16242WAT     H248969   7.503   7.823   7.812
16243WAT      O48970   3.698   7.156   9.339
16243WAT     H148971   3.614   7.207   9.318
16243WAT     H248972   3.680   7.058   9.331
16244WAT      O48973   6.752   5.695   2.088
16244WAT     H148974   6.735   5.722   1.993
16244WAT     H248975   6.685   5.625   2.115
16245WAT      O48976   6.624   3.121   0.182
16245WAT     H148977   6.667   3.201   0.140
16245WAT     H248978   6.652   3.115   0.277
16246WAT      O48979   7.764   5.349   7.814
16246WAT     H148980   7.792   5.369   7.720
16246WAT     H248981   7.809   5.413   7.877
16247WAT      O48982   2.105   3.166   1.706
16247WAT     H148983   2.072   3.199   1.795
16247WAT     H248984   2.159   3.238   1.662
16248WAT      O48985   5.018   3.343   2.140
16248WAT     H148986   5.016   3.376   2.234
16248WAT     H248987   4.966   3.405   2.081
16249WAT      O48988   4.962   3.560   8.390
16249WAT     H148989   4.894   3.623   8.352
16249WAT     H248990   4.966   3.572   8.489
16250WAT      O48991   5.845   5.729   8.120
16250WAT     H148992   5.760   5.707   8.168
16250WAT     H248993   5.834   5.708   8.023
16251WAT      O48994   9.224   0.501   0.605
16251WAT     H148995   9.142   0.499   0.663
16251WAT     H248996   9.236   0.411   0.562
16252WAT      O48997   9.215   0.512   2.044
16252WAT     H148998   9.153   0.553   1.977
16252WAT     H248999   9.282   0.581   2.073
16253WAT      O49000   6.897   1.584   9.683
16253WAT     H149001   6.883   1.560   9.587
16253WAT     H249002   6.863   1.677   9.700
16254WAT      O49003   2.386   1.483   9.414
16254WAT     H149004   2.365   1.566   9.465
16254WAT     H249005   2.382   1.404   9.475
16255WAT      O49006   9.055   8.744   7.447
16255WAT     H149007   9.033   8.735   7.350
16255WAT     H249008   9.091   8.657   7.481
16256WAT      O49009   4.029   7.663   7.332
16256WAT     H149010   4.094   7.657   7.256
16256WAT     H249011   3.938   7.634   7.301
16257WAT      O49012   5.440   1.098   6.426
16257WAT     H149013   5.414   1.192   6.449
16257WAT     H249014   5.535   1.096   6.395
16258WAT      O49015   9.071   6.596   8.490
16258WAT     H149016   9.162   6.581   8.450
16258WAT     H249017   9.039   6.688   8.465
16259WAT      O49018   1.143   0.231   1.142
16259WAT     H149019   1.208   0.271   1.206
16259WAT     H249020   1.186   0.222   1.052
16260WAT      O49021   0.852   5.329   7.238
16260WAT     H149022   0.949   5.303   7.235
16260WAT     H249023   0.815   5.306   7.328
16261WAT      O49024   9.819   6.871   5.303
16261WAT     H149025   9.903   6.879   5.356
16261WAT     H249026   9.792   6.775   5.295
16262WAT      O49027   4.369   7.437   1.124
16262WAT     H149028   4.412   7.477   1.205
16262WAT     H249029   4.278   7.476   1.113
16263WAT      O49030   7.263   9.052   3.876
16263WAT     H149031   7.240   8.973   3.932
16263WAT     H249032   7.302   9.124   3.933
16264WAT      O49033   2.873   7.021   2.635
16264WAT     H149034   2.820   7.093   2.591
16264WAT     H249035   2.821   6.935   2.633
16265WAT      O49036   3.386   8.652   0.390
16265WAT     H149037   3.435   8.565   0.395
16265WAT     H249038   3.288   8.637   0.402
16266WAT      O49039   2.577   7.627   0.054
16266WAT     H149040   2.632   7.590   0.128
16266WAT     H249041   2.631   7.695   0.003
16267WAT      O49042   2.305   6.693   7.150
16267WAT     H149043   2.253   6.664   7.231
16267WAT     H249044   2.249   6.677   7.068
16268WAT      O49045   7.143   5.527   7.138
16268WAT     H149046   7.184   5.585   7.208
16268WAT     H249047   7.049   5.504   7.163
16269WAT      O49048   1.271   4.141   9.125
16269WAT     H149049   1.337   4.085   9.074
16269WAT     H249050   1.226   4.205   9.062
16270WAT      O49051   0.972   9.076   2.354
16270WAT     H149052   0.883   9.119   2.362
16270WAT     H249053   0.973   9.015   2.275
16271WAT      O49054   9.519   3.545   1.084
16271WAT     H149055   9.437   3.599   1.101
16271WAT     H249056   9.502   3.481   1.010
16272WAT      O49057   2.260   5.093   3.101
16272WAT     H149058   2.282   5.114   3.197
16272WAT     H249059   2.334   5.127   3.043
16273WAT      O49060   8.440   2.577   6.884
16273WAT     H149061   8.423   2.581   6.982
16273WAT     H249062   8.353   2.568   6.835
16274WAT      O49063   7.317   6.040   9.516
16274WAT     H149064   7.412   6.021   9.493
16274WAT     H249065   7.287   6.122   9.468
16275WAT      O49066   7.107   6.843   7.810
16275WAT     H149067   7.113   6.866   7.907
16275WAT     H249068   7.160   6.760   7.792
16276WAT      O49069   0.921   3.251   4.747
16276WAT     H149070   0.978   3.240   4.666
16276WAT     H249071   0.853   3.178   4.751
16277WAT      O49072   3.923   0.728   0.263
16277WAT     H149073   3.892   0.678   0.343
16277WAT     H249074   3.981   0.669   0.207
16278WAT      O49075   0.258   9.809   1.478
16278WAT     H149076   0.286   9.751   1.554
16278WAT     H249077   0.161   9.793   1.457
16279WAT      O49078   2.549   4.475   3.574
16279WAT     H149079   2.523   4.570   3.595
16279WAT     H249080   2.591   4.472   3.483
16280WAT      O49081   5.435   2.688   8.858
16280WAT     H149082   5.454   2.734   8.772
16280WAT     H249083   5.481   2.599   8.859
16281WAT      O49084   2.852   5.796   1.125
16281WAT     H149085   2.932   5.808   1.066
16281WAT     H249086   2.882   5.785   1.220
16282WAT      O49087   8.441   5.443   1.442
16282WAT     H149088   8.487   5.512   1.498
16282WAT     H249089   8.403   5.372   1.502
16283WAT      O49090   2.841   2.095   7.043
16283WAT     H149091   2.867   2.002   7.017
16283WAT     H249092   2.923   2.150   7.058
16284WAT      O49093   6.914   7.890   9.022
16284WAT     H149094   6.835   7.861   9.077
16284WAT     H249095   6.998   7.863   9.068
16285WAT      O49096   1.035   9.452   1.888
16285WAT     H149097   1.101   9.527   1.896
16285WAT     H249098   1.059   9.379   1.952
16286WAT      O49099   8.175   1.218   2.084
16286WAT     H149100   8.085   1.175   2.082
16286WAT     H249101   8.192   1.257   2.175
16287WAT      O49102   7.060   0.009   4.768
16287WAT     H149103   7.102  -0.054   4.834
16287WAT     H249104   7.126   0.080   4.743
16288WAT      O49105   8.872   6.120   4.223
16288WAT     H149106   8.887   6.041   4.282
16288WAT     H249107   8.776   6.125   4.197
16289WAT      O49108   7.504   3.345   3.542
16289WAT     H149109   7.500   3.382   3.634
16289WAT     H249110   7.483   3.247   3.544
16290WAT      O49111   4.914   9.620   5.875
16290WAT     H149112   4.925   9.564   5.793
16290WAT     H249113   4.998   9.671   5.893
16291WAT      O49114   8.351   8.037   4.904
16291WAT     H149115   8.272   8.097   4.905
16291WAT     H249116   8.420   8.073   4.841
16292WAT      O49117   7.704   8.749   0.127
16292WAT     H149118   7.657   8.790   0.048
16292WAT     H249119   7.643   8.750   0.206
16293WAT      O49120   5.064   5.473   1.551
16293WAT     H149121   4.976   5.497   1.593
16293WAT     H249122   5.083   5.535   1.475
16294WAT      O49123   4.549   2.812   0.653
16294WAT     H149124   4.539   2.880   0.580
16294WAT     H249125   4.459   2.784   0.685
16295WAT      O49126   0.175   4.650   6.605
16295WAT     H149127   0.192   4.555   6.631
16295WAT     H249128   0.197   4.662   6.508
16296WAT      O49129   1.713   6.910   4.259
16296WAT     H149130   1.637   6.864   4.305
16296WAT     H249131   1.760   6.969   4.324
16297WAT      O49132   1.812   1.835   5.917
16297WAT     H149133   1.720   1.851   5.952
16297WAT     H249134   1.859   1.768   5.974
16298WAT      O49135   0.145   4.234   3.437
16298WAT     H149136   0.239   4.270   3.440
16298WAT     H249137   0.138   4.165   3.366
16299WAT      O49138   0.756   2.153   6.152
16299WAT     H149139   0.731   2.058   6.136
16299WAT     H249140   0.855   2.160   6.163
16300WAT      O49141   2.607   9.408   9.421
16300WAT     H149142   2.687   9.442   9.371
16300WAT     H249143   2.524   9.447   9.381
16301WAT      O49144   3.052   2.791   4.825
16301WAT     H149145   3.012   2.814   4.914
16301WAT     H249146   3.101   2.704   4.833
16302WAT      O49147   2.119   5.197   8.578
16302WAT     H149148   2.112   5.290   8.541
16302WAT     H249149   2.098   5.198   8.676
16303WAT      O49150   5.322   5.994   2.399
16303WAT     H149151   5.364   5.951   2.320
16303WAT     H249152   5.394   6.030   2.459
16304WAT      O49153   7.950   7.567   7.733
16304WAT     H149154   7.985   7.475   7.750
16304WAT     H249155   7.912   7.604   7.818
16305WAT      O49156   5.527   0.111   4.190
16305WAT     H149157   5.492   0.203   4.169
16305WAT     H249158   5.627   0.113   4.190
16306WAT      O49159   9.116   6.514   6.008
16306WAT     H149160   9.054   6.503   5.931
16306WAT     H249161   9.202   6.465   5.990
16307WAT      O49162   6.011   6.373   5.681
16307WAT     H149163   6.087   6.426   5.644
16307WAT     H249164   5.991   6.296   5.620
16308WAT      O49165   7.053   3.052   4.554
16308WAT     H149166   7.081   3.129   4.612
16308WAT     H249167   7.043   3.083   4.460
16309WAT      O49168   0.999   0.227   3.683
16309WAT     H149169   1.051   0.282   3.749
16309WAT     H249170   0.977   0.138   3.724
16310WAT      O49171   3.699   9.092   4.790
16310WAT     H149172   3.777   9.153   4.776
16310WAT     H249173   3.652   9.117   4.874
16311WAT      O49174   4.859   5.353   3.525
16311WAT     H149175   4.765   5.351   3.490
16311WAT     H249176   4.918   5.398   3.458
16312WAT      O49177   6.019   9.534   4.931
16312WAT     H149178   6.042   9.444   4.968
16312WAT     H249179   5.935   9.528   4.877
16313WAT      O49180   6.369   1.660   8.620
16313WAT     H149181   6.394   1.671   8.524
16313WAT     H249182   6.384   1.566   8.648
16314WAT      O49183   7.046   2.760   7.278
16314WAT     H149184   6.947   2.759   7.267
16314WAT     H249185   7.088   2.799   7.196
16315WAT      O49186   3.522   5.312   0.634
16315WAT     H149187   3.605   5.315   0.578
16315WAT     H249188   3.535   5.370   0.714
16316WAT      O49189   1.732   9.020   0.808
16316WAT     H149190   1.717   8.924   0.782
16316WAT     H249191   1.644   9.064   0.825
16317WAT      O49192   8.491   3.142   1.653
16317WAT     H149193   8.533   3.061   1.695
16317WAT     H249194   8.392   3.129   1.647
16318WAT      O49195   8.393   8.543   3.817
16318WAT     H149196   8.384   8.628   3.869
16318WAT     H249197   8.316   8.483   3.838
16319WAT      O49198   6.452   6.735   0.271
16319WAT     H149199   6.359   6.701   0.258
16319WAT     H249200   6.450   6.817   0.328
16320WAT      O49201   2.783   1.820   5.507
16320WAT     H149202   2.732   1.873   5.575
16320WAT     H249203   2.828   1.743   5.552
16321WAT      O49204   3.091   8.972   3.120
16321WAT     H149205   3.136   9.003   3.204
16321WAT     H249206   3.084   9.048   3.056
16322WAT      O49207   2.642   0.948   4.232
16322WAT     H149208   2.632   0.890   4.313
16322WAT     H249209   2.736   0.943   4.199
16323WAT      O49210   0.257   9.418   2.335
16323WAT     H149211   0.219   9.392   2.246
16323WAT     H249212   0.307   9.341   2.374
16324WAT      O49213   3.342   4.759   2.607
16324WAT     H149214   3.440   4.776   2.613
16324WAT     H249215   3.292   4.843   2.630
16325WAT      O49216   8.108   6.566   6.670
16325WAT     H149217   8.175   6.594   6.740
16325WAT     H249218   8.061   6.647   6.635
16326WAT      O49219   0.833   0.929   4.227
16326WAT     H149220   0.877   0.894   4.310
16326WAT     H249221   0.871   1.019   4.205
16327WAT      O49222   2.757   3.120   6.806
16327WAT     H149223   2.704   3.204   6.813
16327WAT     H249224   2.696   3.046   6.775
16328WAT      O49225   6.181   0.592   6.347
16328WAT     H149226   6.179   0.558   6.441
16328WAT     H249227   6.175   0.692   6.348
16329WAT      O49228   6.256   1.212   3.500
16329WAT     H149229   6.157   1.223   3.507
16329WAT     H249230   6.301   1.260   3.576
16330WAT      O49231   1.250   9.786   3.938
16330WAT     H149232   1.188   9.726   3.887
16330WAT     H249233   1.196   9.853   3.989
16331WAT      O49234   6.801   7.355   3.750
16331WAT     H149235   6.840   7.319   3.835
16331WAT     H249236   6.845   7.312   3.672
16332WAT      O49237   7.073   5.367   6.114
16332WAT     H149238   7.063   5.441   6.046
16332WAT     H249239   7.167   5.367   6.149
16333WAT      O49240   4.089   7.239   8.956
16333WAT     H149241   4.039   7.212   9.038
16333WAT     H249242   4.034   7.217   8.875
16334WAT      O49243   6.588   8.864   3.586
16334WAT     H149244   6.666   8.825   3.635
16334WAT     H249245   6.546   8.794   3.528
16335WAT      O49246   8.175   7.121   8.413
16335WAT     H149247   8.090   7.134   8.463
16335WAT     H249248   8.239   7.195   8.434
16336WAT      O49249   4.343   0.118   6.627
16336WAT     H149250   4.367   0.138   6.723
16336WAT     H249251   4.336   0.019   6.615
16337WAT      O49252   5.828   2.628   9.412
16337WAT     H149253   5.789   2.693   9.347
16337WAT     H249254   5.927   2.625   9.400
16338WAT      O49255   9.081   5.199   6.958
16338WAT     H149256   9.048   5.258   7.032
16338WAT     H249257   9.002   5.161   6.909
16339WAT      O49258   4.472   0.174   5.526
16339WAT     H149259   4.543   0.142   5.589
16339WAT     H249260   4.494   0.267   5.497
16340WAT      O49261   5.933   4.911   8.918
16340WAT     H149262   6.010   4.972   8.901
16340WAT     H249263   5.956   4.850   8.995
16341WAT      O49264   1.865   8.651   4.452
16341WAT     H149265   1.911   8.582   4.508
16341WAT     H249266   1.861   8.737   4.503
16342WAT      O49267   9.541   5.097   4.168
16342WAT     H149268   9.581   5.159   4.100
16342WAT     H249269   9.614   5.054   4.221
16343WAT      O49270   9.816   5.636   3.761
16343WAT     H149271   9.910   5.667   3.744
16343WAT     H249272   9.761   5.713   3.794
16344WAT      O49273   9.158   4.655   2.060
16344WAT     H149274   9.220   4.699   1.995
16344WAT     H249275   9.174   4.557   2.061
16345WAT      O49276   9.866   7.616   5.054
16345WAT     H149277   9.957   7.647   5.026
16345WAT     H249278   9.807   7.611   4.973
16346WAT      O49279   2.597   4.419   5.099
16346WAT     H149280   2.690   4.387   5.083
16346WAT     H249281   2.543   4.403   5.016
16347WAT      O49282   6.909   6.238   6.304
16347WAT     H149283   6.892   6.234   6.402
16347WAT     H249284   6.992   6.186   6.282
16348WAT      O49285   5.204   4.472   9.171
16348WAT     H149286   5.156   4.463   9.258
16348WAT     H249287   5.262   4.553   9.173
16349WAT      O49288   0.490   6.198   7.006
16349WAT     H149289   0.510   6.179   7.102
16349WAT     H249290   0.493   6.113   6.954
16350WAT      O49291   3.490   1.198   1.896
16350WAT     H149292   3.582   1.162   1.914
16350WAT     H249293   3.458   1.249   1.976
16351WAT      O49294   3.582   4.185   0.756
16351WAT     H149295   3.587   4.285   0.763
16351WAT     H249296   3.598   4.144   0.846
16352WAT      O49297   9.096   4.830   1.060
16352WAT     H149298   9.128   4.812   1.154
16352WAT     H249299   9.095   4.744   1.009
16353WAT      O49300   7.120   3.807   0.753
16353WAT     H149301   7.153   3.803   0.848
16353WAT     H249302   7.192   3.776   0.691
16354WAT      O49303   7.775   8.114   4.590
16354WAT     H149304   7.872   8.130   4.609
16354WAT     H249305   7.761   8.017   4.569
16355WAT      O49306   3.188   1.802   6.015
16355WAT     H149307   3.193   1.743   5.935
16355WAT     H249308   3.109   1.776   6.071
16356WAT      O49309   7.875   8.612   2.777
16356WAT     H149310   7.894   8.518   2.805
16356WAT     H249311   7.949   8.672   2.806
16357WAT      O49312   5.234   4.077   6.718
16357WAT     H149313   5.159   4.143   6.708
16357WAT     H249314   5.196   3.989   6.748
16358WAT      O49315   3.931   5.794   7.828
16358WAT     H149316   3.857   5.727   7.818
16358WAT     H249317   3.995   5.783   7.752
16359WAT      O49318   5.737   8.293   0.324
16359WAT     H149319   5.676   8.254   0.392
16359WAT     H249320   5.719   8.251   0.234
16360WAT      O49321   9.158   3.037   4.953
16360WAT     H149322   9.190   2.958   4.901
16360WAT     H249323   9.066   3.020   4.987
16361WAT      O49324   7.860   2.299   6.304
16361WAT     H149325   7.814   2.388   6.303
16361WAT     H249326   7.897   2.279   6.213
16362WAT      O49327   8.652   0.212   1.112
16362WAT     H149328   8.718   0.156   1.063
16362WAT     H249329   8.601   0.154   1.176
16363WAT      O49330   0.879   0.825   7.441
16363WAT     H149331   0.968   0.782   7.457
16363WAT     H249332   0.828   0.773   7.373
16364WAT      O49333   3.597   4.268   9.804
16364WAT     H149334   3.627   4.173   9.800
16364WAT     H249335   3.497   4.272   9.793
16365WAT      O49336   0.713   8.744   1.093
16365WAT     H149337   0.746   8.784   1.008
16365WAT     H249338   0.711   8.645   1.085
16366WAT      O49339   1.230   4.388   8.156
16366WAT     H149340   1.330   4.391   8.153
16366WAT     H249341   1.192   4.450   8.087
16367WAT      O49342   9.635   6.496   2.502
16367WAT     H149343   9.618   6.420   2.439
16367WAT     H249344   9.671   6.461   2.588
16368WAT      O49345   8.190   5.693   4.969
16368WAT     H149346   8.143   5.736   5.046
16368WAT     H249347   8.127   5.684   4.892
16369WAT      O49348   8.397   4.655   4.522
16369WAT     H149349   8.349   4.575   4.487
16369WAT     H249350   8.364   4.737   4.474
16370WAT      O49351   7.808   6.319   9.636
16370WAT     H149352   7.842   6.340   9.727
16370WAT     H249353   7.829   6.395   9.574
16371WAT      O49354   8.592   4.173   2.103
16371WAT     H149355   8.672   4.192   2.047
16371WAT     H249356   8.533   4.254   2.105
16372WAT      O49357   8.434   8.236   5.565
16372WAT     H149358   8.413   8.236   5.467
16372WAT     H249359   8.392   8.156   5.608
16373WAT      O49360   8.828   7.811   0.727
16373WAT     H149361   8.909   7.752   0.720
16373WAT     H249362   8.774   7.802   0.643
16374WAT      O49363   2.944   1.995   4.867
16374WAT     H149364   2.961   1.978   4.964
16374WAT     H249365   2.965   2.091   4.846
16375WAT      O49366   6.848   8.900   4.020
16375WAT     H149367   6.883   8.992   4.005
16375WAT     H249368   6.748   8.900   4.012
16376WAT      O49369   2.545   9.347   8.430
16376WAT     H149370   2.581   9.274   8.372
16376WAT     H249371   2.464   9.315   8.479
16377WAT      O49372   4.362   4.978   4.551
16377WAT     H149373   4.383   5.040   4.628
16377WAT     H249374   4.263   4.963   4.547
16378WAT      O49375   4.483   4.751   2.393
16378WAT     H149376   4.453   4.707   2.309
16378WAT     H249377   4.580   4.775   2.386
16379WAT      O49378   6.751   4.974   9.340
16379WAT     H149379   6.809   5.035   9.394
16379WAT     H249380   6.713   4.902   9.399
16380WAT      O49381   8.791   6.397   1.476
16380WAT     H149382   8.739   6.425   1.557
16380WAT     H249383   8.751   6.314   1.438
16381WAT      O49384   6.071   2.393   9.075
16381WAT     H149385   5.988   2.351   9.113
16381WAT     H249386   6.050   2.436   8.987
16382WAT      O49387   6.867   1.530   5.361
16382WAT     H149388   6.863   1.629   5.350
16382WAT     H249389   6.864   1.486   5.271
16383WAT      O49390   1.022   0.925   2.879
16383WAT     H149391   0.998   0.828   2.877
16383WAT     H249392   1.080   0.946   2.800
16384WAT      O49393   4.753   0.647   8.363
16384WAT     H149394   4.755   0.549   8.381
16384WAT     H249395   4.659   0.676   8.346
16385WAT      O49396   7.644   7.152   5.420
16385WAT     H149397   7.619   7.057   5.439
16385WAT     H249398   7.676   7.195   5.504
16386WAT      O49399   4.668   9.041   6.013
16386WAT     H149400   4.588   8.996   6.053
16386WAT     H249401   4.670   9.024   5.915
16387WAT      O49402   9.253   1.011   0.535
16387WAT     H149403   9.326   1.079   0.522
16387WAT     H249404   9.204   0.998   0.449
16388WAT      O49405   2.359   2.916   5.719
16388WAT     H149406   2.325   2.874   5.635
16388WAT     H249407   2.422   2.990   5.696
16389WAT      O49408   6.487   9.607   4.711
16389WAT     H149409   6.464   9.556   4.628
16389WAT     H249410   6.460   9.702   4.700
16390WAT      O49411   4.935   9.848   2.453
16390WAT     H149412   5.000   9.863   2.528
16390WAT     H249413   4.949   9.757   2.415
16391WAT      O49414   6.551   3.212   6.819
16391WAT     H149415   6.505   3.135   6.774
16391WAT     H249416   6.626   3.177   6.875
16392WAT      O49417   9.625   7.814   4.457
16392WAT     H149418   9.526   7.826   4.457
16392WAT     H249419   9.659   7.817   4.551
16393WAT      O49420   2.617   4.428   0.921
16393WAT     H149421   2.605   4.376   0.836
16393WAT     H249422   2.703   4.401   0.965
16394WAT      O49423   3.078   6.050   5.033
16394WAT     H149424   2.992   6.099   5.043
16394WAT     H249425   3.060   5.954   5.010
16395WAT      O49426   2.167   7.092   8.752
16395WAT     H149427   2.114   7.111   8.835
16395WAT     H249428   2.187   6.994   8.747
16396WAT      O49429   0.164   7.650   6.703
16396WAT     H149430   0.127   7.634   6.612
16396WAT     H249431   0.231   7.724   6.699
16397WAT      O49432   2.867   8.240   9.402
16397WAT     H149433   2.882   8.258   9.305
16397WAT     H249434   2.872   8.325   9.454
16398WAT      O49435   9.633   1.771   1.329
16398WAT     H149436   9.567   1.730   1.266
16398WAT     H249437   9.622   1.871   1.328
16399WAT      O49438   7.077   1.511   6.676
16399WAT     H149439   7.157   1.545   6.726
16399WAT     H249440   7.104   1.489   6.582
16400WAT      O49441   0.224   4.032   1.733
16400WAT     H149442   0.295   4.043   1.803
16400WAT     H249443   0.134   4.033   1.776
16401WAT      O49444   1.265   8.448   9.015
16401WAT     H149445   1.299   8.379   9.079
16401WAT     H249446   1.244   8.532   9.066
16402WAT      O49447   2.047   2.111   8.008
16402WAT     H149448   1.948   2.101   8.001
16402WAT     H249449   2.091   2.030   7.969
16403WAT      O49450   7.694   5.278   4.852
16403WAT     H149451   7.666   5.333   4.930
16403WAT     H249452   7.768   5.216   4.880
16404WAT      O49453   9.301   0.678   7.574
16404WAT     H149454   9.362   0.739   7.524
16404WAT     H249455   9.340   0.659   7.664
16405WAT      O49456   6.937   6.597   5.419
16405WAT     H149457   6.890   6.609   5.506
16405WAT     H249458   6.870   6.574   5.348
16406WAT      O49459   9.386   1.387   1.822
16406WAT     H149460   9.370   1.393   1.921
16406WAT     H249461   9.463   1.327   1.804
16407WAT      O49462   7.347   4.963   4.473
16407WAT     H149463   7.289   4.983   4.552
16407WAT     H249464   7.428   4.912   4.503
16408WAT      O49465   9.704   8.649   7.427
16408WAT     H149466   9.658   8.701   7.355
16408WAT     H249467   9.795   8.622   7.395
16409WAT      O49468   8.654   5.997   6.691
16409WAT     H149469   8.571   6.020   6.639
16409WAT     H249470   8.634   6.005   6.789
16410WAT      O49471   5.424   7.542   0.546
16410WAT     H149472   5.422   7.445   0.571
16410WAT     H249473   5.381   7.595   0.619
16411WAT      O49474   8.867   1.866   5.811
16411WAT     H149475   8.965   1.848   5.810
16411WAT     H249476   8.829   1.840   5.900
16412WAT      O49477   7.211   8.197   8.116
16412WAT     H149478   7.280   8.241   8.173
16412WAT     H249479   7.252   8.170   8.029
16413WAT      O49480   2.169   7.159   5.846
16413WAT     H149481   2.097   7.224   5.869
16413WAT     H249482   2.258   7.196   5.873
16414WAT      O49483   3.761   1.812   9.280
16414WAT     H149484   3.785   1.903   9.315
16414WAT     H249485   3.696   1.768   9.342
16415WAT      O49486   4.890   5.678   8.316
16415WAT     H149487   4.843   5.766   8.320
16415WAT     H249488   4.988   5.691   8.329
16416WAT      O49489   9.703   8.442   7.867
16416WAT     H149490   9.709   8.525   7.812
16416WAT     H249491   9.607   8.420   7.883
16417WAT      O49492   0.341   7.912   3.143
16417WAT     H149493   0.380   7.859   3.068
16417WAT     H249494   0.248   7.942   3.118
16418WAT      O49495   0.026   6.865   5.041
16418WAT     H149496  -0.006   6.902   5.129
16418WAT     H249497   0.098   6.924   5.004
16419WAT      O49498   4.745   1.935   6.702
16419WAT     H149499   4.710   1.964   6.613
16419WAT     H249500   4.771   2.015   6.756
16420WAT      O49501   8.394   8.486   2.346
16420WAT     H149502   8.385   8.489   2.247
16420WAT     H249503   8.356   8.400   2.381
16421WAT      O49504   3.343   7.807   2.217
16421WAT     H149505   3.332   7.883   2.282
16421WAT     H249506   3.363   7.723   2.267
16422WAT      O49507   6.124   2.895   9.630
16422WAT     H149508   6.185   2.872   9.554
16422WAT     H249509   6.049   2.829   9.634
16423WAT      O49510   9.633   3.281   6.246
16423WAT     H149511   9.596   3.198   6.288
16423WAT     H249512   9.730   3.267   6.226
16424WAT      O49513   2.023   7.432   7.039
16424WAT     H149514   2.027   7.357   6.972
16424WAT     H249515   2.088   7.414   7.113
16425WAT      O49516   1.002   5.893   5.184
16425WAT     H149517   0.942   5.965   5.147
16425WAT     H249518   0.946   5.818   5.219
16426WAT      O49519   3.383   8.985   8.148
16426WAT     H149520   3.328   9.042   8.210
16426WAT     H249521   3.323   8.923   8.097
16427WAT      O49522   5.109   8.255   6.268
16427WAT     H149523   5.195   8.264   6.317
16427WAT     H249524   5.070   8.165   6.285
16428WAT      O49525   8.775   0.882   1.283
16428WAT     H149526   8.695   0.843   1.237
16428WAT     H249527   8.756   0.976   1.309
16429WAT      O49528   2.910   4.183   7.018
16429WAT     H149529   2.955   4.229   7.094
16429WAT     H249530   2.979   4.150   6.954
16430WAT      O49531   5.344   7.986   9.445
16430WAT     H149532   5.264   7.926   9.455
16430WAT     H249533   5.327   8.051   9.371
16431WAT      O49534   6.389   8.080   8.855
16431WAT     H149535   6.333   8.158   8.883
16431WAT     H249536   6.376   8.063   8.757
16432WAT      O49537   0.382   2.868   9.394
16432WAT     H149538   0.348   2.948   9.346
16432WAT     H249539   0.312   2.797   9.395
16433WAT      O49540   0.444   1.209   8.676
16433WAT     H149541   0.523   1.239   8.731
16433WAT     H249542   0.360   1.229   8.727
16434WAT      O49543   5.017   0.757   2.479
16434WAT     H149544   4.966   0.779   2.396
16434WAT     H249545   5.114   0.773   2.464
16435WAT      O49546   8.105   7.973   6.151
16435WAT     H149547   8.106   7.937   6.058
16435WAT     H249548   8.144   7.904   6.213
16436WAT      O49549   8.058   3.524   3.743
16436WAT     H149550   8.138   3.570   3.782
16436WAT     H249551   8.050   3.433   3.784
16437WAT      O49552   7.577   0.276   5.812
16437WAT     H149553   7.591   0.374   5.797
16437WAT     H249554   7.650   0.226   5.766
16438WAT      O49555   0.072   0.447   0.723
16438WAT     H149556   0.052   0.366   0.667
16438WAT     H249557   0.035   0.528   0.679
16439WAT      O49558   3.618   2.897   2.211
16439WAT     H149559   3.578   2.873   2.299
16439WAT     H249560   3.572   2.978   2.175
16440WAT      O49561   3.422   9.411   2.643
16440WAT     H149562   3.509   9.381   2.603
16440WAT     H249563   3.381   9.336   2.694
16441WAT      O49564   6.088   9.429   8.044
16441WAT     H149565   6.120   9.522   8.060
16441WAT     H249566   6.159   9.364   8.069
16442WAT      O49567   7.797   9.311   2.543
16442WAT     H149568   7.730   9.253   2.495
16442WAT     H249569   7.866   9.342   2.478
16443WAT      O49570   2.704   6.325   6.493
16443WAT     H149571   2.607   6.333   6.517
16443WAT     H249572   2.750   6.267   6.559
16444WAT      O49573   8.584   1.818   7.762
16444WAT     H149574   8.501   1.868   7.786
16444WAT     H249575   8.592   1.737   7.820
16445WAT      O49576   3.210   9.218   8.530
16445WAT     H149577   3.129   9.202   8.587
16445WAT     H249578   3.290   9.174   8.573
16446WAT      O49579   2.439   4.042   5.305
16446WAT     H149580   2.444   4.067   5.401
16446WAT     H249581   2.529   4.057   5.262
16447WAT      O49582   9.369   1.637   9.331
16447WAT     H149583   9.416   1.702   9.390
16447WAT     H249584   9.408   1.546   9.344
16448WAT      O49585   2.721   5.020   5.413
16448WAT     H149586   2.726   5.115   5.445
16448WAT     H249587   2.640   5.008   5.356
16449WAT      O49588   9.722   1.282   4.133
16449WAT     H149589   9.665   1.325   4.203
16449WAT     H249590   9.700   1.322   4.044
16450WAT      O49591   7.825   8.117   8.481
16450WAT     H149592   7.730   8.094   8.500
16450WAT     H249593   7.877   8.032   8.469
16451WAT      O49594   7.343   0.861   7.266
16451WAT     H149595   7.380   0.942   7.311
16451WAT     H249596   7.414   0.821   7.207
16452WAT      O49597   9.767   4.102   1.544
16452WAT     H149598   9.764   4.202   1.538
16452WAT     H249599   9.832   4.074   1.614
16453WAT      O49600   9.615   9.501   1.462
16453WAT     H149601   9.555   9.422   1.455
16453WAT     H249602   9.710   9.471   1.466
16454WAT      O49603   3.851   5.887   5.622
16454WAT     H149604   3.932   5.860   5.570
16454WAT     H249605   3.878   5.910   5.715
16455WAT      O49606   0.827   1.137   5.758
16455WAT     H149607   0.836   1.177   5.667
16455WAT     H249608   0.862   1.200   5.826
16456WAT      O49609   3.079   2.052   0.506
16456WAT     H149610   3.168   2.093   0.488
16456WAT     H249611   3.081   1.955   0.483
16457WAT      O49612   1.821   1.049   0.708
16457WAT     H149613   1.782   1.132   0.667
16457WAT     H249614   1.804   1.050   0.806
16458WAT      O49615   3.072   6.715   2.920
16458WAT     H149616   2.987   6.664   2.905
16458WAT     H249617   3.074   6.795   2.861
16459WAT      O49618   7.596   8.564   7.196
16459WAT     H149619   7.598   8.499   7.120
16459WAT     H249620   7.677   8.621   7.193
16460WAT      O49621   9.874   8.335   6.474
16460WAT     H149622   9.925   8.399   6.532
16460WAT     H249623   9.937   8.290   6.411
16461WAT      O49624   0.222   1.070   1.701
16461WAT     H149625   0.274   1.056   1.616
16461WAT     H249626   0.279   1.119   1.767
16462WAT      O49627   6.597   2.126   7.028
16462WAT     H149628   6.595   2.077   6.940
16462WAT     H249629   6.576   2.222   7.012
16463WAT      O49630   7.353   4.116   3.154
16463WAT     H149631   7.277   4.056   3.178
16463WAT     H249632   7.352   4.133   3.055
16464WAT      O49633   2.848   6.456   1.768
16464WAT     H149634   2.801   6.389   1.825
16464WAT     H249635   2.885   6.411   1.687
16465WAT      O49636   4.960   1.942   2.301
16465WAT     H149637   5.029   1.888   2.254
16465WAT     H249638   4.908   1.996   2.234
16466WAT      O49639   0.422   4.040   3.002
16466WAT     H149640   0.513   4.081   3.002
16466WAT     H249641   0.397   4.014   2.909
16467WAT      O49642   6.454   3.004   7.404
16467WAT     H149643   6.440   2.908   7.382
16467WAT     H249644   6.431   3.020   7.500
16468WAT      O49645   7.062   3.249   5.412
16468WAT     H149646   7.046   3.346   5.398
16468WAT     H249647   7.154   3.225   5.381
16469WAT      O49648   4.966   3.020   6.972
16469WAT     H149649   5.008   3.096   7.023
16469WAT     H249650   5.027   2.941   6.975
16470WAT      O49651   7.685   4.635   2.640
16470WAT     H149652   7.624   4.588   2.704
16470WAT     H249653   7.637   4.713   2.601
16471WAT      O49654   2.132   2.582   9.255
16471WAT     H149655   2.067   2.515   9.289
16471WAT     H249656   2.083   2.655   9.207
16472WAT      O49657   9.738   5.259   8.268
16472WAT     H149658   9.689   5.228   8.186
16472WAT     H249659   9.721   5.196   8.343
16473WAT      O49660   0.649   6.523   0.379
16473WAT     H149661   0.744   6.511   0.349
16473WAT     H249662   0.592   6.451   0.340
16474WAT      O49663   0.638   6.768   1.108
16474WAT     H149664   0.581   6.761   1.027
16474WAT     H249665   0.632   6.684   1.162
16475WAT      O49666   4.088   8.226   5.479
16475WAT     H149667   4.062   8.316   5.515
16475WAT     H249668   4.173   8.235   5.427
16476WAT      O49669   2.764   4.657   6.017
16476WAT     H149670   2.785   4.640   6.113
16476WAT     H249671   2.742   4.754   6.004
16477WAT      O49672   1.341   1.781   0.740
16477WAT     H149673   1.372   1.839   0.815
16477WAT     H249674   1.410   1.782   0.667
16478WAT      O49675   5.034   8.960   7.198
16478WAT     H149676   4.950   8.914   7.225
16478WAT     H249677   5.042   8.959   7.098
16479WAT      O49678   6.095   6.395   7.608
16479WAT     H149679   6.059   6.302   7.616
16479WAT     H249680   6.054   6.453   7.678
16480WAT      O49681   9.019   4.770   0.357
16480WAT     H149682   9.026   4.859   0.401
16480WAT     H249683   8.970   4.778   0.271
16481WAT      O49684   3.228   8.747   3.521
16481WAT     H149685   3.290   8.780   3.593
16481WAT     H249686   3.144   8.713   3.563
16482WAT      O49687   9.673   4.192   0.192
16482WAT     H149688   9.687   4.197   0.093
16482WAT     H249689   9.759   4.213   0.239
16483WAT      O49690   2.834   7.045   1.122
16483WAT     H149691   2.835   7.001   1.212
16483WAT     H249692   2.928   7.065   1.093
16484WAT      O49693   1.885   8.901   3.142
16484WAT     H149694   1.858   8.972   3.207
16484WAT     H249695   1.844   8.814   3.168
16485WAT      O49696   1.889   4.313   6.142
16485WAT     H149697   1.940   4.391   6.107
16485WAT     H249698   1.915   4.230   6.092
16486WAT      O49699   1.146   9.349   8.012
16486WAT     H149700   1.181   9.256   8.029
16486WAT     H249701   1.199   9.414   8.066
16487WAT      O49702   8.434   1.268   4.623
16487WAT     H149703   8.446   1.360   4.586
16487WAT     H249704   8.339   1.256   4.652
16488WAT      O49705   3.779   6.115   6.148
16488WAT     H149706   3.779   6.211   6.118
16488WAT     H249707   3.834   6.105   6.230
16489WAT      O49708   6.720   7.500   5.031
16489WAT     H149709   6.761   7.517   5.120
16489WAT     H249710   6.745   7.574   4.968
16490WAT      O49711   8.061   4.060   6.664
16490WAT     H149712   8.042   4.142   6.718
16490WAT     H249713   8.155   4.030   6.682
16491WAT      O49714   0.498   6.659   3.416
16491WAT     H149715   0.567   6.634   3.485
16491WAT     H249716   0.456   6.746   3.441
16492WAT      O49717   9.684   0.513   6.856
16492WAT     H149718   9.615   0.451   6.821
16492WAT     H249719   9.709   0.488   6.949
16493WAT      O49720   7.008   2.481   5.344
16493WAT     H149721   7.058   2.438   5.269
16493WAT     H249722   6.911   2.486   5.321
16494WAT      O49723   4.119   9.000   9.098
16494WAT     H149724   4.066   8.923   9.062
16494WAT     H249725   4.057   9.072   9.129
16495WAT      O49726   2.309   2.726   0.863
16495WAT     H149727   2.317   2.628   0.844
16495WAT     H249728   2.342   2.745   0.955
16496WAT      O49729   0.532   3.184   4.570
16496WAT     H149730   0.591   3.221   4.498
16496WAT     H249731   0.473   3.256   4.605
16497WAT      O49732   0.562   6.412   9.521
16497WAT     H149733   0.587   6.433   9.616
16497WAT     H249734   0.554   6.313   9.510
16498WAT      O49735   8.590   1.512   0.382
16498WAT     H149736   8.542   1.558   0.308
16498WAT     H249737   8.669   1.463   0.346
16499WAT      O49738   0.932   3.042   2.949
16499WAT     H149739   0.925   2.948   2.982
16499WAT     H249740   1.006   3.090   2.996
16500WAT      O49741   8.360   6.007   0.636
16500WAT     H149742   8.391   6.007   0.541
16500WAT     H249743   8.260   6.006   0.639
16501WAT      O49744   5.312   0.792   1.664
16501WAT     H149745   5.384   0.726   1.685
16501WAT     H249746   5.337   0.843   1.582
16502WAT      O49747   3.686   5.502   4.337
16502WAT     H149748   3.673   5.461   4.428
16502WAT     H249749   3.671   5.433   4.267
16503WAT      O49750   7.150   0.018   1.963
16503WAT     H149751   7.082  -0.048   1.996
16503WAT     H249752   7.105   0.106   1.946
16504WAT      O49753   6.856   7.420   0.619
16504WAT     H149754   6.799   7.498   0.593
16504WAT     H249755   6.869   7.360   0.540
16505WAT      O49756   7.866   6.797   3.350
16505WAT     H149757   7.889   6.715   3.299
16505WAT     H249758   7.903   6.791   3.443
16506WAT      O49759   5.372   8.192   8.148
16506WAT     H149760   5.428   8.232   8.221
16506WAT     H249761   5.293   8.146   8.189
16507WAT      O49762   4.193   2.793   2.638
16507WAT     H149763   4.149   2.757   2.720
16507WAT     H249764   4.285   2.826   2.661
16508WAT      O49765   7.610   3.720   6.890
16508WAT     H149766   7.559   3.745   6.972
16508WAT     H249767   7.701   3.689   6.916
16509WAT      O49768   2.096   2.901   2.155
16509WAT     H149769   2.118   2.862   2.065
16509WAT     H249770   2.020   2.965   2.145
16510WAT      O49771   7.035   2.821   8.448
16510WAT     H149772   6.975   2.782   8.518
16510WAT     H249773   7.074   2.906   8.481
16511WAT      O49774   3.627   1.167   9.763
16511WAT     H149775   3.627   1.247   9.703
16511WAT     H249776   3.606   1.085   9.709
16512WAT      O49777   2.804   9.311   2.971
16512WAT     H149778   2.739   9.382   2.944
16512WAT     H249779   2.768   9.261   3.050
16513WAT      O49780   6.323   5.629   7.320
16513WAT     H149781   6.388   5.671   7.257
16513WAT     H249782   6.278   5.699   7.374
16514WAT      O49783   9.003   1.141   5.824
16514WAT     H149784   8.962   1.145   5.732
16514WAT     H249785   8.967   1.061   5.872
16515WAT      O49786   5.933   1.915   0.528
16515WAT     H149787   5.903   1.922   0.623
16515WAT     H249788   6.032   1.924   0.523
16516WAT      O49789   3.740   7.440   0.231
16516WAT     H149790   3.645   7.410   0.219
16516WAT     H249791   3.800   7.360   0.238
16517WAT      O49792   8.461   9.033   5.758
16517WAT     H149793   8.364   9.057   5.765
16517WAT     H249794   8.470   8.937   5.731
16518WAT      O49795   2.124   5.126   6.644
16518WAT     H149796   2.148   5.031   6.622
16518WAT     H249797   2.185   5.161   6.714
16519WAT      O49798   4.873   0.595   2.082
16519WAT     H149799   4.905   0.501   2.071
16519WAT     H249800   4.877   0.621   2.178
16520WAT      O49801   3.889   9.402   2.287
16520WAT     H149802   3.919   9.463   2.214
16520WAT     H249803   3.853   9.318   2.247
16521WAT      O49804   6.607   7.815   7.481
16521WAT     H149805   6.549   7.794   7.402
16521WAT     H249806   6.604   7.913   7.499
16522WAT      O49807   7.289   7.807   5.565
16522WAT     H149808   7.290   7.785   5.467
16522WAT     H249809   7.291   7.906   5.577
16523WAT      O49810   5.137   4.201   9.531
16523WAT     H149811   5.121   4.111   9.490
16523WAT     H249812   5.065   4.220   9.597
16524WAT      O49813   4.872   1.816   7.540
16524WAT     H149814   4.879   1.885   7.611
16524WAT     H249815   4.800   1.842   7.475
16525WAT      O49816   3.764   5.166   3.151
16525WAT     H149817   3.747   5.263   3.138
16525WAT     H249818   3.835   5.153   3.221
16526WAT      O49819   4.227   7.750   6.530
16526WAT     H149820   4.211   7.652   6.540
16526WAT     H249821   4.307   7.765   6.471
16527WAT      O49822   9.676   6.720   8.385
16527WAT     H149823   9.775   6.710   8.375
16527WAT     H249824   9.652   6.717   8.482
16528WAT      O49825   0.294   5.278   0.371
16528WAT     H149826   0.382   5.260   0.326
16528WAT     H249827   0.273   5.376   0.367
16529WAT      O49828   9.766   5.268   3.142
16529WAT     H149829   9.761   5.201   3.216
16529WAT     H249830   9.785   5.358   3.181
16530WAT      O49831   4.110   6.946   1.658
16530WAT     H149832   4.041   7.015   1.636
16530WAT     H249833   4.179   6.943   1.586
16531WAT      O49834   9.864   7.069   4.377
16531WAT     H149835   9.880   7.046   4.473
16531WAT     H249836   9.843   6.986   4.325
16532WAT      O49837   8.730   5.260   0.685
16532WAT     H149838   8.813   5.315   0.679
16532WAT     H249839   8.723   5.221   0.777
16533WAT      O49840   6.277   6.952   1.230
16533WAT     H149841   6.348   6.882   1.235
16533WAT     H249842   6.318   7.040   1.209
16534WAT      O49843   0.836   7.741   8.919
16534WAT     H149844   0.793   7.746   9.009
16534WAT     H249845   0.765   7.746   8.848
16535WAT      O49846   9.252   2.834   6.720
16535WAT     H149847   9.191   2.792   6.787
16535WAT     H249848   9.225   2.804   6.628
16536WAT      O49849   6.670   6.807   4.062
16536WAT     H149850   6.700   6.724   4.017
16536WAT     H249851   6.741   6.840   4.124
16537WAT      O49852   5.778   6.265   6.960
16537WAT     H149853   5.729   6.180   6.977
16537WAT     H249854   5.740   6.311   6.879
16538WAT      O49855   8.828   0.603   4.838
16538WAT     H149856   8.838   0.637   4.931
16538WAT     H249857   8.743   0.552   4.830
16539WAT      O49858   4.785   2.723   4.024
16539WAT     H149859   4.713   2.789   4.046
16539WAT     H249860   4.783   2.648   4.090
16540WAT      O49861   2.345   4.608   4.780
16540WAT     H149862   2.272   4.549   4.743
16540WAT     H249863   2.431   4.586   4.735
16541WAT      O49864   0.556   1.811   0.804
16541WAT     H149865   0.542   1.888   0.866
16541WAT     H249866   0.510   1.829   0.717
16542WAT      O49867   9.471   7.087   2.160
16542WAT     H149868   9.552   7.103   2.105
16542WAT     H249869   9.498   7.054   2.251
16543WAT      O49870   0.210   3.775   8.129
16543WAT     H149871   0.281   3.705   8.124
16543WAT     H249872   0.169   3.775   8.220
16544WAT      O49873   0.699   3.961   7.519
16544WAT     H149874   0.707   3.908   7.434
16544WAT     H249875   0.653   4.048   7.499
16545WAT      O49876   0.154   2.195   1.284
16545WAT     H149877   0.067   2.230   1.320
16545WAT     H249878   0.192   2.129   1.349
16546WAT      O49879   7.917   6.843   1.434
16546WAT     H149880   7.890   6.867   1.341
16546WAT     H249881   7.843   6.791   1.477
16547WAT      O49882   7.466   7.650   3.789
16547WAT     H149883   7.433   7.561   3.819
16547WAT     H249884   7.398   7.694   3.731
16548WAT      O49885   0.474   5.153   7.198
16548WAT     H149886   0.477   5.059   7.232
16548WAT     H249887   0.394   5.199   7.235
16549WAT      O49888   3.045   3.806   2.755
16549WAT     H149889   3.136   3.801   2.794
16549WAT     H249890   2.990   3.729   2.788
16550WAT      O49891   8.257   4.245   7.796
16550WAT     H149892   8.199   4.315   7.838
16550WAT     H249893   8.340   4.233   7.850
16551WAT      O49894   4.815   7.020   7.202
16551WAT     H149895   4.860   6.976   7.124
16551WAT     H249896   4.816   6.957   7.280
16552WAT      O49897   2.861   4.229   1.915
16552WAT     H149898   2.783   4.291   1.915
16552WAT     H249899   2.922   4.252   1.840
16553WAT      O49900   9.795   5.609   9.420
16553WAT     H149901   9.879   5.615   9.473
16553WAT     H249902   9.762   5.701   9.398
16554WAT      O49903   0.437   2.840   5.909
16554WAT     H149904   0.379   2.796   5.978
16554WAT     H249905   0.479   2.922   5.948
16555WAT      O49906   3.613   2.245   2.681
16555WAT     H149907   3.553   2.257   2.602
16555WAT     H249908   3.594   2.317   2.748
16556WAT      O49909   7.309   7.463   8.499
16556WAT     H149910   7.233   7.513   8.458
16556WAT     H249911   7.313   7.481   8.597
16557WAT      O49912   8.610   7.258   7.868
16557WAT     H149913   8.592   7.307   7.783
16557WAT     H249914   8.659   7.173   7.847
16558WAT      O49915   3.351   0.208   4.176
16558WAT     H149916   3.334   0.266   4.255
16558WAT     H249917   3.397   0.124   4.205
16559WAT      O49918   9.378   7.611   9.698
16559WAT     H149919   9.320   7.536   9.666
16559WAT     H249920   9.472   7.578   9.709
16560WAT      O49921   2.962   8.374   6.603
16560WAT     H149922   2.871   8.416   6.608
16560WAT     H249923   2.987   8.362   6.506
16561WAT      O49924   1.849   6.800   8.147
16561WAT     H149925   1.839   6.882   8.203
16561WAT     H249926   1.928   6.811   8.086
16562WAT      O49927   5.587   5.718   5.411
16562WAT     H149928   5.533   5.798   5.438
16562WAT     H249929   5.609   5.664   5.492
16563WAT      O49930   1.903   1.435   4.226
16563WAT     H149931   1.809   1.465   4.242
16563WAT     H249932   1.903   1.338   4.200
16564WAT      O49933   0.673   4.820   6.677
16564WAT     H149934   0.762   4.807   6.720
16564WAT     H249935   0.611   4.863   6.742
16565WAT      O49936   5.211   1.861   4.737
16565WAT     H149937   5.251   1.817   4.658
16565WAT     H249938   5.224   1.804   4.818
16566WAT      O49939   4.193   7.552   5.244
16566WAT     H149940   4.151   7.637   5.276
16566WAT     H249941   4.281   7.539   5.290
16567WAT      O49942   4.703   0.660   5.624
16567WAT     H149943   4.795   0.632   5.652
16567WAT     H249944   4.707   0.750   5.580
16568WAT      O49945   8.035   5.137   8.090
16568WAT     H149946   7.998   5.046   8.106
16568WAT     H249947   8.091   5.165   8.168
16569WAT      O49948   8.019   3.566   0.637
16569WAT     H149949   8.001   3.639   0.702
16569WAT     H249950   8.094   3.593   0.576
16570WAT      O49951   3.425   2.653   8.168
16570WAT     H149952   3.473   2.587   8.226
16570WAT     H249953   3.331   2.663   8.200
16571WAT      O49954   3.885   2.817   0.215
16571WAT     H149955   3.949   2.841   0.142
16571WAT     H249956   3.887   2.718   0.230
16572WAT      O49957   3.805   8.191   4.011
16572WAT     H149958   3.753   8.152   3.935
16572WAT     H249959   3.875   8.252   3.975
16573WAT      O49960   1.180   6.288   7.096
16573WAT     H149961   1.095   6.237   7.082
16573WAT     H249962   1.258   6.228   7.080
16574WAT      O49963   3.949   8.834   2.463
16574WAT     H149964   4.004   8.917   2.459
16574WAT     H249965   3.990   8.770   2.528
16575WAT      O49966   3.892   0.325   8.118
16575WAT     H149967   3.960   0.279   8.060
16575WAT     H249968   3.835   0.384   8.061
16576WAT      O49969   0.697   4.862   1.967
16576WAT     H149970   0.719   4.955   1.997
16576WAT     H249971   0.754   4.797   2.017
16577WAT      O49972   7.256   2.673   8.812
16577WAT     H149973   7.237   2.626   8.726
16577WAT     H249974   7.191   2.748   8.825
16578WAT      O49975   7.527   4.290   2.441
16578WAT     H149976   7.513   4.254   2.349
16578WAT     H249977   7.515   4.216   2.508
16579WAT      O49978   5.944   6.062   2.006
16579WAT     H149979   5.882   6.036   1.933
16579WAT     H249980   5.936   5.997   2.082
16580WAT      O49981   9.186   2.273   9.062
16580WAT     H149982   9.193   2.187   9.113
16580WAT     H249983   9.155   2.346   9.123
16581WAT      O49984   2.978   9.302   2.450
16581WAT     H149985   2.946   9.349   2.368
16581WAT     H249986   2.915   9.319   2.525
16582WAT      O49987   8.789   4.884   4.297
16582WAT     H149988   8.835   4.796   4.309
16582WAT     H249989   8.713   4.890   4.362
16583WAT      O49990   2.715   1.764   5.243
16583WAT     H149991   2.659   1.818   5.180
16583WAT     H249992   2.687   1.782   5.337
16584WAT      O49993   9.686   0.619   2.361
16584WAT     H149994   9.591   0.597   2.384
16584WAT     H249995   9.745   0.542   2.386
16585WAT      O49996   9.541   0.600   0.231
16585WAT     H149997   9.469   0.579   0.165
16585WAT     H249998   9.512   0.677   0.288
16586WAT      O49999   1.706   1.125   1.594
16586WAT     H150000   1.668   1.209   1.634
16586WAT     H250001   1.702   1.131   1.494
16587WAT      O50002   3.032   2.460   5.419
16587WAT     H150003   3.047   2.554   5.387
16587WAT     H250004   3.098   2.439   5.491
16588WAT      O50005   8.267   3.980   4.089
16588WAT     H150006   8.330   4.056   4.104
16588WAT     H250007   8.180   4.016   4.055
16589WAT      O50008   4.852   5.881   6.002
16589WAT     H150009   4.921   5.891   6.074
16589WAT     H250010   4.883   5.926   5.919
16590WAT      O50011   7.956   3.564   8.634
16590WAT     H150012   7.961   3.530   8.728
16590WAT     H250013   7.956   3.664   8.636
16591WAT      O50014   4.302   3.095   2.786
16591WAT     H150015   4.322   3.183   2.742
16591WAT     H250016   4.351   3.022   2.738
16592WAT      O50017   2.028   3.938   9.611
16592WAT     H150018   2.054   3.926   9.515
16592WAT     H250019   2.105   3.978   9.661
16593WAT      O50020   7.227   5.143   0.487
16593WAT     H150021   7.226   5.242   0.473
16593WAT     H250022   7.316   5.106   0.459
16594WAT      O50023   8.514   8.345   2.597
16594WAT     H150024   8.551   8.437   2.585
16594WAT     H250025   8.418   8.351   2.623
16595WAT      O50026   7.392   1.610   7.062
16595WAT     H150027   7.335   1.579   7.137
16595WAT     H250028   7.417   1.705   7.076
16596WAT      O50029   5.015   9.000   3.215
16596WAT     H150030   5.091   8.996   3.150
16596WAT     H250031   5.044   9.048   3.298
16597WAT      O50032   6.999   4.129   1.736
16597WAT     H150033   6.996   4.047   1.678
16597WAT     H250034   7.086   4.177   1.722
16598WAT      O50035   9.159   3.818   8.638
16598WAT     H150036   9.139   3.772   8.724
16598WAT     H250037   9.220   3.761   8.583
16599WAT      O50038   7.372   7.076   2.877
16599WAT     H150039   7.395   6.982   2.854
16599WAT     H250040   7.431   7.108   2.950
16600WAT      O50041   8.593   7.747   5.658
16600WAT     H150042   8.673   7.688   5.657
16600WAT     H250043   8.578   7.786   5.567
16601WAT      O50044   9.274   3.144   7.651
16601WAT     H150045   9.189   3.128   7.601
16601WAT     H250046   9.325   3.058   7.657
16602WAT      O50047   3.610   0.365   1.752
16602WAT     H150048   3.662   0.445   1.783
16602WAT     H250049   3.514   0.389   1.740
16603WAT      O50050   3.137   8.880   3.922
16603WAT     H150051   3.199   8.857   3.847
16603WAT     H250052   3.150   8.815   3.997
16604WAT      O50053   3.203   8.177   2.051
16604WAT     H150054   3.137   8.108   2.079
16604WAT     H250055   3.246   8.150   1.965
16605WAT      O50056   2.496   4.776   8.130
16605WAT     H150057   2.461   4.762   8.223
16605WAT     H250058   2.419   4.788   8.067
16606WAT      O50059   2.614   9.202   4.363
16606WAT     H150060   2.712   9.187   4.354
16606WAT     H250061   2.597   9.292   4.403
16607WAT      O50062   3.655   4.521   4.250
16607WAT     H150063   3.730   4.456   4.263
16607WAT     H250064   3.652   4.548   4.153
16608WAT      O50065   0.601   1.144   3.315
16608WAT     H150066   0.535   1.204   3.269
16608WAT     H250067   0.603   1.167   3.413
16609WAT      O50068   1.342   3.262   8.021
16609WAT     H150069   1.435   3.278   7.988
16609WAT     H250070   1.295   3.349   8.031
16610WAT      O50071   1.731   9.353   5.682
16610WAT     H150072   1.757   9.335   5.587
16610WAT     H250073   1.723   9.267   5.731
16611WAT      O50074   4.549   9.083   3.701
16611WAT     H150075   4.514   8.992   3.679
16611WAT     H250076   4.643   9.091   3.669
16612WAT      O50077   1.727   8.331   3.139
16612WAT     H150078   1.730   8.420   3.094
16612WAT     H250079   1.732   8.343   3.238
16613WAT      O50080   4.283   3.804   4.924
16613WAT     H150081   4.190   3.769   4.917
16613WAT     H250082   4.339   3.768   4.850
16614WAT      O50083   0.437   2.185   8.628
16614WAT     H150084   0.520   2.224   8.668
16614WAT     H250085   0.413   2.101   8.677
16615WAT      O50086   1.489   6.620   4.946
16615WAT     H150087   1.579   6.651   4.916
16615WAT     H250088   1.495   6.527   4.981
16616WAT      O50089   5.760   4.112   4.536
16616WAT     H150090   5.850   4.120   4.579
16616WAT     H250091   5.743   4.016   4.511
16617WAT      O50092   6.035   1.763   9.873
16617WAT     H150093   6.072   1.690   9.816
16617WAT     H250094   5.949   1.732   9.915
16618WAT      O50095   3.435   0.353   8.594
16618WAT     H150096   3.454   0.443   8.632
16618WAT     H250097   3.340   0.349   8.562
16619WAT      O50098   1.207   7.388   6.023
16619WAT     H150099   1.128   7.418   6.076
16619WAT     H250100   1.275   7.462   6.019
16620WAT      O50101   1.488   0.377   3.160
16620WAT     H150102   1.521   0.466   3.127
16620WAT     H250103   1.392   0.386   3.190
16621WAT      O50104   1.588   1.482   2.014
16621WAT     H150105   1.632   1.405   2.059
16621WAT     H250106   1.489   1.475   2.027
16622WAT      O50107   6.427   3.803   5.267
16622WAT     H150108   6.442   3.795   5.169
16622WAT     H250109   6.494   3.747   5.316
16623WAT      O50110   1.689   5.527   9.571
16623WAT     H150111   1.779   5.536   9.612
16623WAT     H250112   1.674   5.432   9.544
16624WAT      O50113   7.529   1.057   7.331
16624WAT     H150114   7.565   1.010   7.412
16624WAT     H250115   7.510   1.153   7.354
16625WAT      O50116   0.235   6.498   2.705
16625WAT     H150117   0.160   6.535   2.650
16625WAT     H250118   0.198   6.437   2.775
16626WAT      O50119   4.389   3.192   5.919
16626WAT     H150120   4.439   3.169   5.836
16626WAT     H250121   4.361   3.288   5.917
16627WAT      O50122   7.632   9.507   7.231
16627WAT     H150123   7.650   9.605   7.219
16627WAT     H250124   7.620   9.487   7.328
16628WAT      O50125   2.837   4.162   8.674
16628WAT     H150126   2.783   4.122   8.601
16628WAT     H250127   2.900   4.230   8.637
16629WAT      O50128   7.258   3.166   1.171
16629WAT     H150129   7.296   3.246   1.217
16629WAT     H250130   7.169   3.144   1.211
16630WAT      O50131   9.819   5.366   7.886
16630WAT     H150132   9.732   5.415   7.888
16630WAT     H250133   9.803   5.269   7.903
16631WAT      O50134   7.073   6.849   9.442
16631WAT     H150135   6.981   6.885   9.456
16631WAT     H250136   7.138   6.900   9.498
16632WAT      O50137   5.051   0.354   5.550
16632WAT     H150138   5.014   0.443   5.576
16632WAT     H250139   5.017   0.285   5.614
16633WAT      O50140   6.743   4.334   0.050
16633WAT     H150141   6.654   4.376   0.069
16633WAT     H250142   6.791   4.389  -0.020
16634WAT      O50143   1.040   9.421   4.152
16634WAT     H150144   1.094   9.474   4.087
16634WAT     H250145   1.084   9.332   4.167
16635WAT      O50146   8.263   1.294   0.065
16635WAT     H150147   8.223   1.369   0.117
16635WAT     H250148   8.339   1.328   0.010
16636WAT      O50149   9.251   0.072   2.446
16636WAT     H150150   9.284   0.084   2.352
16636WAT     H250151   9.322   0.100   2.510
16637WAT      O50152   9.153   3.013   2.534
16637WAT     H150153   9.240   2.965   2.533
16637WAT     H250154   9.148   3.074   2.455
16638WAT      O50155   7.417   1.111   5.044
16638WAT     H150156   7.369   1.023   5.049
16638WAT     H250157   7.458   1.121   4.954
16639WAT      O50158   1.535   1.551   6.409
16639WAT     H150159   1.483   1.472   6.376
16639WAT     H250160   1.495   1.585   6.494
16640WAT      O50161   3.571   6.944   3.124
16640WAT     H150162   3.609   6.853   3.141
16640WAT     H250163   3.641   7.001   3.080
16641WAT      O50164   4.986   5.291   7.089
16641WAT     H150165   4.923   5.243   7.150
16641WAT     H250166   4.961   5.273   6.994
16642WAT      O50167   0.857   8.228   9.857
16642WAT     H150168   0.773   8.201   9.905
16642WAT     H250169   0.920   8.270   9.922
16643WAT      O50170   3.640   2.748   4.129
16643WAT     H150171   3.542   2.741   4.113
16643WAT     H250172   3.678   2.823   4.076
16644WAT      O50173   0.989   0.010   9.650
16644WAT     H150174   0.901  -0.013   9.608
16644WAT     H250175   1.028   0.090   9.604
16645WAT      O50176   5.704   8.716   1.022
16645WAT     H150177   5.681   8.749   0.931
16645WAT     H250178   5.655   8.631   1.040
16646WAT      O50179   5.334   6.236   5.874
16646WAT     H150180   5.299   6.142   5.882
16646WAT     H250181   5.342   6.260   5.777
16647WAT      O50182   2.996   2.438   4.318
16647WAT     H150183   2.964   2.361   4.262
16647WAT     H250184   2.932   2.514   4.310
16648WAT      O50185   1.916   0.773   5.851
16648WAT     H150186   1.928   0.829   5.933
16648WAT     H250187   1.840   0.808   5.796
16649WAT      O50188   6.554   0.018   0.673
16649WAT     H150189   6.513  -0.060   0.625
16649WAT     H250190   6.653   0.014   0.665
16650WAT      O50191   9.853   5.081   2.264
16650WAT     H150192   9.786   5.116   2.198
16650WAT     H250193   9.805   5.029   2.335
16651WAT      O50194   4.792   7.992   7.542
16651WAT     H150195   4.710   7.935   7.555
16651WAT     H250196   4.868   7.934   7.514
16652WAT      O50197   7.315   6.667   3.756
16652WAT     H150198   7.270   6.609   3.688
16652WAT     H250199   7.315   6.621   3.845
16653WAT      O50200   7.418   4.838   6.623
16653WAT     H150201   7.323   4.838   6.592
16653WAT     H250202   7.447   4.933   6.639
16654WAT      O50203   2.997   5.753   9.748
16654WAT     H150204   3.027   5.847   9.766
16654WAT     H250205   2.957   5.748   9.657
16655WAT      O50206   5.544   1.975   0.602
16655WAT     H150207   5.583   2.038   0.669
16655WAT     H250208   5.563   1.881   0.631
16656WAT      O50209   2.723   0.465   1.235
16656WAT     H150210   2.800   0.488   1.294
16656WAT     H250211   2.756   0.419   1.153
16657WAT      O50212   0.322   4.070   9.061
16657WAT     H150213   0.286   4.143   9.119
16657WAT     H250214   0.317   4.099   8.965
16658WAT      O50215   6.028   3.458   7.862
16658WAT     H150216   5.954   3.433   7.799
16658WAT     H250217   6.013   3.551   7.895
16659WAT      O50218   4.019   5.858   3.826
16659WAT     H150219   4.018   5.925   3.900
16659WAT     H250220   4.032   5.905   3.738
16660WAT      O50221   3.517   6.421   1.894
16660WAT     H150222   3.506   6.488   1.821
16660WAT     H250223   3.614   6.397   1.904
16661WAT      O50224   3.692   3.449   2.350
16661WAT     H150225   3.752   3.370   2.362
16661WAT     H250226   3.653   3.474   2.438
16662WAT      O50227   7.941   6.225   4.445
16662WAT     H150228   7.884   6.165   4.390
16662WAT     H250229   7.937   6.318   4.408
16663WAT      O50230   0.049   8.689   0.011
16663WAT     H150231  -0.004   8.767  -0.021
16663WAT     H250232   0.003   8.649   0.091
16664WAT      O50233   0.178   6.701   1.393
16664WAT     H150234   0.142   6.609   1.413
16664WAT     H250235   0.261   6.716   1.447
16665WAT      O50236   9.233   4.399   2.022
16665WAT     H150237   9.170   4.343   2.076
16665WAT     H250238   9.327   4.366   2.034
16666WAT      O50239   2.050   5.314   4.267
16666WAT     H150240   2.063   5.273   4.357
16666WAT     H250241   2.136   5.354   4.236
16667WAT      O50242   7.800   2.288   1.666
16667WAT     H150243   7.812   2.248   1.575
16667WAT     H250244   7.791   2.215   1.734
16668WAT      O50245   6.619   2.399   7.332
16668WAT     H150246   6.656   2.462   7.400
16668WAT     H250247   6.694   2.350   7.287
16669WAT      O50248   8.195   8.550   0.238
16669WAT     H150249   8.245   8.498   0.169
16669WAT     H250250   8.140   8.488   0.294
16670WAT      O50251   0.937   0.232   3.060
16670WAT     H150252   0.842   0.225   3.028
16670WAT     H250253   0.942   0.206   3.156
16671WAT      O50254   8.220   3.026   8.052
16671WAT     H150255   8.251   3.116   8.020
16671WAT     H250256   8.167   3.037   8.136
16672WAT      O50257   5.358   7.878   0.994
16672WAT     H150258   5.360   7.831   1.083
16672WAT     H250259   5.274   7.931   0.988
16673WAT      O50260   9.481   0.530   5.949
16673WAT     H150261   9.574   0.558   5.973
16673WAT     H250262   9.466   0.436   5.979
16674WAT      O50263   0.085   6.297   2.292
16674WAT     H150264   0.021   6.291   2.369
16674WAT     H250265   0.172   6.255   2.318
16675WAT      O50266   4.986   9.695   6.393
16675WAT     H150267   5.060   9.631   6.374
16675WAT     H250268   5.013   9.758   6.466
16676WAT      O50269   4.308   7.914   9.084
16676WAT     H150270   4.254   7.998   9.075
16676WAT     H250271   4.246   7.837   9.101
16677WAT      O50272   6.812   3.620   6.227
16677WAT     H150273   6.874   3.638   6.150
16677WAT     H250274   6.853   3.553   6.288
16678WAT      O50275   1.036   5.326   1.122
16678WAT     H150276   0.938   5.306   1.122
16678WAT     H250277   1.082   5.262   1.059
16679WAT      O50278   0.505   5.997   0.004
16679WAT     H150279   0.447   5.923   0.037
16679WAT     H250280   0.599   5.980   0.033
16680WAT      O50281   8.496   9.261   6.054
16680WAT     H150282   8.576   9.218   6.013
16680WAT     H250283   8.523   9.305   6.140
16681WAT      O50284   0.706   5.794   2.209
16681WAT     H150285   0.685   5.811   2.305
16681WAT     H250286   0.647   5.851   2.152
16682WAT      O50287   8.039   4.063   4.551
16682WAT     H150288   8.023   4.077   4.453
16682WAT     H250289   8.061   4.150   4.594
16683WAT      O50290   3.507   1.654   3.873
16683WAT     H150291   3.601   1.634   3.903
16683WAT     H250292   3.458   1.568   3.858
16684WAT      O50293   8.533   5.499   7.187
16684WAT     H150294   8.446   5.466   7.150
16684WAT     H250295   8.606   5.480   7.121
16685WAT      O50296   3.186   8.936   6.017
16685WAT     H150297   3.159   9.009   5.955
16685WAT     H250298   3.105   8.884   6.046
16686WAT      O50299   3.748   8.692   4.700
16686WAT     H150300   3.829   8.638   4.678
16686WAT     H250301   3.713   8.734   4.616
16687WAT      O50302   8.911   4.306   8.279
16687WAT     H150303   8.961   4.388   8.303
16687WAT     H250304   8.862   4.320   8.193
16688WAT      O50305   2.709   9.565   8.007
16688WAT     H150306   2.714   9.475   7.963
16688WAT     H250307   2.697   9.553   8.105
16689WAT      O50308   2.145   8.478   7.142
16689WAT     H150309   2.097   8.414   7.201
16689WAT     H250310   2.090   8.561   7.130
16690WAT      O50311   4.194   2.434   6.227
16690WAT     H150312   4.239   2.468   6.144
16690WAT     H250313   4.208   2.499   6.301
16691WAT      O50314   2.447   9.445   5.527
16691WAT     H150315   2.520   9.503   5.563
16691WAT     H250316   2.475   9.349   5.529
16692WAT      O50317   7.623   1.027   2.648
16692WAT     H150318   7.582   0.979   2.571
16692WAT     H250319   7.711   0.983   2.671
16693WAT      O50320   0.101   4.413   4.467
16693WAT     H150321   0.046   4.353   4.525
16693WAT     H250322   0.105   4.504   4.509
16694WAT      O50323   7.777   7.060   0.959
16694WAT     H150324   7.735   7.009   0.884
16694WAT     H250325   7.873   7.079   0.936
16695WAT      O50326   7.005   0.309   0.178
16695WAT     H150327   7.095   0.283   0.144
16695WAT     H250328   6.968   0.237   0.236
16696WAT      O50329   4.700   2.156   4.688
16696WAT     H150330   4.647   2.135   4.606
16696WAT     H250331   4.772   2.221   4.665
16697WAT      O50332   7.708   7.962   3.398
16697WAT     H150333   7.804   7.984   3.411
16697WAT     H250334   7.676   7.904   3.473
16698WAT      O50335   3.489   8.610   4.758
16698WAT     H150336   3.500   8.548   4.835
16698WAT     H250337   3.570   8.668   4.750
16699WAT      O50338   5.906   1.960   6.828
16699WAT     H150339   5.952   1.996   6.747
16699WAT     H250340   5.951   1.996   6.910
16700WAT      O50341   9.007   9.644   7.896
16700WAT     H150342   9.093   9.671   7.941
16700WAT     H250343   8.951   9.593   7.961
16701WAT      O50344   2.769   7.247   4.010
16701WAT     H150345   2.859   7.254   4.053
16701WAT     H250346   2.724   7.337   4.011
16702WAT      O50347   9.174   7.453   6.885
16702WAT     H150348   9.132   7.373   6.928
16702WAT     H250349   9.147   7.457   6.789
16703WAT      O50350   2.635   7.498   0.304
16703WAT     H150351   2.621   7.408   0.345
16703WAT     H250352   2.633   7.567   0.376
16704WAT      O50353   8.066   4.423   7.916
16704WAT     H150354   8.073   4.462   8.007
16704WAT     H250355   7.973   4.388   7.901
16705WAT      O50356   8.189   0.164   4.901
16705WAT     H150357   8.097   0.196   4.926
16705WAT     H250358   8.235   0.128   4.982
16706WAT      O50359   9.218   9.743   9.121
16706WAT     H150360   9.191   9.702   9.208
16706WAT     H250361   9.162   9.705   9.047
16707WAT      O50362   8.214   6.999   8.713
16707WAT     H150363   8.174   6.926   8.659
16707WAT     H250364   8.183   7.087   8.679
16708WAT      O50365   4.436   6.521   3.150
16708WAT     H150366   4.374   6.486   3.221
16708WAT     H250367   4.426   6.465   3.067
16709WAT      O50368   6.137   9.765   2.853
16709WAT     H150369   6.105   9.679   2.890
16709WAT     H250370   6.236   9.771   2.863
16710WAT      O50371   4.842   5.974   0.454
16710WAT     H150372   4.816   6.069   0.469
16710WAT     H250373   4.801   5.917   0.525
16711WAT      O50374   5.215   9.689   5.020
16711WAT     H150375   5.314   9.705   5.018
16711WAT     H250376   5.180   9.711   5.111
16712WAT      O50377   7.193   0.176   3.336
16712WAT     H150378   7.116   0.114   3.355
16712WAT     H250379   7.190   0.204   3.240
16713WAT      O50380   1.067   9.041   9.670
16713WAT     H150381   0.975   9.070   9.697
16713WAT     H250382   1.061   8.984   9.588
16714WAT      O50383   0.814   3.833   4.403
16714WAT     H150384   0.857   3.892   4.334
16714WAT     H250385   0.744   3.885   4.452
16715WAT      O50386   5.456   0.781   1.053
16715WAT     H150387   5.488   0.868   1.090
16715WAT     H250388   5.365   0.762   1.090
16716WAT      O50389   3.077   5.988   3.981
16716WAT     H150390   3.168   5.996   4.021
16716WAT     H250391   3.008   6.012   4.049
16717WAT      O50392   6.123   7.160   3.762
16717WAT     H150393   6.056   7.109   3.816
16717WAT     H250394   6.183   7.212   3.824
16718WAT      O50395   1.688   0.991   3.439
16718WAT     H150396   1.588   0.983   3.446
16718WAT     H250397   1.716   1.083   3.467
16719WAT      O50398   5.168   9.126   8.312
16719WAT     H150399   5.171   9.121   8.212
16719WAT     H250400   5.190   9.036   8.350
16720WAT      O50401   4.225   4.122   2.806
16720WAT     H150402   4.178   4.200   2.767
16720WAT     H250403   4.192   4.037   2.763
16721WAT      O50404   4.273   6.210   5.709
16721WAT     H150405   4.324   6.243   5.788
16721WAT     H250406   4.175   6.214   5.728
16722WAT      O50407   6.217   9.184   2.842
16722WAT     H150408   6.205   9.202   2.940
16722WAT     H250409   6.178   9.096   2.819
16723WAT      O50410   4.004   6.493   0.540
16723WAT     H150411   3.918   6.520   0.583
16723WAT     H250412   4.042   6.571   0.490
16724WAT      O50413   5.230   3.897   2.119
16724WAT     H150414   5.219   3.800   2.141
16724WAT     H250415   5.322   3.926   2.145
16725WAT      O50416   7.924   4.890   0.599
16725WAT     H150417   7.969   4.802   0.617
16725WAT     H250418   7.917   4.904   0.501
16726WAT      O50419   2.452   1.342   7.729
16726WAT     H150420   2.513   1.269   7.759
16726WAT     H250421   2.488   1.383   7.645
16727WAT      O50422   6.426   3.608   6.091
16727WAT     H150423   6.463   3.701   6.093
16727WAT     H250424   6.483   3.548   6.148
16728WAT      O50425   2.443   9.179   4.978
16728WAT     H150426   2.540   9.186   4.958
16728WAT     H250427   2.425   9.216   5.069
16729WAT      O50428   7.442   9.711   5.943
16729WAT     H150429   7.465   9.618   5.974
16729WAT     H250430   7.525   9.766   5.939
16730WAT      O50431   0.983   0.977   9.410
16730WAT     H150432   0.898   0.986   9.462
16730WAT     H250433   1.059   1.012   9.464
16731WAT      O50434   9.187   8.131   0.898
16731WAT     H150435   9.095   8.122   0.860
16731WAT     H250436   9.224   8.221   0.874
16732WAT      O50437   6.485   1.077   2.352
16732WAT     H150438   6.418   1.148   2.372
16732WAT     H250439   6.577   1.116   2.355
16733WAT      O50440   6.977   8.126   5.260
16733WAT     H150441   7.067   8.124   5.215
16733WAT     H250442   6.906   8.144   5.192
16734WAT      O50443   5.813   2.821   4.393
16734WAT     H150444   5.899   2.771   4.380
16734WAT     H250445   5.742   2.758   4.421
16735WAT      O50446   4.346   5.132   2.207
16735WAT     H150447   4.313   5.226   2.201
16735WAT     H250448   4.269   5.071   2.227
16736WAT      O50449   8.625   1.840   6.485
16736WAT     H150450   8.639   1.785   6.402
16736WAT     H250451   8.693   1.913   6.488
16737WAT      O50452   0.346   9.137   2.410
16737WAT     H150453   0.400   9.054   2.392
16737WAT     H250454   0.260   9.111   2.453
16738WAT      O50455   6.049   8.814   8.471
16738WAT     H150456   6.005   8.725   8.471
16738WAT     H250457   6.140   8.807   8.429
16739WAT      O50458   1.596   6.886   0.964
16739WAT     H150459   1.565   6.907   1.056
16739WAT     H250460   1.661   6.956   0.933
16740WAT      O50461   0.477   4.975   4.194
16740WAT     H150462   0.414   5.023   4.133
16740WAT     H250463   0.448   4.988   4.289
16741WAT      O50464   5.203   5.983   3.415
16741WAT     H150465   5.202   6.027   3.504
16741WAT     H250466   5.218   6.051   3.343
16742WAT      O50467   3.420   8.907   2.176
16742WAT     H150468   3.345   8.972   2.177
16742WAT     H250469   3.399   8.831   2.237
16743WAT      O50470   2.810   2.339   5.007
16743WAT     H150471   2.868   2.336   5.088
16743WAT     H250472   2.769   2.429   4.999
16744WAT      O50473   6.108   2.816   8.941
16744WAT     H150474   6.055   2.860   8.868
16744WAT     H250475   6.183   2.764   8.901
16745WAT      O50476   7.889   7.455   5.384
16745WAT     H150477   7.790   7.460   5.379
16745WAT     H250478   7.928   7.544   5.360
16746WAT      O50479   9.122   4.069   4.651
16746WAT     H150480   9.103   3.972   4.633
16746WAT     H250481   9.093   4.124   4.573
16747WAT      O50482   9.312   8.953   3.134
16747WAT     H150483   9.279   8.867   3.094
16747WAT     H250484   9.371   8.933   3.212
16748WAT      O50485   2.371   1.663   7.585
16748WAT     H150486   2.424   1.740   7.621
16748WAT     H250487   2.288   1.651   7.640
16749WAT      O50488   1.534   5.109   7.084
16749WAT     H150489   1.564   5.112   6.988
16749WAT     H250490   1.434   5.101   7.086
16750WAT      O50491   6.446   3.263   3.891
16750WAT     H150492   6.389   3.207   3.831
16750WAT     H250493   6.397   3.348   3.913
16751WAT      O50494   5.857   9.005   8.459
16751WAT     H150495   5.919   8.926   8.464
16751WAT     H250496   5.823   9.027   8.550
16752WAT      O50497   5.814   2.295   9.106
16752WAT     H150498   5.731   2.351   9.098
16752WAT     H250499   5.791   2.199   9.089
16753WAT      O50500   3.474   1.241   4.568
16753WAT     H150501   3.496   1.256   4.472
16753WAT     H250502   3.491   1.325   4.620
16754WAT      O50503   0.633   6.454   8.934
16754WAT     H150504   0.615   6.383   8.866
16754WAT     H250505   0.706   6.514   8.902
16755WAT      O50506   0.860   1.363   9.804
16755WAT     H150507   0.910   1.344   9.888
16755WAT     H250508   0.924   1.397   9.735
16756WAT      O50509   1.069   5.736   8.626
16756WAT     H150510   1.087   5.727   8.528
16756WAT     H250511   0.975   5.709   8.645
16757WAT      O50512   1.891   6.611   3.212
16757WAT     H150513   1.911   6.600   3.115
16757WAT     H250514   1.803   6.568   3.234
16758WAT      O50515   1.337   8.497   7.425
16758WAT     H150516   1.314   8.592   7.405
16758WAT     H250517   1.275   8.462   7.496
16759WAT      O50518   8.454   7.209   3.643
16759WAT     H150519   8.441   7.202   3.545
16759WAT     H250520   8.425   7.124   3.687
16760WAT      O50521   4.084   6.717   6.627
16760WAT     H150522   4.133   6.748   6.708
16760WAT     H250523   3.987   6.738   6.637
16761WAT      O50524   7.887   4.428   1.986
16761WAT     H150525   7.959   4.373   2.027
16761WAT     H250526   7.917   4.460   1.896
16762WAT      O50527   6.532   2.802   0.640
16762WAT     H150528   6.566   2.723   0.588
16762WAT     H250529   6.599   2.876   0.635
16763WAT      O50530   4.417   6.746   2.803
16763WAT     H150531   4.360   6.669   2.834
16763WAT     H250532   4.363   6.804   2.742
16764WAT      O50533   4.721   7.554   1.167
16764WAT     H150534   4.644   7.618   1.169
16764WAT     H250535   4.731   7.517   1.074
16765WAT      O50536   1.454   5.568   4.751
16765WAT     H150537   1.533   5.629   4.756
16765WAT     H250538   1.438   5.541   4.656
16766WAT      O50539   6.573   5.717   2.764
16766WAT     H150540   6.656   5.735   2.710
16766WAT     H250541   6.526   5.636   2.728
16767WAT      O50542   8.704   2.109   5.909
16767WAT     H150543   8.700   2.067   5.818
16767WAT     H250544   8.784   2.074   5.958
16768WAT      O50545   8.282   5.725   6.963
16768WAT     H150546   8.335   5.757   7.041
16768WAT     H250547   8.318   5.637   6.932
16769WAT      O50548   5.860   6.083   6.527
16769WAT     H150549   5.863   6.007   6.591
16769WAT     H250550   5.923   6.155   6.558
16770WAT      O50551   4.265   3.179   1.504
16770WAT     H150552   4.196   3.250   1.521
16770WAT     H250553   4.231   3.091   1.536
16771WAT      O50554   1.069   8.978   7.739
16771WAT     H150555   1.125   8.905   7.700
16771WAT     H250556   0.983   8.985   7.687
16772WAT      O50557   3.507   5.674   4.202
16772WAT     H150558   3.576   5.622   4.251
16772WAT     H250559   3.545   5.761   4.171
16773WAT      O50560   8.457   8.358   1.829
16773WAT     H150561   8.502   8.442   1.798
16773WAT     H250562   8.518   8.307   1.889
16774WAT      O50563   5.647   8.590   4.178
16774WAT     H150564   5.663   8.679   4.135
16774WAT     H250565   5.720   8.571   4.243
16775WAT      O50566   4.386   4.147   8.935
16775WAT     H150567   4.322   4.107   9.001
16775WAT     H250568   4.447   4.211   8.982
16776WAT      O50569   4.017   5.549   1.992
16776WAT     H150570   4.088   5.616   1.971
16776WAT     H250571   3.968   5.577   2.075
16777WAT      O50572   8.465   5.074   4.340
16777WAT     H150573   8.479   5.067   4.241
16777WAT     H250574   8.375   5.111   4.358
16778WAT      O50575   1.002   7.635   5.216
16778WAT     H150576   0.924   7.696   5.201
16778WAT     H250577   0.975   7.541   5.200
16779WAT      O50578   9.355   2.086   5.177
16779WAT     H150579   9.454   2.100   5.177
16779WAT     H250580   9.330   2.019   5.108
16780WAT      O50581   0.279   6.704   9.636
16780WAT     H150582   0.358   6.759   9.662
16780WAT     H250583   0.281   6.687   9.538
16781WAT      O50584   5.005   1.419   1.943
16781WAT     H150585   4.973   1.380   2.029
16781WAT     H250586   5.031   1.515   1.958
16782WAT      O50587   7.876   8.768   3.205
16782WAT     H150588   7.784   8.797   3.177
16782WAT     H250589   7.883   8.770   3.304
16783WAT      O50590   2.357   4.993   3.503
16783WAT     H150591   2.427   5.059   3.476
16783WAT     H250592   2.298   5.034   3.573
16784WAT      O50593   2.649   5.628   0.865
16784WAT     H150594   2.632   5.687   0.944
16784WAT     H250595   2.598   5.662   0.786
16785WAT      O50596   5.853   8.451   2.188
16785WAT     H150597   5.890   8.470   2.097
16785WAT     H250598   5.927   8.453   2.256
16786WAT      O50599   8.050   4.872   6.988
16786WAT     H150600   8.011   4.891   7.078
16786WAT     H250601   8.111   4.793   6.994
16787WAT      O50602   7.807   6.172   7.766
16787WAT     H150603   7.747   6.248   7.792
16787WAT     H250604   7.818   6.110   7.843
16788WAT      O50605   4.113   0.948   0.863
16788WAT     H150606   4.064   0.885   0.803
16788WAT     H250607   4.159   1.017   0.808
16789WAT      O50608   3.918   7.202   9.736
16789WAT     H150609   3.905   7.297   9.765
16789WAT     H250610   3.922   7.199   9.636
16790WAT      O50611   6.175   1.285   7.214
16790WAT     H150612   6.181   1.256   7.119
16790WAT     H250613   6.081   1.273   7.247
16791WAT      O50614   8.666   6.998   9.756
16791WAT     H150615   8.646   6.989   9.853
16791WAT     H250616   8.763   7.017   9.743
16792WAT      O50617   5.321   7.996   3.240
16792WAT     H150618   5.378   7.913   3.230
16792WAT     H250619   5.283   7.998   3.333
16793WAT      O50620   2.041   6.209   6.298
16793WAT     H150621   1.990   6.282   6.253
16793WAT     H250622   2.126   6.191   6.247
16794WAT      O50623   3.392   8.283   8.046
16794WAT     H150624   3.404   8.195   8.092
16794WAT     H250625   3.307   8.282   7.993
16795WAT      O50626   4.056   0.836   4.532
16795WAT     H150627   4.030   0.740   4.523
16795WAT     H250628   4.027   0.886   4.450
16796WAT      O50629   1.076   2.042   1.453
16796WAT     H150630   1.159   2.048   1.398
16796WAT     H250631   1.084   2.101   1.533
16797WAT      O50632   2.117   4.735   8.383
16797WAT     H150633   2.074   4.790   8.454
16797WAT     H250634   2.106   4.781   8.295
16798WAT      O50635   6.326   1.790   0.887
16798WAT     H150636   6.363   1.709   0.933
16798WAT     H250637   6.292   1.764   0.797
16799WAT      O50638   4.829   6.159   0.193
16799WAT     H150639   4.771   6.081   0.170
16799WAT     H250640   4.826   6.175   0.291
16800WAT      O50641   4.669   6.757   9.230
16800WAT     H150642   4.729   6.703   9.289
16800WAT     H250643   4.719   6.837   9.196
16801WAT      O50644   7.908   1.156   7.141
16801WAT     H150645   7.881   1.219   7.069
16801WAT     H250646   7.884   1.194   7.230
16802WAT      O50647   9.057   1.276   7.519
16802WAT     H150648   8.976   1.298   7.574
16802WAT     H250649   9.054   1.326   7.432
16803WAT      O50650   0.449   5.285   1.140
16803WAT     H150651   0.500   5.204   1.110
16803WAT     H250652   0.498   5.367   1.110
16804WAT      O50653   5.182   5.533   0.134
16804WAT     H150654   5.128   5.450   0.121
16804WAT     H250655   5.187   5.554   0.231
16805WAT      O50656   9.143   9.208   8.004
16805WAT     H150657   9.173   9.256   8.087
16805WAT     H250658   9.123   9.274   7.932
16806WAT      O50659   3.506   8.928   2.894
16806WAT     H150660   3.584   8.932   2.832
16806WAT     H250661   3.534   8.888   2.981
16807WAT      O50662   2.390   1.798   8.968
16807WAT     H150663   2.327   1.845   9.030
16807WAT     H250664   2.369   1.823   8.874
16808WAT      O50665   4.276   1.969   9.777
16808WAT     H150666   4.192   1.947   9.827
16808WAT     H250667   4.322   1.884   9.752
16809WAT      O50668   4.011   9.746   0.716
16809WAT     H150669   3.981   9.657   0.750
16809WAT     H250670   4.106   9.739   0.684
16810WAT      O50671   1.513   2.996   9.586
16810WAT     H150672   1.578   2.938   9.636
16810WAT     H250673   1.420   2.963   9.603
16811WAT      O50674   8.013   0.587   3.647
16811WAT     H150675   8.109   0.567   3.626
16811WAT     H250676   7.984   0.667   3.595
16812WAT      O50677   7.686   1.802   1.977
16812WAT     H150678   7.602   1.857   1.978
16812WAT     H250679   7.681   1.733   2.050
16813WAT      O50680   0.404   5.476   8.830
16813WAT     H150681   0.472   5.409   8.860
16813WAT     H250682   0.379   5.535   8.906
16814WAT      O50683   9.570   7.312   8.884
16814WAT     H150684   9.493   7.340   8.826
16814WAT     H250685   9.645   7.378   8.874
16815WAT      O50686   5.537   4.034   8.214
16815WAT     H150687   5.528   3.990   8.125
16815WAT     H250688   5.583   4.122   8.204
16816WAT      O50689   4.354   9.223   4.781
16816WAT     H150690   4.438   9.169   4.774
16816WAT     H250691   4.294   9.202   4.704
16817WAT      O50692   7.850   7.078   6.254
16817WAT     H150693   7.812   6.995   6.213
16817WAT     H250694   7.877   7.141   6.181
16818WAT      O50695   6.126   6.224   5.878
16818WAT     H150696   6.173   6.148   5.834
16818WAT     H250697   6.072   6.274   5.811
16819WAT      O50698   6.779   5.294   3.981
16819WAT     H150699   6.690   5.297   3.936
16819WAT     H250700   6.789   5.207   4.029
16820WAT      O50701   8.376   0.672   7.877
16820WAT     H150702   8.331   0.734   7.812
16820WAT     H250703   8.417   0.725   7.951
16821WAT      O50704   1.825   3.101   8.134
16821WAT     H150705   1.803   3.174   8.069
16821WAT     H250706   1.923   3.103   8.154
16822WAT      O50707   1.375   1.047   9.544
16822WAT     H150708   1.434   0.974   9.511
16822WAT     H250709   1.332   1.093   9.466
16823WAT      O50710   8.233   4.976   2.030
16823WAT     H150711   8.204   4.956   2.124
16823WAT     H250712   8.155   4.965   1.968
16824WAT      O50713   3.662   2.048   5.474
16824WAT     H150714   3.671   1.979   5.545
16824WAT     H250715   3.687   2.008   5.386
16825WAT      O50716   5.238   2.301   8.951
16825WAT     H150717   5.226   2.377   9.015
16825WAT     H250718   5.151   2.252   8.941
16826WAT      O50719   0.890   2.491   5.807
16826WAT     H150720   0.931   2.452   5.889
16826WAT     H250721   0.790   2.485   5.813
16827WAT      O50722   3.474   4.004   4.865
16827WAT     H150723   3.503   3.952   4.946
16827WAT     H250724   3.435   3.942   4.797
16828WAT      O50725   3.001   2.592   9.186
16828WAT     H150726   3.047   2.653   9.122
16828WAT     H250727   2.905   2.618   9.194
16829WAT      O50728   8.939   2.277   5.698
16829WAT     H150729   9.004   2.215   5.654
16829WAT     H250730   8.926   2.358   5.641
16830WAT      O50731   6.722   6.556   7.826
16830WAT     H150732   6.635   6.507   7.824
16830WAT     H250733   6.775   6.526   7.905
16831WAT      O50734   1.725   9.504   8.157
16831WAT     H150735   1.740   9.446   8.237
16831WAT     H250736   1.653   9.465   8.099
16832WAT      O50737   1.076   5.302   9.472
16832WAT     H150738   1.045   5.396   9.463
16832WAT     H250739   1.100   5.265   9.382
16833WAT      O50740   9.125   7.173   9.175
16833WAT     H150741   9.223   7.177   9.161
16833WAT     H250742   9.085   7.264   9.165
16834WAT      O50743   2.410   6.821   4.848
16834WAT     H150744   2.353   6.798   4.926
16834WAT     H250745   2.409   6.920   4.833
16835WAT      O50746   5.408   0.983   8.254
16835WAT     H150747   5.336   0.920   8.225
16835WAT     H250748   5.451   0.947   8.337
16836WAT      O50749   4.204   8.636   2.065
16836WAT     H150750   4.257   8.713   2.101
16836WAT     H250751   4.173   8.658   1.973
16837WAT      O50752   9.380   1.366   9.324
16837WAT     H150753   9.371   1.323   9.235
16837WAT     H250754   9.298   1.346   9.379
16838WAT      O50755   1.908   7.273   1.255
16838WAT     H150756   1.962   7.202   1.300
16838WAT     H250757   1.928   7.273   1.157
16839WAT      O50758   4.504   9.207   5.623
16839WAT     H150759   4.552   9.291   5.648
16839WAT     H250760   4.516   9.190   5.526
16840WAT      O50761   2.117   2.921   4.660
16840WAT     H150762   2.048   2.853   4.684
16840WAT     H250763   2.078   3.013   4.668
16841WAT      O50764   3.947   1.601   4.261
16841WAT     H150765   3.977   1.606   4.356
16841WAT     H250766   4.020   1.563   4.205
16842WAT      O50767   6.570   9.466   7.033
16842WAT     H150768   6.518   9.542   6.993
16842WAT     H250769   6.512   9.417   7.097
16843WAT      O50770   9.476   1.326   3.460
16843WAT     H150771   9.515   1.414   3.431
16843WAT     H250772   9.462   1.327   3.559
16844WAT      O50773   1.755   3.012   1.012
16844WAT     H150774   1.669   3.014   1.064
16844WAT     H250775   1.784   2.918   0.998
16845WAT      O50776   0.998   2.704   5.309
16845WAT     H150777   1.054   2.693   5.226
16845WAT     H250778   0.905   2.730   5.282
16846WAT      O50779   3.223   0.452   1.126
16846WAT     H150780   3.139   0.489   1.165
16846WAT     H250781   3.301   0.507   1.155
16847WAT      O50782   1.572   7.401   5.672
16847WAT     H150783   1.561   7.411   5.573
16847WAT     H250784   1.562   7.491   5.716
16848WAT      O50785   1.532   6.125   9.356
16848WAT     H150786   1.617   6.167   9.327
16848WAT     H250787   1.484   6.086   9.277
16849WAT      O50788   4.499   6.846   2.398
16849WAT     H150789   4.419   6.793   2.429
16849WAT     H250790   4.515   6.828   2.301
16850WAT      O50791   7.256   1.505   7.952
16850WAT     H150792   7.351   1.525   7.976
16850WAT     H250793   7.243   1.520   7.854
16851WAT      O50794   4.988   0.018   9.141
16851WAT     H150795   4.908   0.021   9.080
16851WAT     H250796   5.000   0.106   9.185
16852WAT      O50797   1.555   8.787   1.554
16852WAT     H150798   1.464   8.808   1.517
16852WAT     H250799   1.602   8.725   1.492
16853WAT      O50800   7.556   6.345   1.242
16853WAT     H150801   7.559   6.246   1.247
16853WAT     H250802   7.532   6.383   1.331
16854WAT      O50803   4.114   1.386   2.112
16854WAT     H150804   4.190   1.360   2.171
16854WAT     H250805   4.042   1.428   2.168
16855WAT      O50806   2.832   4.530   9.221
16855WAT     H150807   2.865   4.584   9.143
16855WAT     H250808   2.747   4.483   9.196
16856WAT      O50809   1.201   7.842   4.416
16856WAT     H150810   1.106   7.853   4.388
16856WAT     H250811   1.258   7.827   4.336
16857WAT      O50812   2.759   5.585   6.976
16857WAT     H150813   2.750   5.624   6.885
16857WAT     H250814   2.700   5.635   7.040
16858WAT      O50815   3.796   2.643   9.162
16858WAT     H150816   3.726   2.698   9.116
16858WAT     H250817   3.861   2.608   9.094
16859WAT      O50818   0.884   2.266   7.759
16859WAT     H150819   0.889   2.241   7.663
16859WAT     H250820   0.789   2.287   7.783
16860WAT      O50821   9.114   9.762   6.988
16860WAT     H150822   9.133   9.826   7.062
16860WAT     H250823   9.193   9.703   6.974
16861WAT      O50824   8.309   9.513   0.997
16861WAT     H150825   8.238   9.584   0.999
16861WAT     H250826   8.284   9.439   1.059
16862WAT      O50827   6.815   8.981   1.060
16862WAT     H150828   6.873   9.040   1.004
16862WAT     H250829   6.849   8.979   1.154
16863WAT      O50830   2.747   6.833   6.051
16863WAT     H150831   2.811   6.905   6.020
16863WAT     H250832   2.653   6.867   6.043
16864WAT      O50833   6.033   7.112   8.790
16864WAT     H150834   6.073   7.191   8.835
16864WAT     H250835   5.940   7.133   8.762
16865WAT      O50836   1.507   4.313   0.147
16865WAT     H150837   1.581   4.271   0.094
16865WAT     H250838   1.522   4.412   0.152
16866WAT      O50839   5.412   2.250   7.253
16866WAT     H150840   5.437   2.172   7.196
16866WAT     H250841   5.494   2.291   7.292
16867WAT      O50842   9.090   8.877   5.406
16867WAT     H150843   9.007   8.839   5.447
16867WAT     H250844   9.102   8.841   5.314
16868WAT      O50845   5.592   2.320   0.272
16868WAT     H150846   5.571   2.223   0.262
16868WAT     H250847   5.611   2.339   0.369
16869WAT      O50848   3.432   7.331   6.068
16869WAT     H150849   3.527   7.308   6.046
16869WAT     H250850   3.428   7.377   6.156
16870WAT      O50851   6.832   7.828   3.645
16870WAT     H150852   6.865   7.863   3.557
16870WAT     H250853   6.873   7.739   3.663
16871WAT      O50854   7.972   6.599   8.795
16871WAT     H150855   7.877   6.569   8.789
16871WAT     H250856   8.000   6.602   8.891
16872WAT      O50857   7.864   6.975   9.441
16872WAT     H150858   7.788   7.035   9.416
16872WAT     H250859   7.880   6.980   9.540
16873WAT      O50860   9.362   2.586   0.299
16873WAT     H150861   9.403   2.677   0.292
16873WAT     H250862   9.272   2.593   0.343
16874WAT      O50863   3.887   3.904   0.176
16874WAT     H150864   3.961   3.930   0.237
16874WAT     H250865   3.800   3.938   0.213
16875WAT      O50866   5.402   7.285   2.165
16875WAT     H150867   5.441   7.260   2.253
16875WAT     H250868   5.388   7.384   2.161
16876WAT      O50869   2.993   1.845   7.630
16876WAT     H150870   2.922   1.912   7.652
16876WAT     H250871   2.992   1.827   7.531
16877WAT      O50872   3.005   3.888   9.807
16877WAT     H150873   2.914   3.848   9.806
16877WAT     H250874   3.012   3.954   9.882
16878WAT      O50875   3.226   6.631   2.288
16878WAT     H150876   3.177   6.642   2.201
16878WAT     H250877   3.317   6.595   2.270
16879WAT      O50878   9.336   9.761   4.088
16879WAT     H150879   9.302   9.806   4.170
16879WAT     H250880   9.430   9.790   4.070
16880WAT      O50881   8.106   8.968   5.599
16880WAT     H150882   8.123   9.010   5.510
16880WAT     H250883   8.147   9.024   5.671
16881WAT      O50884   5.396   5.767   4.210
16881WAT     H150885   5.327   5.694   4.214
16881WAT     H250886   5.487   5.727   4.223
16882WAT      O50887   7.172   9.007   7.032
16882WAT     H150888   7.129   8.924   7.067
16882WAT     H250889   7.119   9.087   7.059
16883WAT      O50890   1.951   0.888   2.346
16883WAT     H150891   2.050   0.876   2.341
16883WAT     H250892   1.923   0.965   2.289
16884WAT      O50893   5.129   2.411   2.843
16884WAT     H150894   5.138   2.325   2.794
16884WAT     H250895   5.216   2.461   2.841
16885WAT      O50896   2.864   1.560   8.516
16885WAT     H150897   2.955   1.598   8.505
16885WAT     H250898   2.843   1.502   8.437
16886WAT      O50899   6.898   9.173   5.642
16886WAT     H150900   6.951   9.224   5.709
16886WAT     H250901   6.845   9.236   5.585
16887WAT      O50902   9.522   8.639   8.704
16887WAT     H150903   9.552   8.734   8.696
16887WAT     H250904   9.473   8.627   8.790
16888WAT      O50905   6.026   3.398   4.531
16888WAT     H150906   6.070   3.361   4.613
16888WAT     H250907   5.940   3.350   4.515
16889WAT      O50908   1.882   9.377   4.992
16889WAT     H150909   1.965   9.412   5.034
16889WAT     H250910   1.807   9.442   5.004
16890WAT      O50911   5.566   1.076   1.017
16890WAT     H150912   5.583   1.095   0.920
16890WAT     H250913   5.642   1.112   1.071
16891WAT      O50914   8.952   3.917   1.946
16891WAT     H150915   9.051   3.913   1.957
16891WAT     H250916   8.929   3.932   1.850
16892WAT      O50917   7.860   6.567   7.700
16892WAT     H150918   7.890   6.641   7.761
16892WAT     H250919   7.776   6.595   7.653
16893WAT      O50920   1.685   0.178   2.830
16893WAT     H150921   1.617   0.141   2.893
16893WAT     H250922   1.734   0.253   2.874
16894WAT      O50923   3.356   5.735   9.862
16894WAT     H150924   3.418   5.808   9.833
16894WAT     H250925   3.282   5.774   9.917
16895WAT      O50926   7.051   1.514   1.116
16895WAT     H150927   7.089   1.432   1.158
16895WAT     H250928   6.951   1.508   1.117
16896WAT      O50929   8.185   9.281   0.757
16896WAT     H150930   8.166   9.196   0.708
16896WAT     H250931   8.279   9.281   0.789
16897WAT      O50932   0.761   4.159   7.120
16897WAT     H150933   0.762   4.164   7.020
16897WAT     H250934   0.680   4.107   7.149
16898WAT      O50935   7.277   6.671   6.281
16898WAT     H150936   7.369   6.657   6.317
16898WAT     H250937   7.216   6.601   6.319
16899WAT      O50938   2.629  -0.002   5.560
16899WAT     H150939   2.586   0.085   5.584
16899WAT     H250940   2.627  -0.015   5.461
16900WAT      O50941   1.568   9.475   3.161
16900WAT     H150942   1.625   9.525   3.095
16900WAT     H250943   1.573   9.519   3.250
16901WAT      O50944   1.254   7.526   6.436
16901WAT     H150945   1.223   7.594   6.369
16901WAT     H250946   1.246   7.565   6.528
16902WAT      O50947   0.397   5.650   4.220
16902WAT     H150948   0.471   5.583   4.207
16902WAT     H250949   0.437   5.741   4.230
16903WAT      O50950   1.138   8.529   1.987
16903WAT     H150951   1.180   8.470   1.918
16903WAT     H250952   1.046   8.497   2.007
16904WAT      O50953   3.956   0.009   8.157
16904WAT     H150954   4.013   0.005   8.238
16904WAT     H250955   3.864  -0.024   8.178
16905WAT      O50956   6.285   3.474   3.997
16905WAT     H150957   6.203   3.422   4.019
16905WAT     H250958   6.341   3.485   4.079
16906WAT      O50959   9.507   2.819   0.279
16906WAT     H150960   9.594   2.866   0.295
16906WAT     H250961   9.480   2.830   0.183
16907WAT      O50962   7.268   1.642   4.992
16907WAT     H150963   7.282   1.710   4.920
16907WAT     H250964   7.324   1.666   5.072
16908WAT      O50965   8.662   2.285   2.378
16908WAT     H150966   8.628   2.367   2.332
16908WAT     H250967   8.584   2.226   2.404
16909WAT      O50968   4.173   3.208   7.296
16909WAT     H150969   4.186   3.186   7.199
16909WAT     H250970   4.109   3.142   7.336
16910WAT      O50971   2.645   9.630   7.544
16910WAT     H150972   2.601   9.681   7.470
16910WAT     H250973   2.734   9.598   7.514
16911WAT      O50974   4.599   8.329   9.718
16911WAT     H150975   4.654   8.256   9.758
16911WAT     H250976   4.521   8.349   9.777
16912WAT      O50977   3.156   7.106   6.852
16912WAT     H150978   3.216   7.181   6.826
16912WAT     H250979   3.157   7.036   6.781
16913WAT      O50980   0.972   1.704   4.852
16913WAT     H150981   0.905   1.631   4.863
16913WAT     H250982   0.943   1.766   4.780
16914WAT      O50983   4.990   2.644   0.784
16914WAT     H150984   4.990   2.561   0.728
16914WAT     H250985   4.924   2.710   0.747
16915WAT      O50986   2.780   1.445   8.788
16915WAT     H150987   2.697   1.498   8.802
16915WAT     H250988   2.805   1.446   8.691
16916WAT      O50989   7.869   9.755   4.415
16916WAT     H150990   7.965   9.736   4.396
16916WAT     H250991   7.857   9.853   4.432
16917WAT      O50992   9.671   2.759   7.591
16917WAT     H150993   9.636   2.852   7.584
16917WAT     H250994   9.648   2.721   7.681
16918WAT      O50995   9.384   8.479   3.929
16918WAT     H150996   9.449   8.544   3.967
16918WAT     H250997   9.313   8.458   3.997
16919WAT      O50998   8.571   9.412   2.795
16919WAT     H150999   8.524   9.492   2.831
16919WAT     H251000   8.589   9.426   2.697
16920WAT      O51001   0.538   1.258   4.733
16920WAT     H151002   0.546   1.198   4.813
16920WAT     H251003   0.455   1.233   4.681
16921WAT      O51004   9.676   2.394   7.929
16921WAT     H151005   9.580   2.379   7.905
16921WAT     H251006   9.728   2.311   7.910
16922WAT      O51007   0.730   4.682   0.833
16922WAT     H151008   0.776   4.628   0.762
16922WAT     H251009   0.752   4.779   0.819
16923WAT      O51010   7.033   1.447   4.473
16923WAT     H151011   6.965   1.379   4.447
16923WAT     H251012   7.044   1.447   4.573
16924WAT      O51013   0.917   3.877   3.562
16924WAT     H151014   0.987   3.819   3.604
16924WAT     H251015   0.881   3.941   3.630
16925WAT      O51016   7.433   1.397   0.162
16925WAT     H151017   7.373   1.406   0.241
16925WAT     H251018   7.528   1.389   0.192
16926WAT      O51019   1.274   2.694   6.176
16926WAT     H151020   1.195   2.754   6.188
16926WAT     H251021   1.357   2.750   6.169
16927WAT      O51022   2.353   0.937   7.714
16927WAT     H151023   2.332   1.025   7.758
16927WAT     H251024   2.302   0.864   7.760
16928WAT      O51025   5.862   9.523   7.005
16928WAT     H151026   5.767   9.500   6.984
16928WAT     H251027   5.892   9.597   6.946
16929WAT      O51028   2.712   7.860   5.999
16929WAT     H151029   2.757   7.827   5.916
16929WAT     H251030   2.615   7.874   5.981
16930WAT      O51031   9.108   6.438   4.898
16930WAT     H151032   9.009   6.426   4.908
16930WAT     H251033   9.147   6.360   4.850
16931WAT      O51034   0.523   6.341   3.917
16931WAT     H151035   0.536   6.427   3.867
16931WAT     H251036   0.604   6.323   3.972
16932WAT      O51037   1.386   2.330   6.176
16932WAT     H151038   1.439   2.392   6.118
16932WAT     H251039   1.344   2.382   6.251
16933WAT      O51040   9.492   6.988   9.731
16933WAT     H151041   9.456   6.921   9.666
16933WAT     H251042   9.471   7.080   9.699
16934WAT      O51043   7.808   6.923   0.228
16934WAT     H151044   7.735   6.987   0.203
16934WAT     H251045   7.779   6.830   0.209
16935WAT      O51046   8.490   5.982   1.042
16935WAT     H151047   8.551   5.974   0.963
16935WAT     H251048   8.511   6.066   1.092
16936WAT      O51049   7.371   7.037   9.204
16936WAT     H151050   7.334   6.945   9.197
16936WAT     H251051   7.303   7.103   9.175
16937WAT      O51052   2.579   4.009   9.546
16937WAT     H151053   2.527   4.067   9.609
16937WAT     H251054   2.676   4.033   9.551
16938WAT      O51055   6.697   1.726   7.235
16938WAT     H151056   6.701   1.653   7.167
16938WAT     H251057   6.617   1.783   7.217
16939WAT      O51058   8.848   8.850   3.027
16939WAT     H151059   8.861   8.935   2.977
16939WAT     H251060   8.780   8.864   3.099
16940WAT      O51061   2.818   0.573   7.871
16940WAT     H151062   2.763   0.603   7.793
16940WAT     H251063   2.849   0.653   7.923
16941WAT      O51064   1.883   8.581   6.343
16941WAT     H151065   1.861   8.584   6.246
16941WAT     H251066   1.801   8.604   6.396
16942WAT      O51067   8.536   9.351   5.048
16942WAT     H151068   8.507   9.376   5.140
16942WAT     H251069   8.455   9.333   4.991
16943WAT      O51070   8.853   8.416   1.008
16943WAT     H151071   8.936   8.443   0.958
16943WAT     H251072   8.781   8.484   0.991
16944WAT      O51073   0.348   0.878   5.766
16944WAT     H151074   0.360   0.806   5.833
16944WAT     H251075   0.427   0.939   5.767
16945WAT      O51076   8.697   3.690   7.086
16945WAT     H151077   8.644   3.679   7.170
16945WAT     H251078   8.793   3.672   7.104
16946WAT      O51079   8.410   0.571   0.859
16946WAT     H151080   8.467   0.649   0.887
16946WAT     H251081   8.373   0.588   0.768
16947WAT      O51082   7.058   8.757   8.391
16947WAT     H151083   6.994   8.753   8.314
16947WAT     H251084   7.024   8.698   8.465
16948WAT      O51085   7.890   6.076   9.207
16948WAT     H151086   7.848   6.167   9.213
16948WAT     H251087   7.943   6.058   9.289
16949WAT      O51088   3.122   8.750   0.350
16949WAT     H151089   3.123   8.814   0.273
16949WAT     H251090   3.089   8.798   0.432
16950WAT      O51091   0.507   6.380   8.150
16950WAT     H151092   0.568   6.387   8.070
16950WAT     H251093   0.528   6.297   8.200
16951WAT      O51094   7.560   5.393   1.644
16951WAT     H151095   7.494   5.467   1.656
16951WAT     H251096   7.511   5.305   1.645
16952WAT      O51097   7.212   0.586   4.496
16952WAT     H151098   7.292   0.531   4.471
16952WAT     H251099   7.223   0.679   4.460
16953WAT      O51100   5.477   6.622   8.366
16953WAT     H151101   5.534   6.684   8.420
16953WAT     H251102   5.428   6.560   8.428
16954WAT      O51103   6.785   0.665   9.353
16954WAT     H151104   6.815   0.723   9.277
16954WAT     H251105   6.847   0.587   9.362
16955WAT      O51106   2.651   2.678   3.669
16955WAT     H151107   2.747   2.694   3.643
16955WAT     H251108   2.594   2.749   3.627
16956WAT      O51109   8.076   1.996   7.641
16956WAT     H151110   8.038   1.904   7.627
16956WAT     H251111   8.036   2.059   7.574
16957WAT      O51112   3.844   1.179   0.987
16957WAT     H151113   3.864   1.085   1.015
16957WAT     H251114   3.836   1.237   1.068
16958WAT      O51115   2.351   0.699   0.608
16958WAT     H151116   2.311   0.740   0.526
16958WAT     H251117   2.351   0.767   0.682
16959WAT      O51118   4.941   3.316   5.697
16959WAT     H151119   4.942   3.364   5.785
16959WAT     H251120   5.015   3.248   5.697
16960WAT      O51121   6.691   5.989   3.130
16960WAT     H151122   6.771   6.047   3.113
16960WAT     H251123   6.645   5.970   3.044
16961WAT      O51124   2.233   5.355   5.067
16961WAT     H151125   2.172   5.432   5.084
16961WAT     H251126   2.248   5.304   5.151
16962WAT      O51127   1.075   1.633   6.412
16962WAT     H151128   1.151   1.605   6.471
16962WAT     H251129   1.102   1.712   6.357
16963WAT      O51130   2.091   1.248   1.181
16963WAT     H151131   2.068   1.266   1.085
16963WAT     H251132   2.138   1.160   1.189
16964WAT      O51133   8.624   4.530   5.449
16964WAT     H151134   8.529   4.552   5.471
16964WAT     H251135   8.627   4.458   5.380
16965WAT      O51136   8.176   4.276   7.062
16965WAT     H151137   8.216   4.364   7.088
16965WAT     H251138   8.121   4.240   7.138
16966WAT      O51139   4.604   4.478   3.329
16966WAT     H151140   4.536   4.445   3.263
16966WAT     H251141   4.656   4.400   3.364
16967WAT      O51142   2.772   5.166   7.902
16967WAT     H151143   2.724   5.118   7.975
16967WAT     H251144   2.829   5.102   7.851
16968WAT      O51145   9.029   8.400   8.711
16968WAT     H151146   9.027   8.321   8.772
16968WAT     H251147   8.952   8.394   8.647
16969WAT      O51148   0.987   3.767   1.004
16969WAT     H151149   0.984   3.726   0.913
16969WAT     H251150   0.925   3.717   1.065
16970WAT      O51151   6.011   1.103   8.568
16970WAT     H151152   6.009   1.151   8.480
16970WAT     H251153   6.025   1.169   8.642
16971WAT      O51154   8.895   5.094   5.978
16971WAT     H151155   8.962   5.068   6.048
16971WAT     H251156   8.892   5.023   5.907
16972WAT      O51157   9.312   7.272   4.415
16972WAT     H151158   9.335   7.250   4.510
16972WAT     H251159   9.326   7.192   4.357
16973WAT      O51160   4.305   7.346   9.202
16973WAT     H151161   4.363   7.267   9.182
16973WAT     H251162   4.215   7.315   9.232
16974WAT      O51163   1.222   6.912   9.607
16974WAT     H151164   1.126   6.904   9.581
16974WAT     H251165   1.243   6.845   9.678
16975WAT      O51166   2.212   7.683   6.011
16975WAT     H151167   2.136   7.663   6.073
16975WAT     H251168   2.277   7.606   6.012
16976WAT      O51169   5.262   6.673   8.944
16976WAT     H151170   5.170   6.635   8.932
16976WAT     H251171   5.320   6.645   8.867
16977WAT      O51172   2.738   4.697   4.459
16977WAT     H151173   2.769   4.734   4.372
16977WAT     H251174   2.780   4.748   4.534
16978WAT      O51175   5.367   6.029   1.174
16978WAT     H151176   5.436   6.083   1.125
16978WAT     H251177   5.296   6.000   1.109
16979WAT      O51178   7.402   2.101   2.547
16979WAT     H151179   7.348   2.027   2.586
16979WAT     H251180   7.465   2.137   2.616
16980WAT      O51181   6.349   1.611   9.673
16980WAT     H151182   6.347   1.596   9.574
16980WAT     H251183   6.442   1.600   9.707
16981WAT      O51184   3.255   3.480   4.388
16981WAT     H151185   3.352   3.500   4.393
16981WAT     H251186   3.238   3.416   4.314
16982WAT      O51187   7.839   1.068   4.638
16982WAT     H151188   7.798   1.156   4.659
16982WAT     H251189   7.912   1.079   4.570
16983WAT      O51190   0.534   6.853   5.719
16983WAT     H151191   0.490   6.772   5.681
16983WAT     H251192   0.556   6.837   5.816
16984WAT      O51193   5.103   5.779   1.772
16984WAT     H151194   5.163   5.853   1.803
16984WAT     H251195   5.123   5.757   1.677
16985WAT      O51196   7.436   7.422   6.545
16985WAT     H151197   7.440   7.521   6.553
16985WAT     H251198   7.468   7.394   6.454
16986WAT      O51199   9.174   7.071   4.035
16986WAT     H151200   9.114   7.000   4.000
16986WAT     H251201   9.120   7.153   4.055
16987WAT      O51202   2.909   8.892   6.228
16987WAT     H151203   2.870   8.948   6.300
16987WAT     H251204   2.958   8.814   6.268
16988WAT      O51205   1.845   3.528   3.597
16988WAT     H151206   1.864   3.615   3.552
16988WAT     H251207   1.906   3.517   3.675
16989WAT      O51208   3.562   5.069   1.725
16989WAT     H151209   3.465   5.065   1.701
16989WAT     H251210   3.596   5.162   1.711
16990WAT      O51211   7.292   8.628   8.360
16990WAT     H151212   7.376   8.678   8.338
16990WAT     H251213   7.214   8.691   8.358
16991WAT      O51214   2.117   8.877   8.095
16991WAT     H151215   2.200   8.825   8.116
16991WAT     H251216   2.074   8.838   8.014
16992WAT      O51217   8.521   0.628   6.126
16992WAT     H151218   8.455   0.700   6.142
16992WAT     H251219   8.614   0.665   6.133
16993WAT      O51220   8.373   0.366   5.145
16993WAT     H151221   8.289   0.331   5.186
16993WAT     H251222   8.452   0.322   5.187
16994WAT      O51223   4.464   6.459   6.161
16994WAT     H151224   4.538   6.524   6.179
16994WAT     H251225   4.379   6.509   6.147
16995WAT      O51226   4.339   4.015   1.519
16995WAT     H151227   4.437   4.024   1.499
16995WAT     H251228   4.301   3.939   1.466
16996WAT      O51229   8.042   7.222   2.694
16996WAT     H151230   8.047   7.185   2.601
16996WAT     H251231   8.072   7.318   2.694
16997WAT      O51232   6.915   4.835   0.753
16997WAT     H151233   6.847   4.822   0.681
16997WAT     H251234   6.973   4.914   0.730
16998WAT      O51235   6.769   5.845   5.710
16998WAT     H151236   6.845   5.864   5.647
16998WAT     H251237   6.804   5.838   5.803
16999WAT      O51238   2.487   1.943   2.829
16999WAT     H151239   2.494   1.902   2.920
16999WAT     H251240   2.487   1.871   2.759
17000WAT      O51241   2.283   7.580   1.988
17000WAT     H151242   2.287   7.661   1.929
17000WAT     H251243   2.274   7.610   2.083
17001WAT      O51244   8.269   4.236   1.835
17001WAT     H151245   8.318   4.149   1.840
17001WAT     H251246   8.312   4.294   1.765
17002WAT      O51247   9.688   5.767   2.837
17002WAT     H151248   9.715   5.847   2.890
17002WAT     H251249   9.768   5.707   2.825
17003WAT      O51250   0.336   7.898   8.630
17003WAT     H151251   0.345   7.994   8.655
17003WAT     H251252   0.330   7.842   8.714
17004WAT      O51253   8.205   2.758   0.933
17004WAT     H151254   8.202   2.800   0.843
17004WAT     H251255   8.155   2.671   0.931
17005WAT      O51256   8.835   7.631   7.049
17005WAT     H151257   8.896   7.664   6.977
17005WAT     H251258   8.770   7.704   7.073
17006WAT      O51259   9.856   1.244   1.798
17006WAT     H151260   9.926   1.174   1.785
17006WAT     H251261   9.871   1.319   1.734
17007WAT      O51262   8.653   5.310   7.418
17007WAT     H151263   8.739   5.360   7.413
17007WAT     H251264   8.577   5.374   7.406
17008WAT      O51265   3.671   1.268   1.685
17008WAT     H151266   3.611   1.252   1.764
17008WAT     H251267   3.742   1.334   1.709
17009WAT      O51268   2.093   8.754   4.839
17009WAT     H151269   2.124   8.683   4.777
17009WAT     H251270   2.156   8.831   4.836
17010WAT      O51271   2.243   2.928   8.333
17010WAT     H151272   2.304   2.853   8.357
17010WAT     H251273   2.214   2.918   8.238
17011WAT      O51274   3.097   3.948   6.364
17011WAT     H151275   3.003   3.977   6.345
17011WAT     H251276   3.098   3.850   6.386
17012WAT      O51277   3.036   9.222   5.897
17012WAT     H151278   2.971   9.172   5.953
17012WAT     H251279   2.989   9.264   5.820
17013WAT      O51280   0.521   8.730   9.030
17013WAT     H151281   0.455   8.697   9.097
17013WAT     H251282   0.479   8.801   8.973
17014WAT      O51283   4.806   5.509   3.904
17014WAT     H151284   4.759   5.453   3.836
17014WAT     H251285   4.793   5.470   3.995
17015WAT      O51286   2.856   7.256   1.751
17015WAT     H151287   2.823   7.225   1.662
17015WAT     H251288   2.953   7.233   1.760
17016WAT      O51289   2.133   0.028   2.646
17016WAT     H151290   2.222   0.036   2.601
17016WAT     H251291   2.075  -0.036   2.594
17017WAT      O51292   5.494   9.634   5.341
17017WAT     H151293   5.527   9.646   5.248
17017WAT     H251294   5.522   9.712   5.397
17018WAT      O51295   2.547   4.911   8.940
17018WAT     H151296   2.559   4.860   9.025
17018WAT     H251297   2.590   5.000   8.948
17019WAT      O51298   0.336   7.273   5.120
17019WAT     H151299   0.401   7.344   5.148
17019WAT     H251300   0.286   7.239   5.200
17020WAT      O51301   6.830   0.235   6.952
17020WAT     H151302   6.891   0.310   6.975
17020WAT     H251303   6.738   0.255   6.988
17021WAT      O51304   5.543   6.986   1.595
17021WAT     H151305   5.620   7.046   1.616
17021WAT     H251306   5.469   7.004   1.660
17022WAT      O51307   9.252   1.533   6.255
17022WAT     H151308   9.208   1.597   6.191
17022WAT     H251309   9.317   1.584   6.312
17023WAT      O51310   8.635   8.797   7.398
17023WAT     H151311   8.679   8.708   7.392
17023WAT     H251312   8.693   8.859   7.451
17024WAT      O51313   0.142   6.290   2.851
17024WAT     H151314   0.069   6.222   2.854
17024WAT     H251315   0.222   6.255   2.899
17025WAT      O51316   4.411   5.441   5.076
17025WAT     H151317   4.410   5.541   5.076
17025WAT     H251318   4.502   5.409   5.103
17026WAT      O51319   2.473   4.743   3.528
17026WAT     H151320   2.432   4.833   3.519
17026WAT     H251321   2.418   4.676   3.477
17027WAT      O51322   2.425   6.633   1.204
17027WAT     H151323   2.471   6.599   1.286
17027WAT     H251324   2.329   6.605   1.206
17028WAT      O51325   7.684   2.673   5.962
17028WAT     H151326   7.601   2.618   5.971
17028WAT     H251327   7.679   2.728   5.878
17029WAT      O51328   6.921   4.174   3.979
17029WAT     H151329   6.903   4.271   3.996
17029WAT     H251330   6.873   4.146   3.896
17030WAT      O51331   4.249   7.349   6.968
17030WAT     H151332   4.332   7.355   6.912
17030WAT     H251333   4.267   7.290   7.047
17031WAT      O51334   2.850   0.276   6.998
17031WAT     H151335   2.828   0.260   6.901
17031WAT     H251336   2.876   0.190   7.041
17032WAT      O51337   9.644   8.387   3.109
17032WAT     H151338   9.548   8.403   3.130
17032WAT     H251339   9.702   8.448   3.162
17033WAT      O51340   9.023   6.769   6.857
17033WAT     H151341   9.087   6.700   6.823
17033WAT     H251342   8.930   6.745   6.828
17034WAT      O51343   3.591   5.206   5.348
17034WAT     H151344   3.596   5.306   5.337
17034WAT     H251345   3.509   5.183   5.401
17035WAT      O51346   0.920   7.731   7.881
17035WAT     H151347   0.967   7.655   7.837
17035WAT     H251348   0.868   7.783   7.813
17036WAT      O51349   2.849   6.586   2.788
17036WAT     H151350   2.768   6.531   2.810
17036WAT     H251351   2.916   6.529   2.741
17037WAT      O51352   2.502   4.658   1.010
17037WAT     H151353   2.435   4.688   0.943
17037WAT     H251354   2.542   4.571   0.982
17038WAT      O51355   0.636   2.445   1.854
17038WAT     H151356   0.650   2.349   1.829
17038WAT     H251357   0.544   2.473   1.825
17039WAT      O51358   5.816   1.533   6.119
17039WAT     H151359   5.758   1.538   6.200
17039WAT     H251360   5.910   1.557   6.144
17040WAT      O51361   2.917   1.795   4.250
17040WAT     H151362   3.012   1.767   4.236
17040WAT     H251363   2.913   1.893   4.269
17041WAT      O51364   2.455   3.265   0.509
17041WAT     H151365   2.413   3.206   0.440
17041WAT     H251366   2.492   3.209   0.583
17042WAT      O51367   0.901   7.183   5.279
17042WAT     H151368   0.924   7.087   5.289
17042WAT     H251369   0.888   7.224   5.369
17043WAT      O51370   5.535   4.626   2.484
17043WAT     H151371   5.575   4.699   2.427
17043WAT     H251372   5.445   4.656   2.517
17044WAT      O51373   0.469   1.286   9.153
17044WAT     H151374   0.478   1.327   9.244
17044WAT     H251375   0.496   1.190   9.158
17045WAT      O51376   5.146   5.218   1.591
17045WAT     H151377   5.116   5.309   1.563
17045WAT     H251378   5.241   5.204   1.564
17046WAT      O51379   4.621   4.366   1.788
17046WAT     H151380   4.713   4.384   1.825
17046WAT     H251381   4.615   4.272   1.757
17047WAT      O51382   9.519   3.025   0.519
17047WAT     H151383   9.562   3.029   0.428
17047WAT     H251384   9.462   2.943   0.525
17048WAT      O51385   9.769   1.847   0.644
17048WAT     H151386   9.704   1.777   0.674
17048WAT     H251387   9.767   1.924   0.707
17049WAT      O51388   1.910   7.930   7.957
17049WAT     H151389   1.832   7.972   7.911
17049WAT     H251390   1.944   7.992   8.028
17050WAT      O51391   5.248   1.590   2.389
17050WAT     H151392   5.320   1.658   2.398
17050WAT     H251393   5.287   1.499   2.404
17051WAT      O51394   5.219   2.260   0.095
17051WAT     H151395   5.194   2.270  -0.002
17051WAT     H251396   5.171   2.181   0.133
17052WAT      O51397   1.535   3.998   6.087
17052WAT     H151398   1.583   4.058   6.151
17052WAT     H251399   1.468   4.051   6.036
17053WAT      O51400   0.502   2.162   1.221
17053WAT     H151401   0.519   2.159   1.320
17053WAT     H251402   0.443   2.087   1.195
17054WAT      O51403   1.752   5.680   1.544
17054WAT     H151404   1.659   5.661   1.513
17054WAT     H251405   1.773   5.623   1.623
17055WAT      O51406   3.264   4.114   3.672
17055WAT     H151407   3.291   4.081   3.762
17055WAT     H251408   3.340   4.162   3.629
17056WAT      O51409   9.371   0.218   6.441
17056WAT     H151410   9.449   0.231   6.502
17056WAT     H251411   9.404   0.206   6.347
17057WAT      O51412   3.136   0.556   4.298
17057WAT     H151413   3.133   0.464   4.261
17057WAT     H251414   3.225   0.573   4.339
17058WAT      O51415   4.533   8.812   6.543
17058WAT     H151416   4.435   8.807   6.562
17058WAT     H251417   4.555   8.904   6.510
17059WAT      O51418   5.525   2.376   6.721
17059WAT     H151419   5.492   2.456   6.771
17059WAT     H251420   5.487   2.293   6.762
17060WAT      O51421   6.791   4.824   6.393
17060WAT     H151422   6.819   4.843   6.487
17060WAT     H251423   6.707   4.874   6.373
17061WAT      O51424   3.618   8.771   1.437
17061WAT     H151425   3.632   8.870   1.441
17061WAT     H251426   3.628   8.732   1.528
17062WAT      O51427   8.001   7.684   5.278
17062WAT     H151428   8.022   7.738   5.359
17062WAT     H251429   7.966   7.744   5.206
17063WAT      O51430   9.643   5.919   9.592
17063WAT     H151431   9.643   5.890   9.497
17063WAT     H251432   9.549   5.935   9.623
17064WAT      O51433   3.552   0.437   6.333
17064WAT     H151434   3.630   0.379   6.356
17064WAT     H251435   3.533   0.500   6.409
17065WAT      O51436   4.466   6.979   0.348
17065WAT     H151437   4.374   6.958   0.380
17065WAT     H251438   4.519   7.019   0.423
17066WAT      O51439   8.495   0.323   1.465
17066WAT     H151440   8.432   0.278   1.401
17066WAT     H251441   8.544   0.254   1.517
17067WAT      O51442   1.662   5.802   4.787
17067WAT     H151443   1.635   5.859   4.864
17067WAT     H251444   1.710   5.858   4.720
17068WAT      O51445   3.486   7.826   1.329
17068WAT     H151446   3.476   7.916   1.372
17068WAT     H251447   3.488   7.838   1.229
17069WAT      O51448   0.334   7.478   2.672
17069WAT     H151449   0.297   7.570   2.678
17069WAT     H251450   0.266   7.417   2.633
17070WAT      O51451   5.806   0.879   3.986
17070WAT     H151452   5.745   0.935   3.930
17070WAT     H251453   5.821   0.790   3.942
17071WAT      O51454   3.298   3.718   9.303
17071WAT     H151455   3.335   3.653   9.236
17071WAT     H251456   3.315   3.684   9.395
17072WAT      O51457   7.877   8.144   0.287
17072WAT     H151458   7.943   8.071   0.305
17072WAT     H251459   7.830   8.168   0.372
17073WAT      O51460   7.879   2.101   6.478
17073WAT     H151461   7.974   2.114   6.508
17073WAT     H251462   7.853   2.175   6.417
17074WAT      O51463   8.389   5.246   3.550
17074WAT     H151464   8.394   5.294   3.463
17074WAT     H251465   8.299   5.202   3.559
17075WAT      O51466   6.648   7.074   4.025
17075WAT     H151467   6.673   6.979   4.042
17075WAT     H251468   6.731   7.130   4.022
17076WAT      O51469   1.472   0.953   0.672
17076WAT     H151470   1.376   0.929   0.687
17076WAT     H251471   1.482   1.053   0.667
17077WAT      O51472   1.667   7.000   2.856
17077WAT     H151473   1.651   6.907   2.892
17077WAT     H251474   1.627   7.007   2.765
17078WAT      O51475   1.596   2.367   8.681
17078WAT     H151476   1.629   2.416   8.600
17078WAT     H251477   1.574   2.273   8.655
17079WAT      O51478   3.731   8.935   9.238
17079WAT     H151479   3.797   8.921   9.164
17079WAT     H251480   3.642   8.898   9.212
17080WAT      O51481   0.940   7.806   4.348
17080WAT     H151482   0.918   7.882   4.288
17080WAT     H251483   0.921   7.720   4.301
17081WAT      O51484   9.268   3.838   0.405
17081WAT     H151485   9.188   3.779   0.396
17081WAT     H251486   9.240   3.934   0.401
17082WAT      O51487   5.727   9.008   7.228
17082WAT     H151488   5.693   9.056   7.308
17082WAT     H251489   5.715   9.065   7.147
17083WAT      O51490   0.778   4.246   1.755
17083WAT     H151491   0.702   4.186   1.730
17083WAT     H251492   0.864   4.197   1.741
17084WAT      O51493   1.824   1.772   2.923
17084WAT     H151494   1.780   1.688   2.891
17084WAT     H251495   1.871   1.815   2.847
17085WAT      O51496   8.053   5.486   0.959
17085WAT     H151497   8.066   5.584   0.973
17085WAT     H251498   8.059   5.438   1.046
17086WAT      O51499   7.971   1.688   1.508
17086WAT     H151500   8.012   1.764   1.559
17086WAT     H251501   7.983   1.603   1.559
17087WAT      O51502   3.423   5.326   8.997
17087WAT     H151503   3.509   5.349   8.951
17087WAT     H251504   3.386   5.408   9.041
17088WAT      O51505   7.229   4.147   6.570
17088WAT     H151506   7.284   4.230   6.578
17088WAT     H251507   7.288   4.067   6.569
17089WAT      O51508   4.141   6.760   3.171
17089WAT     H151509   4.166   6.781   3.265
17089WAT     H251510   4.044   6.736   3.166
17090WAT      O51511   8.491   0.057   8.506
17090WAT     H151512   8.448   0.071   8.417
17090WAT     H251513   8.479   0.139   8.562
17091WAT      O51514   1.032   6.147   2.026
17091WAT     H151515   1.123   6.166   1.989
17091WAT     H251516   0.977   6.230   2.024
17092WAT      O51517   4.241   3.132   7.878
17092WAT     H151518   4.338   3.149   7.864
17092WAT     H251519   4.210   3.184   7.958
17093WAT      O51520   1.273   0.287   7.521
17093WAT     H151521   1.238   0.211   7.575
17093WAT     H251522   1.373   0.286   7.522
17094WAT      O51523   7.634   6.841   0.775
17094WAT     H151524   7.545   6.886   0.776
17094WAT     H251525   7.699   6.896   0.724
17095WAT      O51526   6.014   3.881   4.872
17095WAT     H151527   6.068   3.836   4.801
17095WAT     H251528   6.069   3.890   4.955
17096WAT      O51529   1.373   0.877   7.652
17096WAT     H151530   1.297   0.924   7.607
17096WAT     H251531   1.340   0.833   7.735
17097WAT      O51532   7.028   4.852   5.892
17097WAT     H151533   7.032   4.768   5.946
17097WAT     H251534   7.092   4.846   5.815
17098WAT      O51535   5.786   9.382   0.099
17098WAT     H151536   5.823   9.468   0.134
17098WAT     H251537   5.797   9.310   0.168
17099WAT      O51538   9.040   9.117   7.329
17099WAT     H151539   9.091   9.033   7.308
17099WAT     H251540   9.055   9.142   7.424
17100WAT      O51541   6.372   3.888   7.045
17100WAT     H151542   6.284   3.932   7.031
17100WAT     H251543   6.374   3.846   7.136
17101WAT      O51544   4.450   9.761   6.313
17101WAT     H151545   4.549   9.754   6.297
17101WAT     H251546   4.421   9.856   6.304
17102WAT      O51547   5.592   8.393   6.593
17102WAT     H151548   5.687   8.377   6.568
17102WAT     H251549   5.578   8.490   6.613
17103WAT      O51550   9.407   3.182   1.873
17103WAT     H151551   9.332   3.236   1.834
17103WAT     H251552   9.491   3.199   1.821
17104WAT      O51553   7.711   5.620   7.473
17104WAT     H151554   7.760   5.675   7.406
17104WAT     H251555   7.668   5.680   7.541
17105WAT      O51556   1.167   4.936   8.930
17105WAT     H151557   1.082   4.892   8.901
17105WAT     H251558   1.172   4.938   9.029
17106WAT      O51559   7.934   7.690   1.512
17106WAT     H151560   7.962   7.756   1.581
17106WAT     H251561   7.842   7.656   1.532
17107WAT      O51562   5.836   7.048   4.625
17107WAT     H151563   5.921   7.008   4.660
17107WAT     H251564   5.798   7.111   4.692
17108WAT      O51565   1.092   7.865   1.085
17108WAT     H151566   1.048   7.797   1.144
17108WAT     H251567   1.047   7.954   1.096
17109WAT      O51568   5.626   3.489   4.714
17109WAT     H151569   5.618   3.412   4.778
17109WAT     H251570   5.553   3.484   4.646
17110WAT      O51571   2.043   2.947   1.288
17110WAT     H151572   2.025   2.870   1.349
17110WAT     H251573   2.063   2.913   1.196
17111WAT      O51574   4.106   0.120   1.412
17111WAT     H151575   4.130   0.167   1.497
17111WAT     H251576   4.167   0.042   1.399
17112WAT      O51577   5.844   3.742   9.506
17112WAT     H151578   5.852   3.806   9.429
17112WAT     H251579   5.799   3.658   9.476
17113WAT      O51580   3.901   0.950   5.698
17113WAT     H151581   3.831   0.936   5.768
17113WAT     H251582   3.967   0.875   5.701
17114WAT      O51583   3.755   7.503   1.439
17114WAT     H151584   3.720   7.446   1.364
17114WAT     H251585   3.717   7.471   1.526
17115WAT      O51586   8.631   4.277   4.958
17115WAT     H151587   8.670   4.281   4.866
17115WAT     H251588   8.575   4.195   4.968
17116WAT      O51589   8.419   6.684   3.340
17116WAT     H151590   8.446   6.594   3.374
17116WAT     H251591   8.479   6.711   3.265
17117WAT      O51592   4.517   3.216   6.752
17117WAT     H151593   4.524   3.316   6.744
17117WAT     H251594   4.596   3.180   6.801
17118WAT      O51595   6.609   7.373   1.569
17118WAT     H151596   6.687   7.412   1.520
17118WAT     H251597   6.524   7.396   1.521
17119WAT      O51598   4.988   5.514   4.480
17119WAT     H151599   5.028   5.553   4.564
17119WAT     H251600   5.048   5.443   4.444
17120WAT      O51601   4.843   1.678   6.632
17120WAT     H151602   4.852   1.678   6.533
17120WAT     H251603   4.815   1.769   6.663
17121WAT      O51604   3.081   8.709   5.557
17121WAT     H151605   3.082   8.671   5.650
17121WAT     H251606   3.028   8.794   5.556
17122WAT      O51607   9.163   0.455   7.900
17122WAT     H151608   9.118   0.464   7.811
17122WAT     H251609   9.099   0.416   7.966
17123WAT      O51610   3.437   7.567   9.805
17123WAT     H151611   3.514   7.622   9.771
17123WAT     H251612   3.351   7.615   9.789
17124WAT      O51613   7.833   5.904   4.721
17124WAT     H151614   7.910   5.910   4.658
17124WAT     H251615   7.804   5.997   4.746
17125WAT      O51616   1.210   6.444   5.503
17125WAT     H151617   1.198   6.496   5.587
17125WAT     H251618   1.282   6.485   5.447
17126WAT      O51619   6.645   2.201   6.348
17126WAT     H151620   6.626   2.104   6.364
17126WAT     H251621   6.559   2.250   6.336
17127WAT      O51622   5.433   0.986   7.839
17127WAT     H151623   5.361   0.945   7.783
17127WAT     H251624   5.500   1.031   7.779
17128WAT      O51625   4.075   4.046   4.843
17128WAT     H151626   4.162   4.078   4.880
17128WAT     H251627   4.003   4.056   4.912
17129WAT      O51628   5.417   3.985   8.563
17129WAT     H151629   5.429   3.939   8.475
17129WAT     H251630   5.490   4.052   8.576
17130WAT      O51631   6.081   0.571   0.590
17130WAT     H151632   6.033   0.502   0.643
17130WAT     H251633   6.056   0.563   0.494
17131WAT      O51634   6.668   6.195   1.605
17131WAT     H151635   6.597   6.243   1.552
17131WAT     H251636   6.683   6.104   1.565
17132WAT      O51637   8.941   7.428   8.107
17132WAT     H151638   8.892   7.381   8.181
17132WAT     H251639   8.876   7.459   8.038
17133WAT      O51640   7.456   9.408   9.611
17133WAT     H151641   7.499   9.404   9.521
17133WAT     H251642   7.357   9.401   9.601
17134WAT      O51643   5.995   2.268   0.298
17134WAT     H151644   5.943   2.196   0.344
17134WAT     H251645   5.933   2.321   0.239
17135WAT      O51646   4.958   3.945   1.664
17135WAT     H151647   4.986   3.863   1.714
17135WAT     H251648   4.909   3.918   1.581
17136WAT      O51649   2.793   2.121   0.301
17136WAT     H151650   2.715   2.141   0.243
17136WAT     H251651   2.766   2.122   0.397
17137WAT      O51652   9.320   8.372   2.737
17137WAT     H151653   9.234   8.419   2.757
17137WAT     H251654   9.393   8.440   2.726
17138WAT      O51655   5.848   4.371   6.689
17138WAT     H151656   5.847   4.466   6.722
17138WAT     H251657   5.902   4.315   6.752
17139WAT      O51658   2.007   3.966   1.024
17139WAT     H151659   2.012   3.958   0.925
17139WAT     H251660   1.935   3.906   1.059
17140WAT      O51661   2.182   1.518   5.466
17140WAT     H151662   2.126   1.463   5.404
17140WAT     H251663   2.242   1.578   5.413
17141WAT      O51664   2.469   1.778   9.870
17141WAT     H151665   2.541   1.710   9.855
17141WAT     H251666   2.396   1.763   9.803
17142WAT      O51667   1.278   5.144   3.244
17142WAT     H151668   1.309   5.070   3.305
17142WAT     H251669   1.257   5.106   3.154
17143WAT      O51670   0.832   2.955   6.136
17143WAT     H151671   0.927   2.925   6.134
17143WAT     H251672   0.789   2.935   6.048
17144WAT      O51673   5.783   8.710   3.847
17144WAT     H151674   5.827   8.790   3.805
17144WAT     H251675   5.852   8.652   3.888
17145WAT      O51676   4.584   3.759   4.130
17145WAT     H151677   4.601   3.849   4.171
17145WAT     H251678   4.664   3.732   4.077
17146WAT      O51679   1.470   1.389   6.111
17146WAT     H151680   1.446   1.447   6.032
17146WAT     H251681   1.522   1.310   6.079
17147WAT      O51682   0.378   1.551   5.552
17147WAT     H151683   0.399   1.455   5.533
17147WAT     H251684   0.459   1.607   5.533
17148WAT      O51685   5.616   9.563   9.033
17148WAT     H151686   5.589   9.511   8.952
17148WAT     H251687   5.599   9.508   9.115
17149WAT      O51688   5.810   7.211   7.118
17149WAT     H151689   5.741   7.152   7.158
17149WAT     H251690   5.901   7.180   7.147
17150WAT      O51691   1.002   2.976   3.437
17150WAT     H151692   0.958   3.055   3.396
17150WAT     H251693   0.933   2.917   3.479
17151WAT      O51694   0.362   5.974   2.148
17151WAT     H151695   0.320   5.891   2.186
17151WAT     H251696   0.426   5.949   2.076
17152WAT      O51697   2.804   7.486   8.261
17152WAT     H151698   2.739   7.464   8.189
17152WAT     H251699   2.883   7.425   8.254
17153WAT      O51700   4.316   1.195   0.283
17153WAT     H151701   4.348   1.163   0.193
17153WAT     H251702   4.319   1.295   0.285
17154WAT      O51703   0.371   6.088   5.446
17154WAT     H151704   0.428   6.046   5.376
17154WAT     H251705   0.305   6.150   5.402
17155WAT      O51706   0.382   4.400   7.609
17155WAT     H151707   0.389   4.300   7.613
17155WAT     H251708   0.289   4.426   7.583
17156WAT      O51709   4.415   3.598   7.468
17156WAT     H151710   4.503   3.582   7.424
17156WAT     H251711   4.362   3.514   7.468
17157WAT      O51712   4.022   3.133   8.708
17157WAT     H151713   4.022   3.231   8.693
17157WAT     H251714   3.933   3.104   8.743
17158WAT      O51715   2.943   8.753   4.945
17158WAT     H151716   2.915   8.707   5.029
17158WAT     H251717   2.939   8.689   4.868
17159WAT      O51718   6.969   1.660   6.185
17159WAT     H151719   6.972   1.737   6.249
17159WAT     H251720   6.882   1.612   6.196
17160WAT      O51721   0.927   2.941   7.514
17160WAT     H151722   0.966   2.855   7.545
17160WAT     H251723   0.930   3.008   7.588
17161WAT      O51724   6.532   8.281   3.776
17161WAT     H151725   6.575   8.250   3.861
17161WAT     H251726   6.556   8.218   3.702
17162WAT      O51727   9.132   5.311   5.955
17162WAT     H151728   9.069   5.234   5.970
17162WAT     H251729   9.092   5.374   5.888
17163WAT      O51730   9.386   9.408   4.390
17163WAT     H151731   9.294   9.370   4.376
17163WAT     H251732   9.379   9.508   4.400
17164WAT      O51733   2.022   3.600   9.361
17164WAT     H151734   1.966   3.548   9.296
17164WAT     H251735   2.046   3.688   9.321
17165WAT      O51736   9.866   3.601   1.811
17165WAT     H151737   9.902   3.685   1.852
17165WAT     H251738   9.894   3.596   1.715
17166WAT      O51739   3.482   3.831   7.897
17166WAT     H151740   3.493   3.732   7.893
17166WAT     H251741   3.556   3.875   7.846
17167WAT      O51742   3.196   9.574   3.547
17167WAT     H151743   3.230   9.563   3.640
17167WAT     H251744   3.154   9.489   3.516
17168WAT      O51745   6.563   8.267   7.847
17168WAT     H151746   6.623   8.227   7.917
17168WAT     H251747   6.606   8.258   7.758
17169WAT      O51748   9.279   1.592   7.156
17169WAT     H151749   9.250   1.613   7.063
17169WAT     H251750   9.209   1.622   7.221
17170WAT      O51751   2.780   0.231   6.755
17170WAT     H151752   2.786   0.145   6.704
17170WAT     H251753   2.783   0.308   6.691
17171WAT      O51754   4.870   5.241   3.759
17171WAT     H151755   4.784   5.232   3.809
17171WAT     H251756   4.852   5.281   3.669
17172WAT      O51757   8.549   8.404   9.842
17172WAT     H151758   8.454   8.386   9.869
17172WAT     H251759   8.551   8.475   9.772
17173WAT      O51760   6.743   9.549   2.473
17173WAT     H151761   6.819   9.530   2.411
17173WAT     H251762   6.776   9.606   2.549
17174WAT      O51763   2.798   0.432   4.414
17174WAT     H151764   2.835   0.525   4.410
17174WAT     H251765   2.854   0.376   4.475
17175WAT      O51766   6.550   9.611   1.117
17175WAT     H151767   6.556   9.694   1.062
17175WAT     H251768   6.628   9.605   1.179
17176WAT      O51769   3.305   6.113   4.456
17176WAT     H151770   3.219   6.104   4.406
17176WAT     H251771   3.334   6.023   4.489
17177WAT      O51772   8.672   0.093   2.812
17177WAT     H151773   8.588   0.069   2.764
17177WAT     H251774   8.691   0.190   2.800
17178WAT      O51775   8.754   6.767   0.190
17178WAT     H151776   8.853   6.767   0.174
17178WAT     H251777   8.719   6.860   0.182
17179WAT      O51778   6.139   7.435   3.931
17179WAT     H151779   6.233   7.470   3.930
17179WAT     H251780   6.113   7.413   4.024
17180WAT      O51781   9.732   3.749   4.363
17180WAT     H151782   9.748   3.779   4.269
17180WAT     H251783   9.635   3.728   4.376
17181WAT      O51784   0.943   7.362   1.962
17181WAT     H151785   0.966   7.273   1.923
17181WAT     H251786   0.919   7.351   2.058
17182WAT      O51787   8.182   0.240   1.046
17182WAT     H151788   8.258   0.192   1.003
17182WAT     H251789   8.182   0.336   1.017
17183WAT      O51790   5.252   6.229   8.105
17183WAT     H151791   5.190   6.248   8.028
17183WAT     H251792   5.280   6.316   8.145
17184WAT      O51793   4.026   5.676   9.832
17184WAT     H151794   4.013   5.577   9.842
17184WAT     H251795   3.964   5.711   9.762
17185WAT      O51796   4.032   1.003   5.471
17185WAT     H151797   3.972   0.959   5.403
17185WAT     H251798   3.982   1.015   5.556
17186WAT      O51799   9.416   2.390   6.938
17186WAT     H151800   9.453   2.381   7.030
17186WAT     H251801   9.459   2.468   6.892
17187WAT      O51802   6.056   5.104   7.088
17187WAT     H151803   6.014   5.056   7.011
17187WAT     H251804   6.023   5.198   7.091
17188WAT      O51805   3.905   5.710   6.003
17188WAT     H151806   3.987   5.658   5.979
17188WAT     H251807   3.903   5.795   5.951
17189WAT      O51808   7.712   1.181   6.439
17189WAT     H151809   7.639   1.113   6.445
17189WAT     H251810   7.673   1.271   6.418
17190WAT      O51811   5.215   5.992   9.776
17190WAT     H151812   5.160   5.984   9.693
17190WAT     H251813   5.156   6.017   9.853
17191WAT      O51814   0.162   8.674   1.584
17191WAT     H151815   0.120   8.610   1.649
17191WAT     H251816   0.095   8.742   1.555
17192WAT      O51817   2.448   0.628   6.480
17192WAT     H151818   2.457   0.680   6.395
17192WAT     H251819   2.459   0.690   6.558
17193WAT      O51820   7.548   1.999   1.165
17193WAT     H151821   7.568   1.949   1.080
17193WAT     H251822   7.517   1.935   1.235
17194WAT      O51823   4.831   0.998   8.391
17194WAT     H151824   4.893   1.043   8.455
17194WAT     H251825   4.736   1.017   8.417
17195WAT      O51826   8.539   5.533   8.640
17195WAT     H151827   8.453   5.509   8.685
17195WAT     H251828   8.564   5.627   8.663
17196WAT      O51829   4.708   1.435   9.589
17196WAT     H151830   4.720   1.515   9.649
17196WAT     H251831   4.693   1.466   9.495
17197WAT      O51832   2.729   6.945   0.048
17197WAT     H151833   2.824   6.921   0.068
17197WAT     H251834   2.712   6.932  -0.050
17198WAT      O51835   9.572   1.930   7.658
17198WAT     H151836   9.606   1.871   7.585
17198WAT     H251837   9.473   1.939   7.650
17199WAT      O51838   4.091   0.625   8.129
17199WAT     H151839   4.105   0.541   8.180
17199WAT     H251840   4.015   0.676   8.169
17200WAT      O51841   9.214   9.282   4.718
17200WAT     H151842   9.205   9.196   4.768
17200WAT     H251843   9.192   9.267   4.622
17201WAT      O51844   9.750   4.029   5.752
17201WAT     H151845   9.823   4.010   5.817
17201WAT     H251846   9.732   4.127   5.749
17202WAT      O51847   5.031   9.232   7.552
17202WAT     H151848   5.012   9.310   7.492
17202WAT     H251849   5.124   9.239   7.587
17203WAT      O51850   9.311   6.762   7.690
17203WAT     H151851   9.253   6.786   7.768
17203WAT     H251852   9.370   6.840   7.667
17204WAT      O51853   0.647   0.237   5.870
17204WAT     H151854   0.743   0.210   5.882
17204WAT     H251855   0.643   0.323   5.820
17205WAT      O51856   1.915   8.272   5.600
17205WAT     H151857   1.921   8.259   5.501
17205WAT     H251858   2.005   8.295   5.635
17206WAT      O51859   1.365   6.151   7.955
17206WAT     H151860   1.398   6.232   8.003
17206WAT     H251861   1.435   6.120   7.890
17207WAT      O51862   9.216   6.065   5.992
17207WAT     H151863   9.175   6.004   5.925
17207WAT     H251864   9.154   6.142   6.009
17208WAT      O51865   5.295   4.862   8.559
17208WAT     H151866   5.196   4.854   8.550
17208WAT     H251867   5.332   4.782   8.606
17209WAT      O51868   8.971   6.826   4.713
17209WAT     H151869   8.922   6.815   4.799
17209WAT     H251870   8.973   6.739   4.663
17210WAT      O51871   8.386   1.754   2.271
17210WAT     H151872   8.484   1.766   2.252
17210WAT     H251873   8.351   1.678   2.216
17211WAT      O51874   7.302   8.764   4.454
17211WAT     H151875   7.214   8.763   4.500
17211WAT     H251876   7.334   8.858   4.446
17212WAT      O51877   0.079   1.408   2.930
17212WAT     H151878  -0.021   1.419   2.927
17212WAT     H251879   0.122   1.497   2.916
17213WAT      O51880   8.091   2.082   1.373
17213WAT     H151881   7.997   2.112   1.358
17213WAT     H251882   8.122   2.114   1.463
17214WAT      O51883   2.486   6.982   7.244
17214WAT     H151884   2.555   6.911   7.260
17214WAT     H251885   2.448   7.012   7.331
17215WAT      O51886   7.753   2.837   8.692
17215WAT     H151887   7.691   2.762   8.714
17215WAT     H251888   7.797   2.821   8.604
17216WAT      O51889   2.099   4.134   4.513
17216WAT     H151890   2.142   4.059   4.562
17216WAT     H251891   2.150   4.218   4.529
17217WAT      O51892   3.476   8.146   3.053
17217WAT     H151893   3.376   8.140   3.054
17217WAT     H251894   3.503   8.242   3.059
17218WAT      O51895   5.601   2.090   6.368
17218WAT     H151896   5.616   2.003   6.414
17218WAT     H251897   5.580   2.073   6.271
17219WAT      O51898   0.108   1.648   0.591
17219WAT     H151899   0.147   1.668   0.681
17219WAT     H251900   0.038   1.716   0.569
17220WAT      O51901   6.618   7.804   9.241
17220WAT     H151902   6.630   7.710   9.210
17220WAT     H251903   6.574   7.857   9.169
17221WAT      O51904   6.030   3.007   8.501
17221WAT     H151905   6.063   3.017   8.595
17221WAT     H251906   5.942   2.959   8.501
17222WAT      O51907   6.770   1.976   9.142
17222WAT     H151908   6.673   1.955   9.156
17222WAT     H251909   6.822   1.944   9.220
17223WAT      O51910   4.507   3.353   6.185
17223WAT     H151911   4.544   3.433   6.232
17223WAT     H251912   4.455   3.298   6.250
17224WAT      O51913   8.312   2.682   9.864
17224WAT     H151914   8.314   2.586   9.835
17224WAT     H251915   8.225   2.701   9.910
17225WAT      O51916   2.806   8.612   5.161
17225WAT     H151917   2.789   8.539   5.096
17225WAT     H251918   2.734   8.612   5.231
17226WAT      O51919   4.193   6.353   1.521
17226WAT     H151920   4.138   6.333   1.440
17226WAT     H251921   4.135   6.354   1.602
17227WAT      O51922   0.845   4.688   8.038
17227WAT     H151923   0.766   4.749   8.039
17227WAT     H251924   0.850   4.641   7.950
17228WAT      O51925   7.725   1.066   1.595
17228WAT     H151926   7.652   1.060   1.662
17228WAT     H251927   7.768   1.156   1.602
17229WAT      O51928   0.435   8.061   5.056
17229WAT     H151929   0.410   8.069   4.959
17229WAT     H251930   0.386   7.983   5.096
17230WAT      O51931   1.151   1.021   9.691
17230WAT     H151932   1.152   0.921   9.692
17230WAT     H251933   1.234   1.055   9.647
17231WAT      O51934   3.841   7.492   2.111
17231WAT     H151935   3.819   7.589   2.115
17231WAT     H251936   3.862   7.458   2.204
17232WAT      O51937   2.433   9.424   6.937
17232WAT     H151938   2.459   9.519   6.958
17232WAT     H251939   2.512   9.376   6.898
17233WAT      O51940   5.906   5.851   1.267
17233WAT     H151941   5.953   5.791   1.202
17233WAT     H251942   5.807   5.848   1.250
17234WAT      O51943   1.552   9.412   1.171
17234WAT     H151944   1.549   9.485   1.102
17234WAT     H251945   1.513   9.329   1.132
17235WAT      O51946   0.522   5.279   8.363
17235WAT     H151947   0.509   5.209   8.292
17235WAT     H251948   0.619   5.283   8.388
17236WAT      O51949   5.268   5.381   7.394
17236WAT     H151950   5.188   5.416   7.345
17236WAT     H251951   5.266   5.281   7.392
17237WAT      O51952   7.084   0.930   7.921
17237WAT     H151953   7.008   0.895   7.866
17237WAT     H251954   7.162   0.947   7.862
17238WAT      O51955   1.985   2.317   9.661
17238WAT     H151956   1.988   2.402   9.713
17238WAT     H251957   1.890   2.289   9.647
17239WAT      O51958   3.956   5.460   0.529
17239WAT     H151959   4.023   5.385   0.528
17239WAT     H251960   3.955   5.503   0.619
17240WAT      O51961   0.875   5.251   8.934
17240WAT     H151962   0.854   5.209   8.846
17240WAT     H251963   0.905   5.181   8.998
17241WAT      O51964   9.042   8.272   3.426
17241WAT     H151965   9.043   8.372   3.440
17241WAT     H251966   9.023   8.252   3.330
17242WAT      O51967   5.654   4.276   8.208
17242WAT     H151968   5.617   4.364   8.180
17242WAT     H251969   5.740   4.290   8.257
17243WAT      O51970   1.023   9.734   4.914
17243WAT     H151971   1.037   9.766   4.821
17243WAT     H251972   1.111   9.706   4.953
17244WAT      O51973   2.476   2.716   3.967
17244WAT     H151974   2.398   2.775   3.989
17244WAT     H251975   2.467   2.682   3.874
17245WAT      O51976   7.662   2.517   9.006
17245WAT     H151977   7.565   2.525   9.031
17245WAT     H251978   7.717   2.574   9.067
17246WAT      O51979   0.331   2.452   6.751
17246WAT     H151980   0.276   2.436   6.669
17246WAT     H251981   0.301   2.390   6.824
17247WAT      O51982   9.837   2.522   5.815
17247WAT     H151983   9.841   2.620   5.830
17247WAT     H251984   9.929   2.487   5.794
17248WAT      O51985   3.781   4.880   9.039
17248WAT     H151986   3.802   4.962   9.093
17248WAT     H251987   3.682   4.869   9.033
17249WAT      O51988   6.939   6.921   5.648
17249WAT     H151989   7.036   6.941   5.656
17249WAT     H251990   6.923   6.823   5.663
17250WAT      O51991   1.766   7.683   5.972
17250WAT     H151992   1.700   7.630   6.026
17250WAT     H251993   1.754   7.781   5.992
17251WAT      O51994   1.294   9.585   8.061
17251WAT     H151995   1.373   9.539   8.020
17251WAT     H251996   1.323   9.634   8.143
17252WAT      O51997   1.931   5.026   8.459
17252WAT     H151998   1.857   5.045   8.524
17252WAT     H251999   2.012   5.079   8.484
17253WAT      O52000   4.205   2.861   6.764
17253WAT     H152001   4.108   2.887   6.770
17253WAT     H252002   4.233   2.859   6.668
17254WAT      O52003   4.405   4.313   3.606
17254WAT     H152004   4.469   4.377   3.650
17254WAT     H252005   4.373   4.352   3.520
17255WAT      O52006   2.765   2.997   6.189
17255WAT     H152007   2.762   2.987   6.288
17255WAT     H252008   2.754   3.093   6.165
17256WAT      O52009   2.995   8.555   2.206
17256WAT     H152010   2.955   8.633   2.254
17256WAT     H252011   2.933   8.525   2.134
17257WAT      O52012   4.812   8.239   2.016
17257WAT     H152013   4.713   8.239   1.999
17257WAT     H252014   4.834   8.311   2.081
17258WAT      O52015   9.217   3.810   4.232
17258WAT     H152016   9.304   3.844   4.197
17258WAT     H252017   9.165   3.886   4.273
17259WAT      O52018   3.971   7.854   4.973
17259WAT     H152019   3.966   7.756   4.995
17259WAT     H252020   3.900   7.903   5.023
17260WAT      O52021   3.273   0.685   8.490
17260WAT     H152022   3.350   0.660   8.548
17260WAT     H252023   3.228   0.766   8.528
17261WAT      O52024   4.967   3.062   9.730
17261WAT     H152025   4.941   3.031   9.638
17261WAT     H252026   5.059   3.102   9.727
17262WAT      O52027   3.703   1.100   8.568
17262WAT     H152028   3.687   1.029   8.499
17262WAT     H252029   3.617   1.148   8.587
17263WAT      O52030   6.464   5.696   6.216
17263WAT     H152031   6.400   5.771   6.232
17263WAT     H252032   6.473   5.679   6.118
17264WAT      O52033   1.590   5.482   3.038
17264WAT     H152034   1.534   5.538   3.099
17264WAT     H252035   1.601   5.391   3.076
17265WAT      O52036   5.519   5.087   1.171
17265WAT     H152037   5.535   5.007   1.112
17265WAT     H252038   5.510   5.057   1.266
17266WAT      O52039   9.789   9.683   2.347
17266WAT     H152040   9.798   9.584   2.362
17266WAT     H252041   9.718   9.700   2.279
17267WAT      O52042   1.038   0.858   5.091
17267WAT     H152043   0.941   0.832   5.090
17267WAT     H252044   1.061   0.902   5.004
17268WAT      O52045   2.412   8.184   6.940
17268WAT     H152046   2.414   8.118   6.865
17268WAT     H252047   2.317   8.203   6.966
17269WAT      O52048   2.695   9.217   6.880
17269WAT     H152049   2.699   9.217   6.980
17269WAT     H252050   2.712   9.125   6.845
17270WAT      O52051   6.692   6.445   4.803
17270WAT     H152052   6.715   6.515   4.871
17270WAT     H252053   6.675   6.358   4.849
17271WAT      O52054   6.633   1.679   3.121
17271WAT     H152055   6.585   1.760   3.154
17271WAT     H252056   6.606   1.599   3.176
17272WAT      O52057   4.497   6.819   3.381
17272WAT     H152058   4.460   6.778   3.298
17272WAT     H252059   4.593   6.842   3.368
17273WAT      O52060   3.812   7.580   0.596
17273WAT     H152061   3.877   7.607   0.525
17273WAT     H252062   3.786   7.484   0.584
17274WAT      O52063   6.614   2.937   5.876
17274WAT     H152064   6.700   2.905   5.834
17274WAT     H252065   6.550   2.963   5.804
17275WAT      O52066   7.338   3.371   1.348
17275WAT     H152067   7.327   3.469   1.366
17275WAT     H252068   7.429   3.341   1.376
17276WAT      O52069   3.422   2.100   5.798
17276WAT     H152070   3.474   2.019   5.771
17276WAT     H252071   3.485   2.174   5.819
17277WAT      O52072   1.857   7.607   2.758
17277WAT     H152073   1.883   7.701   2.783
17277WAT     H252074   1.809   7.565   2.835
17278WAT      O52075   0.134   0.476   1.144
17278WAT     H152076   0.188   0.455   1.063
17278WAT     H252077   0.182   0.542   1.201
17279WAT      O52078   8.136   9.756   8.421
17279WAT     H152079   8.206   9.721   8.483
17279WAT     H252080   8.089   9.833   8.464
17280WAT      O52081   3.864   3.298   1.301
17280WAT     H152082   3.920   3.233   1.248
17280WAT     H252083   3.806   3.248   1.365
17281WAT      O52084   0.367   6.293   0.814
17281WAT     H152085   0.419   6.249   0.741
17281WAT     H252086   0.383   6.392   0.811
17282WAT      O52087   3.799   7.931   1.249
17282WAT     H152088   3.745   8.001   1.204
17282WAT     H252089   3.813   7.854   1.186
17283WAT      O52090   0.117   7.721   0.683
17283WAT     H152091   0.166   7.636   0.663
17283WAT     H252092   0.159   7.796   0.632
17284WAT      O52093   8.806   6.824   4.946
17284WAT     H152094   8.822   6.750   5.012
17284WAT     H252095   8.707   6.839   4.936
17285WAT      O52096   8.022   4.084   5.817
17285WAT     H152097   8.001   4.063   5.913
17285WAT     H252098   7.988   4.175   5.795
17286WAT      O52099   9.382   1.694   2.685
17286WAT     H152100   9.323   1.773   2.667
17286WAT     H252101   9.404   1.690   2.782
17287WAT      O52102   4.430   4.483   6.016
17287WAT     H152103   4.493   4.446   6.084
17287WAT     H252104   4.357   4.534   6.063
17288WAT      O52105   4.505   0.058   1.450
17288WAT     H152106   4.534   0.100   1.536
17288WAT     H252107   4.523   0.120   1.374
17289WAT      O52108   3.981   2.359   7.197
17289WAT     H152109   3.941   2.342   7.287
17289WAT     H252110   3.920   2.324   7.126
17290WAT      O52111   8.677   7.613   0.881
17290WAT     H152112   8.730   7.698   0.873
17290WAT     H252113   8.602   7.614   0.815
17291WAT      O52114   5.828   7.935   2.415
17291WAT     H152115   5.827   7.951   2.316
17291WAT     H252116   5.883   8.006   2.459
17292WAT      O52117   1.079   8.380   1.151
17292WAT     H152118   0.991   8.425   1.133
17292WAT     H252119   1.076   8.285   1.121
17293WAT      O52120   4.356   4.110   4.057
17293WAT     H152121   4.322   4.174   3.988
17293WAT     H252122   4.424   4.050   4.015
17294WAT      O52123   2.456   8.463   1.683
17294WAT     H152124   2.498   8.520   1.612
17294WAT     H252125   2.401   8.521   1.744
17295WAT      O52126   4.670   4.428   1.170
17295WAT     H152127   4.750   4.447   1.113
17295WAT     H252128   4.699   4.403   1.262
17296WAT      O52129   5.813   7.631   2.172
17296WAT     H152130   5.881   7.658   2.240
17296WAT     H252131   5.794   7.533   2.181
17297WAT      O52132   5.808   3.707   3.288
17297WAT     H152133   5.745   3.776   3.253
17297WAT     H252134   5.767   3.616   3.278
17298WAT      O52135   7.882   0.931   6.959
17298WAT     H152136   7.895   0.983   7.043
17298WAT     H252137   7.873   0.834   6.981
17299WAT      O52138   7.217   3.643   8.671
17299WAT     H152139   7.197   3.660   8.574
17299WAT     H252140   7.278   3.715   8.705
17300WAT      O52141   2.749   2.893   2.160
17300WAT     H152142   2.668   2.951   2.160
17300WAT     H252143   2.796   2.901   2.072
17301WAT      O52144   9.054   3.145   6.937
17301WAT     H152145   9.111   3.120   6.859
17301WAT     H252146   8.962   3.167   6.905
17302WAT      O52147   0.965   3.970   3.165
17302WAT     H152148   1.024   3.930   3.235
17302WAT     H252149   0.913   4.046   3.205
17303WAT      O52150   7.909   0.778   4.483
17303WAT     H152151   7.985   0.713   4.484
17303WAT     H252152   7.874   0.789   4.576
17304WAT      O52153   8.741   6.328   0.625
17304WAT     H152154   8.758   6.298   0.531
17304WAT     H252155   8.651   6.297   0.654
17305WAT      O52156   7.806   0.119   3.103
17305WAT     H152157   7.710   0.095   3.091
17305WAT     H252158   7.815   0.182   3.180
17306WAT      O52159   9.859   1.547   9.576
17306WAT     H152160   9.957   1.566   9.570
17306WAT     H252161   9.845   1.449   9.590
17307WAT      O52162   7.021   8.315   9.559
17307WAT     H152163   6.947   8.353   9.615
17307WAT     H252164   6.993   8.226   9.523
17308WAT      O52165   4.781   4.719   7.085
17308WAT     H152166   4.881   4.722   7.080
17308WAT     H252167   4.746   4.658   7.013
17309WAT      O52168   2.907   2.599   9.647
17309WAT     H152169   2.967   2.520   9.652
17309WAT     H252170   2.922   2.658   9.726
17310WAT      O52171   9.290   5.966   7.585
17310WAT     H152172   9.315   5.925   7.497
17310WAT     H252173   9.192   5.950   7.603
17311WAT      O52174   1.885   0.957   3.251
17311WAT     H152175   1.811   0.989   3.310
17311WAT     H252176   1.956   1.027   3.247
17312WAT      O52177   1.925   3.606   6.551
17312WAT     H152178   1.878   3.674   6.494
17312WAT     H252179   1.876   3.519   6.547
17313WAT      O52180   8.648   3.309   4.367
17313WAT     H152181   8.553   3.330   4.346
17313WAT     H252182   8.661   3.306   4.466
17314WAT      O52183   8.882   0.341   0.211
17314WAT     H152184   8.911   0.245   0.209
17314WAT     H252185   8.807   0.354   0.147
17315WAT      O52186   9.426   3.339   8.168
17315WAT     H152187   9.350   3.313   8.109
17315WAT     H252188   9.486   3.403   8.119
17316WAT      O52189   0.006   2.884   7.493
17316WAT     H152190  -0.073   2.844   7.538
17316WAT     H252191  -0.010   2.889   7.395
17317WAT      O52192   6.128   5.766   5.951
17317WAT     H152193   6.098   5.827   6.024
17317WAT     H252194   6.227   5.755   5.955
17318WAT      O52195   7.306   2.616   9.622
17318WAT     H152196   7.387   2.628   9.564
17318WAT     H252197   7.311   2.680   9.698
17319WAT      O52198   1.110   6.827   0.578
17319WAT     H152199   1.110   6.912   0.629
17319WAT     H252200   1.204   6.794   0.568
17320WAT      O52201   9.492   6.500   4.132
17320WAT     H152202   9.396   6.527   4.139
17320WAT     H252203   9.548   6.561   4.188
17321WAT      O52204   9.647   3.948   3.259
17321WAT     H152205   9.627   3.924   3.164
17321WAT     H252206   9.594   3.890   3.321
17322WAT      O52207   5.474   9.817   5.021
17322WAT     H152208   5.491   9.845   4.926
17322WAT     H252209   5.496   9.893   5.082
17323WAT      O52210   3.070   5.813   5.315
17323WAT     H152211   3.057   5.718   5.342
17323WAT     H252212   3.168   5.835   5.314
17324WAT      O52213   0.321   7.464   6.836
17324WAT     H152214   0.262   7.457   6.917
17324WAT     H252215   0.279   7.527   6.770
17325WAT      O52216   5.040   6.225   2.073
17325WAT     H152217   5.104   6.228   2.150
17325WAT     H252218   5.019   6.318   2.044
17326WAT      O52219   7.220   8.442   8.566
17326WAT     H152220   7.241   8.349   8.536
17326WAT     H252221   7.265   8.508   8.505
17327WAT      O52222   6.827   9.470   3.539
17327WAT     H152223   6.900   9.458   3.606
17327WAT     H252224   6.866   9.489   3.449
17328WAT      O52225   5.318   3.675   1.569
17328WAT     H152226   5.358   3.692   1.478
17328WAT     H252227   5.363   3.596   1.610
17329WAT      O52228   7.007   7.436   4.183
17329WAT     H152229   7.088   7.485   4.151
17329WAT     H252230   6.931   7.500   4.194
17330WAT      O52231   5.489   9.431   8.831
17330WAT     H152232   5.454   9.462   8.743
17330WAT     H252233   5.450   9.341   8.853
17331WAT      O52234   2.358   8.302   4.709
17331WAT     H152235   2.446   8.318   4.752
17331WAT     H252236   2.322   8.214   4.740
17332WAT      O52237   7.308   5.656   7.301
17332WAT     H152238   7.396   5.609   7.295
17332WAT     H252239   7.321   5.744   7.346
17333WAT      O52240   0.237   1.242   6.446
17333WAT     H152241   0.260   1.175   6.376
17333WAT     H252242   0.251   1.201   6.536
17334WAT      O52243   9.107   3.404   0.312
17334WAT     H152244   9.053   3.342   0.255
17334WAT     H252245   9.081   3.391   0.408
17335WAT      O52246   1.118   0.804   9.237
17335WAT     H152247   1.183   0.864   9.192
17335WAT     H252248   1.062   0.857   9.300
17336WAT      O52249   6.288   0.888   7.757
17336WAT     H152250   6.267   0.825   7.832
17336WAT     H252251   6.386   0.908   7.755
17337WAT      O52252   0.832   2.512   6.594
17337WAT     H152253   0.873   2.428   6.629
17337WAT     H252254   0.734   2.511   6.610
17338WAT      O52255   2.330   5.646   4.269
17338WAT     H152256   2.388   5.721   4.303
17338WAT     H252257   2.355   5.626   4.174
17339WAT      O52258   1.807   3.567   7.815
17339WAT     H152259   1.851   3.655   7.835
17339WAT     H252260   1.854   3.522   7.739
17340WAT      O52261   2.337   7.807   5.554
17340WAT     H152262   2.243   7.787   5.526
17340WAT     H252263   2.389   7.721   5.560
17341WAT      O52264   1.714   8.941   4.767
17341WAT     H152265   1.773   8.933   4.687
17341WAT     H252266   1.758   8.999   4.835
17342WAT      O52267   9.324   6.706   5.299
17342WAT     H152268   9.250   6.745   5.353
17342WAT     H252269   9.287   6.644   5.231
17343WAT      O52270   4.138   0.398   1.543
17343WAT     H152271   4.165   0.313   1.587
17343WAT     H252272   4.047   0.388   1.503
17344WAT      O52273   7.015   5.733   1.679
17344WAT     H152274   7.090   5.763   1.621
17344WAT     H252275   7.034   5.640   1.711
17345WAT      O52276   7.202   2.617   2.270
17345WAT     H152277   7.106   2.593   2.259
17345WAT     H252278   7.218   2.709   2.234
17346WAT      O52279   4.873   5.757   8.660
17346WAT     H152280   4.867   5.759   8.760
17346WAT     H252281   4.785   5.727   8.623
17347WAT      O52282   2.640   8.449   4.491
17347WAT     H152283   2.671   8.399   4.573
17347WAT     H252284   2.542   8.466   4.498
17348WAT      O52285   0.378   9.390   6.140
17348WAT     H152286   0.467   9.413   6.101
17348WAT     H252287   0.320   9.472   6.141
17349WAT      O52288   8.786   2.235   2.618
17349WAT     H152289   8.784   2.315   2.678
17349WAT     H252290   8.752   2.260   2.528
17350WAT      O52291   4.064   0.192   6.672
17350WAT     H152292   4.164   0.194   6.676
17350WAT     H252293   4.029   0.284   6.689
17351WAT      O52294   9.658   9.785   7.416
17351WAT     H152295   9.598   9.812   7.491
17351WAT     H252296   9.751   9.773   7.451
17352WAT      O52297   0.722   3.984   2.147
17352WAT     H152298   0.810   4.030   2.158
17352WAT     H252299   0.705   3.968   2.050
17353WAT      O52300   8.788   9.567   7.604
17353WAT     H152301   8.820   9.647   7.654
17353WAT     H252302   8.766   9.494   7.668
17354WAT      O52303   3.908   1.222   5.887
17354WAT     H152304   3.948   1.186   5.802
17354WAT     H252305   3.980   1.263   5.943
17355WAT      O52306   7.362   4.444   5.314
17355WAT     H152307   7.405   4.354   5.315
17355WAT     H252308   7.293   4.446   5.241
17356WAT      O52309   3.269   2.226   2.797
17356WAT     H152310   3.189   2.186   2.752
17356WAT     H252311   3.277   2.190   2.890
17357WAT      O52312   7.352   6.633   6.642
17357WAT     H152313   7.325   6.727   6.617
17357WAT     H252314   7.430   6.637   6.705
17358WAT      O52315   0.853   3.499   0.932
17358WAT     H152316   0.771   3.555   0.942
17358WAT     H252317   0.837   3.410   0.974
17359WAT      O52318   8.087   3.057   2.593
17359WAT     H152319   8.006   3.013   2.553
17359WAT     H252320   8.068   3.154   2.607
17360WAT      O52321   5.013   6.347   9.710
17360WAT     H152322   5.086   6.382   9.769
17360WAT     H252323   4.936   6.319   9.766
17361WAT      O52324   7.765   3.614   9.676
17361WAT     H152325   7.837   3.546   9.679
17361WAT     H252326   7.678   3.573   9.703
17362WAT      O52327   3.503   0.373   8.921
17362WAT     H152328   3.422   0.317   8.934
17362WAT     H252329   3.539   0.402   9.009
17363WAT      O52330   3.268   4.115   1.809
17363WAT     H152331   3.358   4.089   1.844
17363WAT     H252332   3.239   4.048   1.740
17364WAT      O52333   8.723   5.471   6.143
17364WAT     H152334   8.636   5.520   6.149
17364WAT     H252335   8.792   5.530   6.100
17365WAT      O52336   1.754   9.294   3.706
17365WAT     H152337   1.764   9.252   3.796
17365WAT     H252338   1.838   9.279   3.653
17366WAT      O52339   7.780   7.643   2.918
17366WAT     H152340   7.791   7.742   2.925
17366WAT     H252341   7.864   7.598   2.950
17367WAT      O52342   6.304   7.704   9.161
17367WAT     H152343   6.372   7.633   9.174
17367WAT     H252344   6.250   7.715   9.244
17368WAT      O52345   7.009   5.748   8.817
17368WAT     H152346   7.088   5.747   8.879
17368WAT     H252347   7.042   5.763   8.723
17369WAT      O52348   8.008   4.528   1.757
17369WAT     H152349   7.971   4.619   1.737
17369WAT     H252350   8.107   4.534   1.770
17370WAT      O52351   3.736   2.383   7.835
17370WAT     H152352   3.720   2.291   7.801
17370WAT     H252353   3.652   2.437   7.827
17371WAT      O52354   9.218   1.344   0.672
17371WAT     H152355   9.140   1.358   0.734
17371WAT     H252356   9.280   1.277   0.713
17372WAT      O52357   6.712   5.587   7.079
17372WAT     H152358   6.645   5.657   7.101
17372WAT     H252359   6.715   5.573   6.980
17373WAT      O52360   1.876   0.463   8.033
17373WAT     H152361   1.911   0.507   7.951
17373WAT     H252362   1.788   0.419   8.013
17374WAT      O52363   2.561   5.425   0.148
17374WAT     H152364   2.549   5.448   0.244
17374WAT     H252365   2.543   5.505   0.092
17375WAT      O52366   3.948   4.062   1.741
17375WAT     H152367   3.917   4.128   1.808
17375WAT     H252368   3.875   3.997   1.721
17376WAT      O52369   5.373   3.510   9.840
17376WAT     H152370   5.319   3.593   9.852
17376WAT     H252371   5.324   3.446   9.780
17377WAT      O52372   6.253   0.361   8.934
17377WAT     H152373   6.267   0.454   8.901
17377WAT     H252374   6.168   0.325   8.895
17378WAT      O52375   7.076   5.445   2.762
17378WAT     H152376   7.125   5.460   2.847
17378WAT     H252377   6.997   5.507   2.757
17379WAT      O52378   5.723   8.864   4.075
17379WAT     H152379   5.731   8.839   3.979
17379WAT     H252380   5.791   8.934   4.097
17380WAT      O52381   7.135   8.987   8.215
17380WAT     H152382   7.106   8.949   8.303
17380WAT     H252383   7.094   9.077   8.203
17381WAT      O52384   7.983   0.062   1.083
17381WAT     H152385   7.943   0.043   0.993
17381WAT     H252386   8.061   0.123   1.072
17382WAT      O52387   3.549   3.558   2.871
17382WAT     H152388   3.525   3.648   2.836
17382WAT     H252389   3.628   3.566   2.933
17383WAT      O52390   4.943   0.720   8.168
17383WAT     H152391   4.879   0.708   8.092
17383WAT     H252392   4.900   0.690   8.253
17384WAT      O52393   1.414   5.532   2.401
17384WAT     H152394   1.425   5.454   2.463
17384WAT     H252395   1.328   5.579   2.421
17385WAT      O52396   4.749   3.283   1.963
17385WAT     H152397   4.672   3.246   1.910
17385WAT     H252398   4.760   3.230   2.047
17386WAT      O52399   3.779   9.685   6.564
17386WAT     H152400   3.704   9.750   6.563
17386WAT     H252401   3.803   9.664   6.659
17387WAT      O52402   2.283   5.377   7.470
17387WAT     H152403   2.225   5.406   7.546
17387WAT     H252404   2.281   5.448   7.398
17388WAT      O52405   5.618   7.637   3.660
17388WAT     H152406   5.549   7.568   3.637
17388WAT     H252407   5.697   7.628   3.599
17389WAT      O52408   7.078   0.782   8.820
17389WAT     H152409   7.001   0.753   8.764
17389WAT     H252410   7.059   0.874   8.857
17390WAT      O52411   5.587   3.524   3.319
17390WAT     H152412   5.525   3.561   3.250
17390WAT     H252413   5.572   3.570   3.406
17391WAT      O52414   6.532   3.910   3.722
17391WAT     H152415   6.546   3.891   3.819
17391WAT     H252416   6.452   3.970   3.711
17392WAT      O52417   4.243   1.132   0.735
17392WAT     H152418   4.301   1.072   0.679
17392WAT     H252419   4.246   1.225   0.698
17393WAT      O52420   8.273   3.327   1.849
17393WAT     H152421   8.296   3.424   1.861
17393WAT     H252422   8.178   3.312   1.876
17394WAT      O52423   9.781   5.087   8.022
17394WAT     H152424   9.695   5.035   8.019
17394WAT     H252425   9.852   5.032   8.067
17395WAT      O52426   3.165   8.205   0.688
17395WAT     H152427   3.175   8.118   0.639
17395WAT     H252428   3.073   8.211   0.727
17396WAT      O52429   6.649   2.825   1.749
17396WAT     H152430   6.689   2.880   1.675
17396WAT     H252431   6.713   2.820   1.825
17397WAT      O52432   8.713   2.472   2.749
17397WAT     H152433   8.632   2.458   2.805
17397WAT     H252434   8.688   2.525   2.667
17398WAT      O52435   2.979   6.284   9.860
17398WAT     H152436   3.067   6.304   9.904
17398WAT     H252437   2.928   6.218   9.914
17399WAT      O52438   9.793   5.783   8.924
17399WAT     H152439   9.888   5.762   8.900
17399WAT     H252440   9.755   5.847   8.857
17400WAT      O52441   9.828   8.905   3.386
17400WAT     H152442   9.761   8.979   3.381
17400WAT     H252443   9.861   8.883   3.294
17401WAT      O52444   0.296   4.720   5.746
17401WAT     H152445   0.363   4.779   5.790
17401WAT     H252446   0.319   4.624   5.763
17402WAT      O52447   7.541   1.562   3.535
17402WAT     H152448   7.511   1.607   3.452
17402WAT     H252449   7.565   1.467   3.515
17403WAT      O52450   5.045   1.942   3.084
17403WAT     H152451   5.122   2.004   3.102
17403WAT     H252452   4.994   1.975   3.005
17404WAT      O52453   4.136   7.234   1.851
17404WAT     H152454   4.103   7.143   1.876
17404WAT     H252455   4.072   7.276   1.787
17405WAT      O52456   5.921   4.662   0.994
17405WAT     H152457   5.985   4.725   1.036
17405WAT     H252458   5.857   4.628   1.062
17406WAT      O52459   3.952   0.265   9.227
17406WAT     H152460   3.971   0.248   9.130
17406WAT     H252461   3.861   0.230   9.250
17407WAT      O52462   8.286   7.770   8.757
17407WAT     H152463   8.346   7.804   8.829
17407WAT     H252464   8.335   7.771   8.669
17408WAT      O52465   6.746   1.281   2.976
17408WAT     H152466   6.652   1.302   2.948
17408WAT     H252467   6.810   1.327   2.914
17409WAT      O52468   0.578   2.396   2.431
17409WAT     H152469   0.619   2.480   2.468
17409WAT     H252470   0.478   2.405   2.432
17410WAT      O52471   8.949   1.003   2.521
17410WAT     H152472   8.984   0.910   2.514
17410WAT     H252473   9.025   1.065   2.543
17411WAT      O52474   8.553   3.981   1.466
17411WAT     H152475   8.609   4.005   1.387
17411WAT     H252476   8.562   4.053   1.536
17412WAT      O52477   0.256   4.773   7.343
17412WAT     H152478   0.240   4.792   7.440
17412WAT     H252479   0.181   4.812   7.288
17413WAT      O52480   6.099   8.007   3.021
17413WAT     H152481   6.041   7.958   3.087
17413WAT     H252482   6.189   7.965   3.017
17414WAT      O52483   2.945   4.009   6.701
17414WAT     H152484   2.924   4.065   6.621
17414WAT     H252485   3.011   4.057   6.759
17415WAT      O52486   5.580   9.052   0.823
17415WAT     H152487   5.641   9.076   0.899
17415WAT     H252488   5.548   9.136   0.779
17416WAT      O52489   0.335   0.454   4.065
17416WAT     H152490   0.392   0.395   4.007
17416WAT     H252491   0.283   0.516   4.007
17417WAT      O52492   4.059   6.745   1.100
17417WAT     H152493   4.081   6.828   1.152
17417WAT     H252494   4.141   6.711   1.055
17418WAT      O52495   5.196   9.068   0.792
17418WAT     H152496   5.239   8.991   0.839
17418WAT     H252497   5.130   9.111   0.854
17419WAT      O52498   0.882   3.698   8.349
17419WAT     H152499   0.837   3.667   8.433
17419WAT     H252500   0.848   3.788   8.324
17420WAT      O52501   9.715   2.597   4.672
17420WAT     H152502   9.805   2.553   4.669
17420WAT     H252503   9.718   2.684   4.624
17421WAT      O52504   9.131   4.037   5.740
17421WAT     H152505   9.210   4.030   5.802
17421WAT     H252506   9.163   4.062   5.648
17422WAT      O52507   2.833   6.584   9.866
17422WAT     H152508   2.758   6.625   9.919
17422WAT     H252509   2.835   6.485   9.884
17423WAT      O52510   3.038   2.202   6.741
17423WAT     H152511   3.088   2.223   6.825
17423WAT     H252512   3.016   2.287   6.693
17424WAT      O52513   2.691   0.087   0.259
17424WAT     H152514   2.629   0.063   0.184
17424WAT     H252515   2.698   0.186   0.267
17425WAT      O52516   2.308   2.744   4.781
17425WAT     H152517   2.255   2.661   4.801
17425WAT     H252518   2.258   2.801   4.717
17426WAT      O52519   9.566   3.078   9.007
17426WAT     H152520   9.499   3.153   9.005
17426WAT     H252521   9.632   3.095   9.080
17427WAT      O52522   5.321   8.834   4.004
17427WAT     H152523   5.357   8.906   4.063
17427WAT     H252524   5.358   8.845   3.912
17428WAT      O52525   8.454   6.042   0.396
17428WAT     H152526   8.539   6.051   0.345
17428WAT     H252527   8.381   6.010   0.336
17429WAT      O52528   2.191   7.064   1.148
17429WAT     H152529   2.148   7.070   1.238
17429WAT     H252530   2.228   7.154   1.123
17430WAT      O52531   6.458   8.528   0.848
17430WAT     H152532   6.420   8.551   0.758
17430WAT     H252533   6.407   8.577   0.918
17431WAT      O52534   2.747   0.715   3.817
17431WAT     H152535   2.780   0.688   3.908
17431WAT     H252536   2.667   0.659   3.794
17432WAT      O52537   4.742   6.176   5.497
17432WAT     H152538   4.765   6.267   5.461
17432WAT     H252539   4.747   6.109   5.423
17433WAT      O52540   6.183   4.843   5.310
17433WAT     H152541   6.144   4.908   5.245
17433WAT     H252542   6.126   4.841   5.393
17434WAT      O52543   1.938   6.454   1.879
17434WAT     H152544   1.912   6.360   1.858
17434WAT     H252545   1.955   6.463   1.978
17435WAT      O52546   5.772   1.459   1.616
17435WAT     H152547   5.728   1.441   1.703
17435WAT     H252548   5.776   1.558   1.600
17436WAT      O52549   4.817   5.034   2.577
17436WAT     H152550   4.831   5.015   2.674
17436WAT     H252551   4.747   5.104   2.566
17437WAT      O52552   8.765   2.428   7.485
17437WAT     H152553   8.696   2.356   7.471
17437WAT     H252554   8.834   2.421   7.413
17438WAT      O52555   3.395   2.227   5.319
17438WAT     H152556   3.403   2.326   5.327
17438WAT     H252557   3.477   2.191   5.273
17439WAT      O52558   5.286   3.806   9.281
17439WAT     H152559   5.383   3.803   9.259
17439WAT     H252560   5.255   3.717   9.313
17440WAT      O52561   9.309   0.197   7.654
17440WAT     H152562   9.401   0.191   7.693
17440WAT     H252563   9.307   0.268   7.585
17441WAT      O52564   9.884   7.162   4.688
17441WAT     H152565   9.792   7.180   4.653
17441WAT     H252566   9.896   7.208   4.776
17442WAT      O52567   4.281   2.845   0.703
17442WAT     H152568   4.199   2.793   0.727
17442WAT     H252569   4.291   2.923   0.766
17443WAT      O52570   0.439   7.312   5.509
17443WAT     H152571   0.391   7.387   5.554
17443WAT     H252572   0.375   7.262   5.450
17444WAT      O52573   1.921   6.475   6.888
17444WAT     H152574   1.930   6.391   6.834
17444WAT     H252575   1.835   6.521   6.864
17445WAT      O52576   0.277   8.999   4.017
17445WAT     H152577   0.303   8.974   3.924
17445WAT     H252578   0.287   9.098   4.029
17446WAT      O52579   6.306   6.243   0.720
17446WAT     H152580   6.350   6.157   0.746
17446WAT     H252581   6.315   6.308   0.795
17447WAT      O52582   3.901   0.864   2.891
17447WAT     H152583   3.888   0.884   2.988
17447WAT     H252584   3.983   0.808   2.880
17448WAT      O52585   0.576   5.414   5.303
17448WAT     H152586   0.575   5.317   5.328
17448WAT     H252587   0.646   5.430   5.234
17449WAT      O52588   2.495   6.922   0.911
17449WAT     H152589   2.545   6.999   0.952
17449WAT     H252590   2.520   6.837   0.956
17450WAT      O52591   1.793   1.391   7.097
17450WAT     H152592   1.754   1.423   7.011
17450WAT     H252593   1.724   1.398   7.169
17451WAT      O52594   7.752   6.048   3.584
17451WAT     H152595   7.765   6.016   3.678
17451WAT     H252596   7.791   5.981   3.521
17452WAT      O52597   0.680   9.467   9.216
17452WAT     H152598   0.640   9.443   9.304
17452WAT     H252599   0.779   9.479   9.225
17453WAT      O52600   5.287   3.987   7.023
17453WAT     H152601   5.337   4.022   6.943
17453WAT     H252602   5.250   3.897   7.002
17454WAT      O52603   3.019   1.208   7.635
17454WAT     H152604   3.028   1.272   7.711
17454WAT     H252605   2.993   1.118   7.669
17455WAT      O52606   4.327   6.517   7.922
17455WAT     H152607   4.256   6.485   7.984
17455WAT     H252608   4.317   6.616   7.908
17456WAT      O52609   5.785   9.527   4.771
17456WAT     H152610   5.705   9.549   4.826
17456WAT     H252611   5.773   9.438   4.728
17457WAT      O52612   8.487   8.094   6.054
17457WAT     H152613   8.501   8.049   5.967
17457WAT     H252614   8.484   8.193   6.040
17458WAT      O52615   0.720   3.947   9.733
17458WAT     H152616   0.624   3.922   9.719
17458WAT     H252617   0.777   3.866   9.718
17459WAT      O52618   3.998   7.240   6.857
17459WAT     H152619   4.087   7.260   6.897
17459WAT     H252620   4.011   7.208   6.763
17460WAT      O52621   7.385   2.212   1.026
17460WAT     H152622   7.438   2.172   1.102
17460WAT     H252623   7.290   2.182   1.033
17461WAT      O52624   3.649   0.902   5.479
17461WAT     H152625   3.668   0.953   5.395
17461WAT     H252626   3.670   0.958   5.559
17462WAT      O52627   3.359   2.989   9.270
17462WAT     H152628   3.267   2.962   9.300
17462WAT     H252629   3.353   3.042   9.186
17463WAT      O52630   5.347   0.849   1.961
17463WAT     H152631   5.297   0.898   1.890
17463WAT     H252632   5.284   0.792   2.013
17464WAT      O52633   9.570   0.090   9.421
17464WAT     H152634   9.659   0.048   9.441
17464WAT     H252635   9.573   0.135   9.332
17465WAT      O52636   7.828   1.220   7.410
17465WAT     H152637   7.736   1.183   7.426
17465WAT     H252638   7.824   1.320   7.411
17466WAT      O52639   3.346   1.723   0.098
17466WAT     H152640   3.296   1.703   0.013
17466WAT     H252641   3.311   1.664   0.171
17467WAT      O52642   3.206   0.543   5.322
17467WAT     H152643   3.144   0.603   5.272
17467WAT     H252644   3.154   0.485   5.384
17468WAT      O52645   8.580   9.668   5.468
17468WAT     H152646   8.670   9.698   5.501
17468WAT     H252647   8.509   9.724   5.511
17469WAT      O52648   4.694   6.538   3.457
17469WAT     H152649   4.733   6.527   3.365
17469WAT     H252650   4.602   6.577   3.448
17470WAT      O52651   4.386   2.233   1.093
17470WAT     H152652   4.367   2.154   1.035
17470WAT     H252653   4.390   2.315   1.038
17471WAT      O52654   9.398   0.813   6.264
17471WAT     H152655   9.427   0.738   6.323
17471WAT     H252656   9.344   0.777   6.188
17472WAT      O52657   4.209   2.354   3.034
17472WAT     H152658   4.184   2.358   2.937
17472WAT     H252659   4.257   2.439   3.059
17473WAT      O52660   1.043   6.068   6.574
17473WAT     H152661   1.045   6.148   6.635
17473WAT     H252662   0.988   6.090   6.493
17474WAT      O52663   6.572   8.158   5.070
17474WAT     H152664   6.660   8.196   5.041
17474WAT     H252665   6.586   8.064   5.103
17475WAT      O52666   5.432   4.944   3.232
17475WAT     H152667   5.345   4.913   3.196
17475WAT     H252668   5.455   4.891   3.313
17476WAT      O52669   1.989   7.032   1.687
17476WAT     H152670   1.948   7.119   1.662
17476WAT     H252671   1.960   7.006   1.779
17477WAT      O52672   1.335   1.413   5.393
17477WAT     H152673   1.407   1.389   5.459
17477WAT     H252674   1.287   1.331   5.364
17478WAT      O52675   9.618   6.535   4.552
17478WAT     H152676   9.672   6.493   4.625
17478WAT     H252677   9.540   6.476   4.530
17479WAT      O52678   6.026   8.534   8.727
17479WAT     H152679   6.011   8.484   8.642
17479WAT     H252680   5.976   8.490   8.801
17480WAT      O52681   7.820   5.098   5.888
17480WAT     H152682   7.735   5.150   5.882
17480WAT     H252683   7.896   5.160   5.908
17481WAT      O52684   0.061   1.184   0.516
17481WAT     H152685   0.158   1.183   0.492
17481WAT     H252686   0.016   1.260   0.469
17482WAT      O52687   9.356   6.148   6.653
17482WAT     H152688   9.379   6.141   6.556
17482WAT     H252689   9.257   6.155   6.664
17483WAT      O52690   6.326   1.148   8.107
17483WAT     H152691   6.418   1.184   8.092
17483WAT     H252692   6.285   1.125   8.018
17484WAT      O52693   4.409   9.572   4.100
17484WAT     H152694   4.427   9.474   4.091
17484WAT     H252695   4.358   9.589   4.185
17485WAT      O52696   2.586   7.827   4.350
17485WAT     H152697   2.547   7.768   4.279
17485WAT     H252698   2.636   7.902   4.308
17486WAT      O52699   1.646   8.060   0.865
17486WAT     H152700   1.555   8.087   0.899
17486WAT     H252701   1.673   8.119   0.790
17487WAT      O52702   4.360   3.773   4.341
17487WAT     H152703   4.403   3.757   4.252
17487WAT     H252704   4.350   3.872   4.356
17488WAT      O52705   0.024   2.424   6.241
17488WAT     H152706   0.087   2.495   6.272
17488WAT     H252707  -0.061   2.466   6.210
17489WAT      O52708   8.193   3.769   3.929
17489WAT     H152709   8.133   3.715   3.989
17489WAT     H252710   8.228   3.848   3.979
17490WAT      O52711   5.354   8.839   8.107
17490WAT     H152712   5.308   8.758   8.069
17490WAT     H252713   5.319   8.858   8.198
17491WAT      O52714   9.709   3.008   0.299
17491WAT     H152715   9.705   3.062   0.216
17491WAT     H252716   9.800   3.017   0.341
17492WAT      O52717   1.707   8.002   8.633
17492WAT     H152718   1.623   7.955   8.606
17492WAT     H252719   1.726   7.982   8.729
17493WAT      O52720   4.586   1.546   6.698
17493WAT     H152721   4.584   1.469   6.762
17493WAT     H252722   4.681   1.564   6.671
17494WAT      O52723   8.089   7.638   5.583
17494WAT     H152724   8.165   7.637   5.519
17494WAT     H252725   8.045   7.727   5.582
17495WAT      O52726   9.148   3.131   9.379
17495WAT     H152727   9.129   3.121   9.281
17495WAT     H252728   9.112   3.219   9.411
17496WAT      O52729   3.166   8.642   1.133
17496WAT     H152730   3.103   8.648   1.211
17496WAT     H252731   3.257   8.618   1.166
17497WAT      O52732   3.437   7.230   3.840
17497WAT     H152733   3.496   7.193   3.912
17497WAT     H252734   3.400   7.154   3.786
17498WAT      O52735   1.951   3.426   3.141
17498WAT     H152736   1.992   3.355   3.084
17498WAT     H252737   2.007   3.509   3.137
17499WAT      O52738   9.136   1.153   3.764
17499WAT     H152739   9.179   1.066   3.784
17499WAT     H252740   9.105   1.154   3.669
17500WAT      O52741   0.573   1.413   9.413
17500WAT     H152742   0.578   1.506   9.450
17500WAT     H252743   0.500   1.363   9.459
17501WAT      O52744   1.501   1.136   1.299
17501WAT     H152745   1.573   1.205   1.306
17501WAT     H252746   1.431   1.169   1.235
17502WAT      O52747   2.125   7.149   4.735
17502WAT     H152748   2.198   7.166   4.801
17502WAT     H252749   2.132   7.215   4.660
17503WAT      O52750   9.044   7.695   1.640
17503WAT     H152751   9.119   7.633   1.617
17503WAT     H252752   9.070   7.789   1.619
17504WAT      O52753   7.041   3.058   2.013
17504WAT     H152754   7.003   3.111   2.089
17504WAT     H252755   6.991   3.080   1.929
17505WAT      O52756   3.345   1.938   1.018
17505WAT     H152757   3.377   1.990   0.939
17505WAT     H252758   3.360   1.991   1.101
17506WAT      O52759   7.576   5.611   4.158
17506WAT     H152760   7.670   5.579   4.146
17506WAT     H252761   7.577   5.704   4.195
17507WAT      O52762   6.612   8.322   4.682
17507WAT     H152763   6.688   8.361   4.629
17507WAT     H252764   6.642   8.309   4.777
17508WAT      O52765   8.361   4.530   5.575
17508WAT     H152766   8.314   4.531   5.663
17508WAT     H252767   8.336   4.447   5.524
17509WAT      O52768   2.414   5.013   6.307
17509WAT     H152769   2.332   5.065   6.283
17509WAT     H252770   2.440   4.955   6.230
17510WAT      O52771   6.206   6.051   6.450
17510WAT     H152772   6.165   6.128   6.401
17510WAT     H252773   6.278   6.085   6.511
17511WAT      O52774   1.160   1.510   2.861
17511WAT     H152775   1.215   1.521   2.944
17511WAT     H252776   1.083   1.449   2.878
17512WAT      O52777   7.110   1.495   1.878
17512WAT     H152778   7.073   1.466   1.790
17512WAT     H252779   7.150   1.416   1.925
17513WAT      O52780   8.186   1.943   2.626
17513WAT     H152781   8.186   1.894   2.714
17513WAT     H252782   8.109   2.007   2.624
17514WAT      O52783   3.131   1.637   2.074
17514WAT     H152784   3.212   1.676   2.029
17514WAT     H252785   3.060   1.707   2.082
17515WAT      O52786   8.640   1.997   8.936
17515WAT     H152787   8.637   2.007   8.836
17515WAT     H252788   8.566   1.937   8.966
17516WAT      O52789   1.389   8.805   4.017
17516WAT     H152790   1.411   8.709   4.038
17516WAT     H252791   1.335   8.809   3.933
17517WAT      O52792   5.003   1.256   6.247
17517WAT     H152793   4.930   1.285   6.185
17517WAT     H252794   4.966   1.240   6.338
17518WAT      O52795   2.858   8.048   2.926
17518WAT     H152796   2.914   8.131   2.925
17518WAT     H252797   2.769   8.069   2.968
17519WAT      O52798   3.552   4.178   3.569
17519WAT     H152799   3.642   4.188   3.612
17519WAT     H252800   3.525   4.264   3.526
17520WAT      O52801   5.533   5.452   1.439
17520WAT     H152802   5.485   5.486   1.520
17520WAT     H252803   5.629   5.436   1.462
17521WAT      O52804   3.708   7.706   8.984
17521WAT     H152805   3.617   7.694   9.022
17521WAT     H252806   3.754   7.618   8.977
17522WAT      O52807   8.286   3.349   1.431
17522WAT     H152808   8.378   3.329   1.396
17522WAT     H252809   8.285   3.441   1.470
17523WAT      O52810   5.926   3.356   1.196
17523WAT     H152811   5.974   3.306   1.124
17523WAT     H252812   5.991   3.382   1.268
17524WAT      O52813   9.204   3.607   3.736
17524WAT     H152814   9.226   3.520   3.692
17524WAT     H252815   9.132   3.592   3.804
17525WAT      O52816   7.758   9.537   9.229
17525WAT     H152817   7.819   9.522   9.151
17525WAT     H252818   7.680   9.593   9.200
17526WAT      O52819   6.402   8.530   8.264
17526WAT     H152820   6.425   8.456   8.327
17526WAT     H252821   6.446   8.514   8.176
17527WAT      O52822   5.959   8.106   6.067
17527WAT     H152823   6.007   8.178   6.117
17527WAT     H252824   6.017   8.024   6.062
17528WAT      O52825   8.041   3.932   7.271
17528WAT     H152826   8.103   4.010   7.275
17528WAT     H252827   7.947   3.964   7.263
17529WAT      O52828   2.729   1.268   3.506
17529WAT     H152829   2.759   1.173   3.504
17529WAT     H252830   2.762   1.315   3.424
17530WAT      O52831   5.270   3.849   7.995
17530WAT     H152832   5.187   3.796   8.011
17530WAT     H252833   5.258   3.908   7.915
17531WAT      O52834   5.997   3.830   0.394
17531WAT     H152835   5.992   3.927   0.369
17531WAT     H252836   6.048   3.821   0.480
17532WAT      O52837   4.682   1.853   4.244
17532WAT     H152838   4.659   1.931   4.185
17532WAT     H252839   4.644   1.769   4.203
17533WAT      O52840   1.686   8.427   0.409
17533WAT     H152841   1.646   8.395   0.323
17533WAT     H252842   1.715   8.349   0.464
17534WAT      O52843   2.425   6.001   7.820
17534WAT     H152844   2.356   5.931   7.800
17534WAT     H252845   2.493   5.964   7.883
17535WAT      O52846   4.627   5.177   4.192
17535WAT     H152847   4.551   5.210   4.248
17535WAT     H252848   4.597   5.096   4.141
17536WAT      O52849   4.020   9.637   5.336
17536WAT     H152850   3.981   9.672   5.421
17536WAT     H252851   4.118   9.625   5.346
17537WAT      O52852   5.331   1.319   3.223
17537WAT     H152853   5.393   1.275   3.158
17537WAT     H252854   5.263   1.252   3.254
17538WAT      O52855   7.914   4.761   3.522
17538WAT     H152856   7.981   4.806   3.581
17538WAT     H252857   7.952   4.674   3.489
17539WAT      O52858   9.626   8.878   8.672
17539WAT     H152859   9.582   8.938   8.739
17539WAT     H252860   9.716   8.851   8.706
17540WAT      O52861   3.994   6.841   7.010
17540WAT     H152862   3.930   6.899   6.960
17540WAT     H252863   3.943   6.767   7.055
17541WAT      O52864   6.313   4.927   6.723
17541WAT     H152865   6.309   4.989   6.644
17541WAT     H252866   6.342   4.977   6.804
17542WAT      O52867   5.333   2.645   2.796
17542WAT     H152868   5.431   2.626   2.801
17542WAT     H252869   5.306   2.708   2.870
17543WAT      O52870   9.174   7.474   0.875
17543WAT     H152871   9.270   7.489   0.851
17543WAT     H252872   9.146   7.384   0.841
17544WAT      O52873   7.678   3.872   6.661
17544WAT     H152874   7.772   3.865   6.629
17544WAT     H252875   7.663   3.807   6.736
17545WAT      O52876   8.884   9.373   9.054
17545WAT     H152877   8.963   9.363   8.994
17545WAT     H252878   8.813   9.309   9.026
17546WAT      O52879   4.078   9.605   8.017
17546WAT     H152880   4.011   9.678   8.008
17546WAT     H252881   4.047   9.525   7.967
17547WAT      O52882   6.821   0.287   1.700
17547WAT     H152883   6.819   0.380   1.664
17547WAT     H252884   6.728   0.251   1.703
17548WAT      O52885   7.742   8.713   4.972
17548WAT     H152886   7.780   8.654   5.043
17548WAT     H252887   7.664   8.764   5.010
17549WAT      O52888   7.134   6.134   7.471
17549WAT     H152889   7.192   6.182   7.537
17549WAT     H252890   7.148   6.174   7.380
17550WAT      O52891   0.590   7.573   6.551
17550WAT     H152892   0.535   7.627   6.487
17550WAT     H252893   0.682   7.563   6.513
17551WAT      O52894   8.352   8.197   2.408
17551WAT     H152895   8.438   8.188   2.458
17551WAT     H252896   8.312   8.107   2.394
17552WAT      O52897   8.044   8.084   8.021
17552WAT     H152898   8.107   8.030   8.077
17552WAT     H252899   7.982   8.135   8.081
17553WAT      O52900   0.520   8.305   1.982
17553WAT     H152901   0.525   8.355   1.895
17553WAT     H252902   0.426   8.272   1.996
17554WAT      O52903   0.619   2.544   8.532
17554WAT     H152904   0.526   2.576   8.551
17554WAT     H252905   0.685   2.602   8.580
17555WAT      O52906   8.566   8.537   4.223
17555WAT     H152907   8.485   8.589   4.193
17555WAT     H252908   8.645   8.565   4.168
17556WAT      O52909   0.920   9.775   6.001
17556WAT     H152910   0.898   9.781   6.098
17556WAT     H252911   1.017   9.753   5.991
17557WAT      O52912   5.082   6.438   2.440
17557WAT     H152913   5.028   6.479   2.365
17557WAT     H252914   5.029   6.364   2.482
17558WAT      O52915   7.625   3.246   9.734
17558WAT     H152916   7.618   3.147   9.742
17558WAT     H252917   7.694   3.280   9.797
17559WAT      O52918   5.173   3.646   2.207
17559WAT     H152919   5.092   3.609   2.161
17559WAT     H252920   5.152   3.659   2.304
17560WAT      O52921   6.507   2.924   6.938
17560WAT     H152922   6.528   2.833   6.904
17560WAT     H252923   6.455   2.974   6.869
17561WAT      O52924   8.985   1.040   9.345
17561WAT     H152925   8.912   0.974   9.330
17561WAT     H252926   9.056   0.997   9.402
17562WAT      O52927   8.323   2.145   6.291
17562WAT     H152928   8.268   2.066   6.321
17562WAT     H252929   8.354   2.131   6.198
17563WAT      O52930   9.248   7.715   1.914
17563WAT     H152931   9.172   7.778   1.903
17563WAT     H252932   9.218   7.622   1.893
17564WAT      O52933   3.656   7.660   4.242
17564WAT     H152934   3.717   7.736   4.265
17564WAT     H252935   3.696   7.575   4.277
17565WAT      O52936   6.244   1.407   9.495
17565WAT     H152937   6.340   1.392   9.470
17565WAT     H252938   6.204   1.474   9.432
17566WAT      O52939   0.731   9.695   7.621
17566WAT     H152940   0.696   9.780   7.661
17566WAT     H252941   0.766   9.714   7.529
17567WAT      O52942   8.861   3.524   2.188
17567WAT     H152943   8.867   3.585   2.266
17567WAT     H252944   8.859   3.577   2.103
17568WAT      O52945   2.685   5.775   8.658
17568WAT     H152946   2.628   5.779   8.576
17568WAT     H252947   2.774   5.817   8.639
17569WAT      O52948   6.221   1.516   2.970
17569WAT     H152949   6.219   1.533   2.872
17569WAT     H252950   6.205   1.601   3.019
17570WAT      O52951   8.556   3.090   7.331
17570WAT     H152952   8.491   3.164   7.314
17570WAT     H252953   8.555   3.026   7.254
17571WAT      O52954   5.558   3.687   3.542
17571WAT     H152955   5.520   3.772   3.504
17571WAT     H252956   5.599   3.707   3.632
17572WAT      O52957   6.976   9.801   1.138
17572WAT     H152958   7.045   9.731   1.119
17572WAT     H252959   7.006   9.888   1.098
17573WAT      O52960   9.188   1.261   6.190
17573WAT     H152961   9.261   1.196   6.214
17573WAT     H252962   9.219   1.354   6.209
17574WAT      O52963   6.013   0.524   1.553
17574WAT     H152964   6.108   0.536   1.582
17574WAT     H252965   5.968   0.613   1.546
17575WAT      O52966   0.629   5.027   9.861
17575WAT     H152967   0.662   4.984   9.946
17575WAT     H252968   0.695   5.011   9.788
17576WAT      O52969   0.333   2.566   3.377
17576WAT     H152970   0.236   2.586   3.370
17576WAT     H252971   0.386   2.651   3.373
17577WAT      O52972   3.444   2.735   9.742
17577WAT     H152973   3.422   2.833   9.750
17577WAT     H252974   3.459   2.712   9.646
17578WAT      O52975   3.694   4.609   7.933
17578WAT     H152976   3.624   4.659   7.883
17578WAT     H252977   3.764   4.577   7.870
17579WAT      O52978   6.236   4.896   9.078
17579WAT     H152979   6.272   4.899   8.984
17579WAT     H252980   6.244   4.986   9.120
17580WAT      O52981   4.623   3.109   0.253
17580WAT     H152982   4.593   3.201   0.275
17580WAT     H252983   4.710   3.113   0.204
17581WAT      O52984   8.607   2.871   1.706
17581WAT     H152985   8.511   2.844   1.706
17581WAT     H252986   8.655   2.823   1.779
17582WAT      O52987   4.372   7.319   7.855
17582WAT     H152988   4.282   7.358   7.833
17582WAT     H252989   4.444   7.378   7.818
17583WAT      O52990   1.230   5.614   9.338
17583WAT     H152991   1.179   5.623   9.252
17583WAT     H252992   1.168   5.584   9.410
17584WAT      O52993   2.842   1.998   7.913
17584WAT     H152994   2.839   1.900   7.893
17584WAT     H252995   2.769   2.044   7.862
17585WAT      O52996   1.990   5.101   0.756
17585WAT     H152997   2.004   5.173   0.688
17585WAT     H252998   2.005   5.137   0.848
17586WAT      O52999   8.406   1.736   1.514
17586WAT     H153000   8.411   1.830   1.548
17586WAT     H253001   8.311   1.716   1.488
17587WAT      O53002   4.440   8.782   2.156
17587WAT     H153003   4.495   8.841   2.097
17587WAT     H253004   4.395   8.838   2.226
17588WAT      O53005   1.346   7.302   7.153
17588WAT     H153006   1.305   7.255   7.231
17588WAT     H253007   1.284   7.298   7.075
17589WAT      O53008   9.327   3.913   0.149
17589WAT     H153009   9.327   3.853   0.229
17589WAT     H253010   9.365   4.002   0.173
17590WAT      O53011   6.806   7.216   0.794
17590WAT     H153012   6.826   7.278   0.719
17590WAT     H253013   6.759   7.265   0.867
17591WAT      O53014   3.219   7.976   6.435
17591WAT     H153015   3.225   7.953   6.338
17591WAT     H253016   3.179   7.900   6.486
17592WAT      O53017   6.131   2.887   6.851
17592WAT     H153018   6.198   2.947   6.805
17592WAT     H253019   6.169   2.795   6.857
17593WAT      O53020   7.149   3.173   3.645
17593WAT     H153021   7.196   3.173   3.733
17593WAT     H253022   7.076   3.241   3.645
17594WAT      O53023   7.833   6.036   0.449
17594WAT     H153024   7.850   6.128   0.484
17594WAT     H253025   7.738   6.010   0.469
17595WAT      O53026   0.785   0.561   7.167
17595WAT     H153027   0.754   0.514   7.085
17595WAT     H253028   0.723   0.636   7.189
17596WAT      O53029   7.917   3.080   4.711
17596WAT     H153030   7.856   3.132   4.653
17596WAT     H253031   7.912   3.114   4.805
17597WAT      O53032   0.087   0.611   1.909
17597WAT     H153033   0.048   0.694   1.868
17597WAT     H253034   0.101   0.542   1.838
17598WAT      O53035   4.335   9.530   0.869
17598WAT     H153036   4.397   9.461   0.907
17598WAT     H253037   4.256   9.484   0.829
17599WAT      O53038   1.069   3.383   8.534
17599WAT     H153039   1.060   3.399   8.436
17599WAT     H253040   1.140   3.443   8.571
17600WAT      O53041   1.724   0.762   6.234
17600WAT     H153042   1.651   0.755   6.302
17600WAT     H253043   1.776   0.846   6.250
17601WAT      O53044   0.958   9.295   0.343
17601WAT     H153045   0.872   9.328   0.382
17601WAT     H253046   1.008   9.242   0.412
17602WAT      O53047   5.734   5.720   1.547
17602WAT     H153048   5.819   5.771   1.541
17602WAT     H253049   5.751   5.624   1.525
17603WAT      O53050   6.058   4.247   5.390
17603WAT     H153051   5.962   4.220   5.377
17603WAT     H253052   6.115   4.201   5.322
17604WAT      O53053   1.956   5.579   6.783
17604WAT     H153054   1.966   5.666   6.831
17604WAT     H253055   1.908   5.594   6.697
17605WAT      O53056   3.422   7.573   0.191
17605WAT     H153057   3.364   7.495   0.216
17605WAT     H253058   3.437   7.573   0.092
17606WAT      O53059   6.324   8.135   9.764
17606WAT     H153060   6.380   8.205   9.719
17606WAT     H253061   6.380   8.086   9.831
17607WAT      O53062   5.263   0.218   5.353
17607WAT     H153063   5.202   0.230   5.432
17607WAT     H253064   5.211   0.233   5.269
17608WAT      O53065   0.172   9.323   5.121
17608WAT     H153066   0.260   9.290   5.088
17608WAT     H253067   0.157   9.291   5.215
17609WAT      O53068   6.303   1.179   8.999
17609WAT     H153069   6.390   1.227   8.991
17609WAT     H253070   6.249   1.222   9.072
17610WAT      O53071   9.796   6.660   0.063
17610WAT     H153072   9.837   6.751   0.072
17610WAT     H253073   9.830   6.601   0.135
17611WAT      O53074   7.573   1.676   5.612
17611WAT     H153075   7.528   1.733   5.680
17611WAT     H253076   7.628   1.606   5.659
17612WAT      O53077   5.578   8.483   2.203
17612WAT     H153078   5.543   8.401   2.157
17612WAT     H253079   5.677   8.488   2.189
17613WAT      O53080   0.829   3.327   3.936
17613WAT     H153081   0.782   3.369   3.858
17613WAT     H253082   0.923   3.305   3.909
17614WAT      O53083   7.208   2.052   9.274
17614WAT     H153084   7.211   1.987   9.350
17614WAT     H253085   7.122   2.103   9.276
17615WAT      O53086   2.947   3.438   4.522
17615WAT     H153087   3.040   3.443   4.556
17615WAT     H253088   2.907   3.529   4.519
17616WAT      O53089   8.647   1.727   6.243
17616WAT     H153090   8.563   1.673   6.236
17616WAT     H253091   8.704   1.711   6.163
17617WAT      O53092   6.376   1.310   3.754
17617WAT     H153093   6.417   1.377   3.815
17617WAT     H253094   6.288   1.281   3.790
17618WAT      O53095   5.806   4.277   8.741
17618WAT     H153096   5.745   4.293   8.819
17618WAT     H253097   5.894   4.244   8.773
17619WAT      O53098   2.446   4.522   5.804
17619WAT     H153099   2.392   4.438   5.812
17619WAT     H253100   2.542   4.502   5.824
17620WAT      O53101   9.700   1.018   3.539
17620WAT     H153102   9.740   0.936   3.498
17620WAT     H253103   9.623   0.991   3.597
17621WAT      O53104   9.093   3.944   0.024
17621WAT     H153105   9.103   3.974  -0.071
17621WAT     H253106   9.183   3.932   0.065
17622WAT      O53107   3.238   9.451   7.194
17622WAT     H153108   3.192   9.484   7.112
17622WAT     H253109   3.290   9.368   7.172
17623WAT      O53110   2.433   2.182   5.294
17623WAT     H153111   2.516   2.162   5.241
17623WAT     H253112   2.402   2.274   5.274
17624WAT      O53113   6.015   2.577   2.804
17624WAT     H153114   6.106   2.584   2.763
17624WAT     H253115   6.013   2.628   2.890
17625WAT      O53116   6.293   6.937   3.294
17625WAT     H153117   6.384   6.938   3.251
17625WAT     H253118   6.301   6.961   3.390
17626WAT      O53119   0.343   8.150   8.504
17626WAT     H153120   0.381   8.078   8.445
17626WAT     H253121   0.350   8.238   8.457
17627WAT      O53122   2.936   1.698   7.872
17627WAT     H153123   2.968   1.748   7.792
17627WAT     H253124   2.918   1.603   7.847
17628WAT      O53125   6.983   6.562   9.038
17628WAT     H153126   7.002   6.654   9.074
17628WAT     H253127   6.901   6.564   8.981
17629WAT      O53128   2.460   5.065   2.164
17629WAT     H153129   2.548   5.064   2.116
17629WAT     H253130   2.394   5.120   2.112
17630WAT      O53131   8.773   2.274   6.789
17630WAT     H153132   8.752   2.177   6.775
17630WAT     H253133   8.717   2.329   6.726
17631WAT      O53134   4.703   9.701   6.976
17631WAT     H153135   4.665   9.724   6.886
17631WAT     H253136   4.784   9.757   6.993
17632WAT      O53137   6.162   9.188   6.979
17632WAT     H153138   6.143   9.284   6.959
17632WAT     H253139   6.080   9.134   6.964
17633WAT      O53140   3.779   5.398   7.855
17633WAT     H153141   3.743   5.492   7.859
17633WAT     H253142   3.751   5.348   7.937
17634WAT      O53143   6.022   0.799   8.155
17634WAT     H153144   5.941   0.741   8.140
17634WAT     H253145   6.023   0.831   8.249
17635WAT      O53146   7.978   0.082   8.570
17635WAT     H153147   7.902   0.126   8.521
17635WAT     H253148   7.961   0.086   8.668
17636WAT      O53149   5.429   3.812   4.720
17636WAT     H153150   5.450   3.902   4.757
17636WAT     H253151   5.479   3.742   4.772
17637WAT      O53152   6.084   5.597   8.074
17637WAT     H153153   6.068   5.581   7.977
17637WAT     H253154   5.996   5.612   8.120
17638WAT      O53155   8.295   7.489   1.374
17638WAT     H153156   8.354   7.430   1.430
17638WAT     H253157   8.338   7.579   1.364
17639WAT      O53158   3.982   2.563   3.820
17639WAT     H153159   4.052   2.562   3.748
17639WAT     H253160   3.996   2.644   3.878
17640WAT      O53161   4.832   9.488   5.394
17640WAT     H153162   4.925   9.472   5.363
17640WAT     H253163   4.778   9.527   5.319
17641WAT      O53164   4.305   9.331   6.897
17641WAT     H153165   4.315   9.377   6.986
17641WAT     H253166   4.296   9.233   6.912
17642WAT      O53167   5.430   6.444   7.347
17642WAT     H153168   5.498   6.426   7.276
17642WAT     H253169   5.340   6.418   7.314
17643WAT      O53170   4.668   6.944   6.554
17643WAT     H153171   4.613   7.023   6.582
17643WAT     H253172   4.680   6.883   6.633
17644WAT      O53173   0.205   2.321   5.816
17644WAT     H153174   0.212   2.281   5.907
17644WAT     H253175   0.227   2.419   5.820
17645WAT      O53176   8.978   3.319   3.242
17645WAT     H153177   8.952   3.382   3.316
17645WAT     H253178   8.982   3.226   3.279
17646WAT      O53179   2.714   9.652   5.003
17646WAT     H153180   2.767   9.588   5.059
17646WAT     H253181   2.629   9.675   5.050
17647WAT      O53182   6.109   3.775   9.447
17647WAT     H153183   6.200   3.766   9.488
17647WAT     H253184   6.039   3.746   9.512
17648WAT      O53185   4.729   6.659   4.328
17648WAT     H153186   4.791   6.690   4.400
17648WAT     H253187   4.708   6.562   4.341
17649WAT      O53188   3.027   2.266   2.374
17649WAT     H153189   2.941   2.269   2.425
17649WAT     H253190   3.101   2.303   2.431
17650WAT      O53191   3.194   6.901   7.271
17650WAT     H153192   3.098   6.876   7.259
17650WAT     H253193   3.224   6.877   7.363
17651WAT      O53194   0.514   4.940   5.916
17651WAT     H153195   0.497   5.011   5.847
17651WAT     H253196   0.458   4.958   5.996
17652WAT      O53197   8.149   1.837   1.660
17652WAT     H153198   8.168   1.933   1.641
17652WAT     H253199   8.170   1.816   1.756
17653WAT      O53200   9.482   8.617   9.559
17653WAT     H153201   9.522   8.616   9.651
17653WAT     H253202   9.427   8.700   9.548
17654WAT      O53203   7.406   9.245   6.087
17654WAT     H153204   7.387   9.148   6.104
17654WAT     H253205   7.349   9.277   6.011
17655WAT      O53206   8.032   0.403   7.585
17655WAT     H153207   8.028   0.471   7.512
17655WAT     H253208   8.128   0.391   7.614
17656WAT      O53209   3.337   3.786   0.319
17656WAT     H153210   3.368   3.745   0.233
17656WAT     H253211   3.342   3.718   0.392
17657WAT      O53212   4.905   5.772   0.798
17657WAT     H153213   4.882   5.823   0.881
17657WAT     H253214   4.920   5.676   0.821
17658WAT      O53215   6.923   3.316   8.248
17658WAT     H153216   6.830   3.295   8.217
17658WAT     H253217   6.979   3.343   8.169
17659WAT      O53218   2.094   6.525   1.418
17659WAT     H153219   1.998   6.556   1.420
17659WAT     H253220   2.152   6.594   1.461
17660WAT      O53221   6.536   5.965   2.893
17660WAT     H153222   6.569   6.038   2.832
17660WAT     H253223   6.539   5.878   2.845
17661WAT      O53224   3.640   2.640   2.869
17661WAT     H153225   3.580   2.564   2.895
17661WAT     H253226   3.630   2.715   2.935
17662WAT      O53227   1.514   9.173   0.832
17662WAT     H153228   1.525   9.270   0.809
17662WAT     H253229   1.483   9.165   0.926
17663WAT      O53230   6.822   7.590   6.104
17663WAT     H153231   6.919   7.588   6.078
17663WAT     H253232   6.811   7.643   6.188
17664WAT      O53233   2.814   5.196   2.362
17664WAT     H153234   2.871   5.204   2.444
17664WAT     H253235   2.743   5.128   2.378
17665WAT      O53236   5.033   8.787   9.421
17665WAT     H153237   5.107   8.835   9.375
17665WAT     H253238   4.945   8.815   9.382
17666WAT      O53239   4.424   4.012   2.421
17666WAT     H153240   4.431   4.098   2.471
17666WAT     H253241   4.405   3.937   2.485
17667WAT      O53242   6.870   1.852   9.382
17667WAT     H153243   6.823   1.781   9.329
17667WAT     H253244   6.953   1.814   9.422
17668WAT      O53245   3.323   0.666   7.314
17668WAT     H153246   3.273   0.618   7.386
17668WAT     H253247   3.354   0.601   7.246
17669WAT      O53248   3.840   9.720   8.525
17669WAT     H153249   3.883   9.809   8.540
17669WAT     H253250   3.761   9.711   8.585
17670WAT      O53251   0.329   9.811   5.127
17670WAT     H153252   0.299   9.722   5.092
17670WAT     H253253   0.414   9.837   5.081
17671WAT      O53254   9.074   6.790   8.143
17671WAT     H153255   9.027   6.876   8.123
17671WAT     H253256   9.006   6.717   8.150
17672WAT      O53257   3.473   9.783   0.828
17672WAT     H153258   3.474   9.736   0.916
17672WAT     H253259   3.557   9.837   0.818
17673WAT      O53260   2.916   2.926   3.764
17673WAT     H153261   2.870   3.007   3.727
17673WAT     H253262   2.856   2.847   3.757
17674WAT      O53263   8.334   6.729   8.486
17674WAT     H153264   8.366   6.656   8.546
17674WAT     H253265   8.253   6.771   8.526
17675WAT      O53266   2.623   2.559   9.459
17675WAT     H153267   2.675   2.603   9.532
17675WAT     H253268   2.527   2.553   9.485
17676WAT      O53269   5.388   9.484   7.711
17676WAT     H153270   5.387   9.527   7.801
17676WAT     H253271   5.359   9.551   7.642
17677WAT      O53272   0.747   5.948   6.022
17677WAT     H153273   0.670   6.011   6.014
17677WAT     H253274   0.790   5.936   5.932
17678WAT      O53275   6.114   6.763   1.359
17678WAT     H153276   6.161   6.819   1.291
17678WAT     H253277   6.137   6.797   1.451
17679WAT      O53278   3.283   8.044   6.759
17679WAT     H153279   3.325   8.052   6.849
17679WAT     H253280   3.214   8.114   6.747
17680WAT      O53281   6.674   0.477   7.662
17680WAT     H153282   6.751   0.414   7.661
17680WAT     H253283   6.588   0.425   7.663
17681WAT      O53284   6.065   6.827   8.713
17681WAT     H153285   6.084   6.922   8.735
17681WAT     H253286   6.144   6.770   8.735
17682WAT      O53287   1.454   1.671   8.553
17682WAT     H153288   1.354   1.664   8.558
17682WAT     H253289   1.484   1.650   8.460
17683WAT      O53290   2.542   9.817   3.597
17683WAT     H153291   2.494   9.901   3.622
17683WAT     H253292   2.498   9.739   3.641
17684WAT      O53293   7.168   4.448   5.120
17684WAT     H153294   7.148   4.413   5.029
17684WAT     H253295   7.086   4.440   5.177
17685WAT      O53296   2.799   9.019   2.677
17685WAT     H153297   2.808   8.929   2.634
17685WAT     H253298   2.720   9.067   2.638
17686WAT      O53299   6.705   7.445   7.832
17686WAT     H153300   6.605   7.439   7.835
17686WAT     H253301   6.734   7.478   7.742
17687WAT      O53302   6.684   7.766   9.499
17687WAT     H153303   6.663   7.773   9.401
17687WAT     H253304   6.604   7.729   9.547
17688WAT      O53305   5.613   5.972   2.837
17688WAT     H153306   5.527   5.978   2.887
17688WAT     H253307   5.636   5.876   2.820
17689WAT      O53308   5.308   5.031   0.195
17689WAT     H153309   5.332   5.056   0.288
17689WAT     H253310   5.316   5.111   0.135
17690WAT      O53311   2.491   8.891   2.118
17690WAT     H153312   2.473   8.793   2.119
17690WAT     H253313   2.422   8.937   2.062
17691WAT      O53314   4.244   2.243   3.381
17691WAT     H153315   4.267   2.319   3.441
17691WAT     H253316   4.324   2.217   3.327
17692WAT      O53317   2.396   6.979   6.399
17692WAT     H153318   2.492   6.987   6.424
17692WAT     H253319   2.342   6.955   6.481
17693WAT      O53320   3.732   3.372   9.704
17693WAT     H153321   3.633   3.379   9.698
17693WAT     H253322   3.756   3.285   9.747
17694WAT      O53323   7.610   6.821   6.143
17694WAT     H153324   7.577   6.912   6.167
17694WAT     H253325   7.581   6.755   6.213
17695WAT      O53326   1.263   4.502   9.386
17695WAT     H153327   1.324   4.558   9.443
17695WAT     H253328   1.291   4.510   9.291
17696WAT      O53329   7.431   7.916   0.710
17696WAT     H153330   7.379   7.888   0.629
17696WAT     H253331   7.387   7.996   0.751
17697WAT      O53332   6.902   7.913   8.648
17697WAT     H153333   6.863   7.916   8.740
17697WAT     H253334   6.853   7.844   8.594
17698WAT      O53335   3.378   6.609   8.168
17698WAT     H153336   3.457   6.669   8.157
17698WAT     H253337   3.338   6.622   8.258
17699WAT      O53338   7.702   4.353   0.132
17699WAT     H153339   7.692   4.393   0.223
17699WAT     H253340   7.723   4.256   0.141
17700WAT      O53341   4.567   2.843   1.494
17700WAT     H153342   4.572   2.942   1.479
17700WAT     H253343   4.618   2.796   1.422
17701WAT      O53344   1.147   8.618   2.391
17701WAT     H153345   1.059   8.652   2.423
17701WAT     H253346   1.169   8.660   2.303
17702WAT      O53347   7.376   8.988   6.144
17702WAT     H153348   7.425   8.925   6.204
17702WAT     H253349   7.278   8.970   6.149
17703WAT      O53350   5.470   8.718   3.140
17703WAT     H153351   5.464   8.682   3.233
17703WAT     H253352   5.378   8.727   3.102
17704WAT      O53353   7.788   7.708   0.693
17704WAT     H153354   7.877   7.711   0.739
17704WAT     H253355   7.762   7.800   0.666
17705WAT      O53356   1.216   8.746   2.138
17705WAT     H153357   1.251   8.825   2.089
17705WAT     H253358   1.218   8.666   2.079
17706WAT      O53359   4.326   6.005   0.903
17706WAT     H153360   4.234   6.008   0.942
17706WAT     H253361   4.361   5.911   0.911
17707WAT      O53362   2.521   0.941   1.116
17707WAT     H153363   2.536   0.843   1.128
17707WAT     H253364   2.609   0.989   1.112
17708WAT      O53365   3.173   7.503   3.347
17708WAT     H153366   3.231   7.438   3.397
17708WAT     H253367   3.204   7.596   3.364
17709WAT      O53368   5.100   8.146   4.745
17709WAT     H153369   5.170   8.089   4.788
17709WAT     H253370   5.114   8.147   4.646
17710WAT      O53371   9.851   3.413   2.982
17710WAT     H153372   9.809   3.324   2.995
17710WAT     H253373   9.803   3.463   2.910
17711WAT      O53374   8.621   0.857   7.360
17711WAT     H153375   8.721   0.868   7.359
17711WAT     H253376   8.595   0.782   7.298
17712WAT      O53377   1.416   6.800   9.175
17712WAT     H153378   1.515   6.807   9.164
17712WAT     H253379   1.382   6.883   9.219
17713WAT      O53380   6.167   3.699   6.510
17713WAT     H153381   6.207   3.683   6.420
17713WAT     H253382   6.240   3.713   6.577
17714WAT      O53383   0.704   3.078   9.820
17714WAT     H153384   0.641   3.022   9.874
17714WAT     H253385   0.672   3.083   9.725
17715WAT      O53386   8.834   3.728   8.886
17715WAT     H153387   8.865   3.784   8.808
17715WAT     H253388   8.761   3.667   8.855
17716WAT      O53389   7.688   6.467   0.560
17716WAT     H153390   7.651   6.427   0.644
17716WAT     H253391   7.644   6.424   0.481
17717WAT      O53392   5.697   2.383   9.735
17717WAT     H153393   5.616   2.372   9.793
17717WAT     H253394   5.679   2.449   9.663
17718WAT      O53395   0.291   4.893   0.398
17718WAT     H153396   0.230   4.852   0.465
17718WAT     H253397   0.349   4.822   0.358
17719WAT      O53398   4.226   3.838   8.098
17719WAT     H153399   4.204   3.901   8.173
17719WAT     H253400   4.161   3.852   8.023
17720WAT      O53401   3.170   8.476   0.167
17720WAT     H153402   3.159   8.469   0.266
17720WAT     H253403   3.080   8.464   0.123
17721WAT      O53404   1.741   2.316   6.111
17721WAT     H153405   1.684   2.234   6.103
17721WAT     H253406   1.682   2.397   6.121
17722WAT      O53407   9.761   7.122   7.335
17722WAT     H153408   9.691   7.174   7.384
17722WAT     H253409   9.844   7.117   7.392
17723WAT      O53410   6.716   7.873   5.414
17723WAT     H153411   6.688   7.957   5.460
17723WAT     H253412   6.698   7.880   5.316
17724WAT      O53413   1.689   7.857   9.523
17724WAT     H153414   1.615   7.877   9.459
17724WAT     H253415   1.723   7.764   9.506
17725WAT      O53416   5.267   9.241   8.539
17725WAT     H153417   5.217   9.254   8.625
17725WAT     H253418   5.219   9.175   8.482
17726WAT      O53419   4.638   7.087   0.545
17726WAT     H153420   4.671   7.175   0.511
17726WAT     H253421   4.707   7.045   0.603
17727WAT      O53422   1.033   8.471   9.413
17727WAT     H153423   1.129   8.501   9.405
17727WAT     H253424   1.009   8.417   9.332
17728WAT      O53425   5.409   6.530   9.442
17728WAT     H153426   5.370   6.576   9.362
17728WAT     H253427   5.409   6.431   9.427
17729WAT      O53428   8.655   4.052   3.956
17729WAT     H153429   8.624   4.010   3.871
17729WAT     H253430   8.581   4.105   3.996
17730WAT      O53431   0.959   2.051   8.351
17730WAT     H153432   0.871   2.049   8.399
17730WAT     H253433   1.009   2.133   8.377
17731WAT      O53434   9.380   3.217   4.845
17731WAT     H153435   9.318   3.275   4.792
17731WAT     H253436   9.328   3.164   4.912
17732WAT      O53437   4.214   9.147   6.573
17732WAT     H153438   4.238   9.093   6.654
17732WAT     H253439   4.285   9.216   6.557
17733WAT      O53440   5.406   2.632   4.282
17733WAT     H153441   5.472   2.703   4.306
17733WAT     H253442   5.403   2.564   4.355
17734WAT      O53443   6.163   9.563   5.196
17734WAT     H153444   6.250   9.576   5.149
17734WAT     H253445   6.112   9.489   5.153
17735WAT      O53446   2.711   2.432   6.720
17735WAT     H153447   2.725   2.350   6.665
17735WAT     H253448   2.790   2.493   6.710
17736WAT      O53449   3.822   8.025   5.926
17736WAT     H153450   3.846   8.108   5.875
17736WAT     H253451   3.768   8.050   6.006
17737WAT      O53452   0.452   8.925   8.175
17737WAT     H153453   0.506   8.854   8.220
17737WAT     H253454   0.451   8.908   8.076
17738WAT      O53455   5.366   7.482   7.106
17738WAT     H153456   5.399   7.388   7.105
17738WAT     H253457   5.285   7.488   7.164
17739WAT      O53458   5.835   2.767   2.158
17739WAT     H153459   5.779   2.821   2.096
17739WAT     H253460   5.872   2.687   2.110
17740WAT      O53461   4.598   3.198   3.228
17740WAT     H153462   4.570   3.143   3.307
17740WAT     H253463   4.664   3.267   3.258
17741WAT      O53464   9.806   8.675   4.564
17741WAT     H153465   9.889   8.658   4.617
17741WAT     H253466   9.821   8.754   4.504
17742WAT      O53467   3.527   8.838   0.518
17742WAT     H153468   3.528   8.919   0.458
17742WAT     H253469   3.492   8.760   0.467
17743WAT      O53470   3.430   7.786   6.732
17743WAT     H153471   3.375   7.861   6.696
17743WAT     H253472   3.370   7.714   6.766
17744WAT      O53473   3.295   9.701   6.415
17744WAT     H153474   3.350   9.646   6.478
17744WAT     H253475   3.202   9.664   6.411
17745WAT      O53476   6.763   3.780   4.746
17745WAT     H153477   6.681   3.724   4.736
17745WAT     H253478   6.781   3.796   4.843
17746WAT      O53479   2.410   5.225   0.054
17746WAT     H153480   2.340   5.240   0.124
17746WAT     H253481   2.491   5.279   0.075
17747WAT      O53482   6.071   1.001   3.983
17747WAT     H153483   5.971   1.007   3.982
17747WAT     H253484   6.102   0.968   4.072
17748WAT      O53485   3.986   6.574   6.146
17748WAT     H153486   4.084   6.590   6.162
17748WAT     H253487   3.932   6.627   6.211
17749WAT      O53488   1.914   4.701   9.635
17749WAT     H153489   1.905   4.671   9.730
17749WAT     H253490   1.924   4.622   9.576
17750WAT      O53491   5.667   5.217   6.624
17750WAT     H153492   5.633   5.179   6.711
17750WAT     H253493   5.753   5.266   6.640
17751WAT      O53494   2.920   2.361   8.216
17751WAT     H153495   2.930   2.362   8.316
17751WAT     H253496   2.900   2.453   8.184
17752WAT      O53497   3.493   1.287   1.170
17752WAT     H153498   3.522   1.209   1.226
17752WAT     H253499   3.491   1.260   1.074
17753WAT      O53500   2.778   0.248   2.590
17753WAT     H153501   2.775   0.201   2.678
17753WAT     H253502   2.788   0.180   2.517
17754WAT      O53503   4.683   4.066   9.137
17754WAT     H153504   4.780   4.090   9.131
17754WAT     H253505   4.628   4.143   9.105
17755WAT      O53506   6.151   3.070   1.549
17755WAT     H153507   6.197   3.044   1.634
17755WAT     H253508   6.218   3.083   1.477
17756WAT      O53509   5.750   3.929   5.215
17756WAT     H153510   5.658   3.911   5.180
17756WAT     H253511   5.800   3.843   5.223
17757WAT      O53512   2.170   8.147   8.587
17757WAT     H153513   2.210   8.165   8.677
17757WAT     H253514   2.217   8.070   8.545
17758WAT      O53515   2.196   8.187   1.177
17758WAT     H153516   2.122   8.161   1.239
17758WAT     H253517   2.162   8.251   1.109
17759WAT      O53518   8.036   3.910   2.071
17759WAT     H153519   8.053   3.952   2.160
17759WAT     H253520   7.964   3.842   2.079
17760WAT      O53521   0.940   8.104   5.870
17760WAT     H153522   0.980   8.141   5.787
17760WAT     H253523   1.012   8.066   5.928
17761WAT      O53524   0.861   6.456   4.413
17761WAT     H153525   0.822   6.534   4.365
17761WAT     H253526   0.943   6.486   4.463
17762WAT      O53527   9.355   3.716   7.299
17762WAT     H153528   9.276   3.742   7.242
17762WAT     H253529   9.377   3.620   7.282
17763WAT      O53530   1.167   6.300   4.122
17763WAT     H153531   1.194   6.312   4.027
17763WAT     H253532   1.067   6.304   4.130
17764WAT      O53533   6.412   9.245   4.833
17764WAT     H153534   6.320   9.242   4.872
17764WAT     H253535   6.408   9.230   4.735
17765WAT      O53536   8.481   4.272   5.694
17765WAT     H153537   8.420   4.193   5.688
17765WAT     H253538   8.560   4.257   5.635
17766WAT      O53539   3.197   9.748   0.745
17766WAT     H153540   3.151   9.684   0.808
17766WAT     H253541   3.290   9.765   0.777
17767WAT      O53542   0.137   2.726   9.849
17767WAT     H153543   0.108   2.815   9.884
17767WAT     H253544   0.069   2.657   9.873
17768WAT      O53545   7.074   0.470   7.425
17768WAT     H153546   7.026   0.422   7.352
17768WAT     H253547   7.125   0.404   7.480
17769WAT      O53548   5.409   8.504   0.411
17769WAT     H153549   5.398   8.534   0.316
17769WAT     H253550   5.322   8.467   0.444
17770WAT      O53551   7.845   4.922   6.117
17770WAT     H153552   7.826   4.988   6.045
17770WAT     H253553   7.877   4.970   6.199
17771WAT      O53554   6.953   1.342   2.732
17771WAT     H153555   7.017   1.283   2.682
17771WAT     H253556   6.986   1.436   2.728
17772WAT      O53557   5.345   5.166   6.708
17772WAT     H153558   5.403   5.113   6.647
17772WAT     H253559   5.251   5.165   6.674
17773WAT      O53560   1.373   5.215   6.627
17773WAT     H153561   1.320   5.139   6.665
17773WAT     H253562   1.421   5.262   6.702
17774WAT      O53563   1.882   8.196   3.415
17774WAT     H153564   1.922   8.153   3.496
17774WAT     H253565   1.894   8.136   3.336
17775WAT      O53566   6.708   8.725   2.309
17775WAT     H153567   6.703   8.760   2.403
17775WAT     H253568   6.803   8.726   2.278
17776WAT      O53569   4.902   2.654   3.215
17776WAT     H153570   4.949   2.570   3.190
17776WAT     H253571   4.924   2.678   3.310
17777WAT      O53572   5.707   3.984   0.394
17777WAT     H153573   5.708   3.922   0.473
17777WAT     H253574   5.794   3.977   0.346
17778WAT      O53575   1.078   9.066   0.453
17778WAT     H153576   1.019   8.993   0.420
17778WAT     H253577   1.162   9.069   0.399
17779WAT      O53578   4.958   1.680   0.170
17779WAT     H153579   4.965   1.584   0.145
17779WAT     H253580   4.969   1.690   0.269
17780WAT      O53581   3.949   6.449   6.642
17780WAT     H153582   3.983   6.542   6.636
17780WAT     H253583   3.868   6.438   6.584
17781WAT      O53584   9.645   7.532   2.436
17781WAT     H153585   9.587   7.458   2.403
17781WAT     H253586   9.610   7.619   2.403
17782WAT      O53587   9.029   1.728   9.650
17782WAT     H153588   9.052   1.692   9.559
17782WAT     H253589   8.993   1.820   9.640
17783WAT      O53590   6.339   7.128   6.220
17783WAT     H153591   6.409   7.165   6.158
17783WAT     H253592   6.382   7.089   6.301
17784WAT      O53593   8.976   6.480   2.456
17784WAT     H153594   9.073   6.457   2.463
17784WAT     H253595   8.921   6.396   2.463
17785WAT      O53596   5.766   3.415   7.671
17785WAT     H153597   5.678   3.367   7.664
17785WAT     H253598   5.751   3.514   7.669
17786WAT      O53599   6.043   3.769   7.895
17786WAT     H153600   6.082   3.861   7.905
17786WAT     H253601   5.996   3.762   7.807
17787WAT      O53602   1.489   9.308   5.263
17787WAT     H153603   1.501   9.375   5.337
17787WAT     H253604   1.533   9.222   5.288
17788WAT      O53605   1.792   9.624   2.128
17788WAT     H153606   1.814   9.706   2.076
17788WAT     H253607   1.699   9.631   2.164
17789WAT      O53608   3.596   4.352   4.512
17789WAT     H153609   3.689   4.381   4.491
17789WAT     H253610   3.595   4.302   4.598
17790WAT      O53611   3.736   4.159   6.284
17790WAT     H153612   3.813   4.221   6.281
17790WAT     H253613   3.743   4.092   6.209
17791WAT      O53614   7.182   7.347   0.043
17791WAT     H153615   7.159   7.406  -0.034
17791WAT     H253616   7.281   7.348   0.058
17792WAT      O53617   4.170   0.399   7.792
17792WAT     H153618   4.149   0.496   7.805
17792WAT     H253619   4.204   0.361   7.877
17793WAT      O53620   2.705   2.935   4.502
17793WAT     H153621   2.617   2.968   4.535
17793WAT     H253622   2.724   2.976   4.412
17794WAT      O53623   4.686   3.657   4.795
17794WAT     H153624   4.744   3.704   4.727
17794WAT     H253625   4.736   3.651   4.882
17795WAT      O53626   1.515   0.523   4.272
17795WAT     H153627   1.491   0.557   4.363
17795WAT     H253628   1.432   0.493   4.225
17796WAT      O53629   4.458   2.373   5.680
17796WAT     H153630   4.432   2.290   5.730
17796WAT     H253631   4.513   2.432   5.740
17797WAT      O53632   2.198   9.607   9.547
17797WAT     H153633   2.125   9.652   9.496
17797WAT     H253634   2.163   9.526   9.594
17798WAT      O53635   0.062   1.882   2.289
17798WAT     H153636   0.083   1.859   2.384
17798WAT     H253637   0.141   1.927   2.247
17799WAT      O53638   4.928   0.306   8.995
17799WAT     H153639   4.980   0.289   9.079
17799WAT     H253640   4.990   0.341   8.924
17800WAT      O53641   0.750   8.679   5.596
17800WAT     H153642   0.752   8.610   5.523
17800WAT     H253643   0.690   8.755   5.569
17801WAT      O53644   2.657   6.964   2.201
17801WAT     H153645   2.633   6.874   2.165
17801WAT     H253646   2.581   7.027   2.186
17802WAT      O53647   1.799   7.020   3.561
17802WAT     H153648   1.721   7.015   3.499
17802WAT     H253649   1.869   7.080   3.522
17803WAT      O53650   0.644   0.831   5.607
17803WAT     H153651   0.738   0.799   5.616
17803WAT     H253652   0.624   0.899   5.677
17804WAT      O53653   5.912   4.835   0.383
17804WAT     H153654   5.879   4.927   0.402
17804WAT     H253655   5.855   4.768   0.431
17805WAT      O53656   0.643   6.893   4.007
17805WAT     H153657   0.672   6.987   4.023
17805WAT     H253658   0.639   6.844   4.094
17806WAT      O53659   9.256   7.704   8.703
17806WAT     H153660   9.315   7.693   8.782
17806WAT     H253661   9.302   7.668   8.622
17807WAT      O53662   5.830   3.478   3.747
17807WAT     H153663   5.911   3.515   3.700
17807WAT     H253664   5.777   3.554   3.784
17808WAT      O53665   8.311   6.796   2.212
17808WAT     H153666   8.319   6.724   2.143
17808WAT     H253667   8.321   6.886   2.168
17809WAT      O53668   7.820   9.463   3.638
17809WAT     H153669   7.820   9.409   3.554
17809WAT     H253670   7.861   9.410   3.712
17810WAT      O53671   3.857   0.435   2.150
17810WAT     H153672   3.954   0.430   2.128
17810WAT     H253673   3.828   0.531   2.153
17811WAT      O53674   3.565   2.105   4.031
17811WAT     H153675   3.520   2.174   3.974
17811WAT     H253676   3.658   2.089   3.996
17812WAT      O53677   6.768   3.664   2.095
17812WAT     H153678   6.733   3.586   2.044
17812WAT     H253679   6.743   3.656   2.191
17813WAT      O53680   0.460   0.669   5.494
17813WAT     H153681   0.516   0.648   5.414
17813WAT     H253682   0.504   0.742   5.547
17814WAT      O53683   0.826   6.219   0.939
17814WAT     H153684   0.871   6.251   1.022
17814WAT     H253685   0.733   6.188   0.961
17815WAT      O53686   1.213   2.946   9.208
17815WAT     H153687   1.124   2.991   9.201
17815WAT     H253688   1.266   2.988   9.282
17816WAT      O53689   4.063   7.886   5.960
17816WAT     H153690   3.993   7.955   5.942
17816WAT     H253691   4.126   7.881   5.882
17817WAT      O53692   1.781   1.477   4.500
17817WAT     H153693   1.836   1.394   4.507
17817WAT     H253694   1.721   1.471   4.420
17818WAT      O53695   1.637   5.129   6.834
17818WAT     H153696   1.736   5.114   6.837
17818WAT     H253697   1.618   5.223   6.805
17819WAT      O53698   5.097   3.590   6.146
17819WAT     H153699   5.161   3.554   6.214
17819WAT     H253700   5.116   3.687   6.131
17820WAT      O53701   1.735   1.923   7.136
17820WAT     H153702   1.654   1.964   7.093
17820WAT     H253703   1.711   1.888   7.226
17821WAT      O53704   5.044   4.092   2.081
17821WAT     H153705   5.031   4.109   1.983
17821WAT     H253706   5.116   4.024   2.095
17822WAT      O53707   5.184   6.373   7.270
17822WAT     H153708   5.147   6.310   7.202
17822WAT     H253709   5.129   6.456   7.273
17823WAT      O53710   1.398   3.114   1.989
17823WAT     H153711   1.356   3.193   1.945
17823WAT     H253712   1.481   3.087   1.939
17824WAT      O53713   8.270   8.204   5.884
17824WAT     H153714   8.283   8.117   5.932
17824WAT     H253715   8.359   8.249   5.873
17825WAT      O53716   9.188   0.375   2.953
17825WAT     H153717   9.137   0.356   2.869
17825WAT     H253718   9.256   0.304   2.968
17826WAT      O53719   5.296   2.912   8.636
17826WAT     H153720   5.214   2.883   8.588
17826WAT     H253721   5.371   2.849   8.615
17827WAT      O53722   8.878   1.200   0.422
17827WAT     H153723   8.968   1.227   0.456
17827WAT     H253724   8.822   1.167   0.497
17828WAT      O53725   5.993   2.120   1.825
17828WAT     H153726   6.065   2.164   1.772
17828WAT     H253727   5.913   2.180   1.827
17829WAT      O53728   5.421   5.686   7.925
17829WAT     H153729   5.370   5.764   7.889
17829WAT     H253730   5.402   5.605   7.869
17830WAT      O53731   4.224   7.133   8.065
17830WAT     H153732   4.220   7.205   8.134
17830WAT     H253733   4.139   7.132   8.013
17831WAT      O53734   9.717   9.075   0.115
17831WAT     H153735   9.749   9.169   0.122
17831WAT     H253736   9.787   9.014   0.153
17832WAT      O53737   2.298   3.251   2.857
17832WAT     H153738   2.342   3.291   2.775
17832WAT     H253739   2.359   3.262   2.935
17833WAT      O53740   6.954   0.126   4.111
17833WAT     H153741   7.019   0.078   4.052
17833WAT     H253742   7.001   0.195   4.164
17834WAT      O53743   5.490   4.640   7.274
17834WAT     H153744   5.399   4.676   7.295
17834WAT     H253745   5.495   4.545   7.305
17835WAT      O53746   3.917   2.074   7.527
17835WAT     H153747   3.891   2.167   7.505
17835WAT     H253748   3.916   2.018   7.444
17836WAT      O53749   2.860   2.120   8.590
17836WAT     H153750   2.877   2.216   8.565
17836WAT     H253751   2.857   2.064   8.508
17837WAT      O53752   2.350   5.917   8.262
17837WAT     H153753   2.355   6.009   8.224
17837WAT     H253754   2.294   5.859   8.202
17838WAT      O53755   0.046   1.362   7.971
17838WAT     H153756   0.096   1.355   8.057
17838WAT     H253757   0.010   1.272   7.946
17839WAT      O53758   4.648   7.330   8.589
17839WAT     H153759   4.666   7.310   8.493
17839WAT     H253760   4.640   7.429   8.602
17840WAT      O53761   9.753   3.715   2.280
17840WAT     H153762   9.784   3.810   2.274
17840WAT     H253763   9.688   3.697   2.206
17841WAT      O53764   7.742   5.279   8.464
17841WAT     H153765   7.771   5.183   8.464
17841WAT     H253766   7.793   5.330   8.533
17842WAT      O53767   4.326   9.480   5.870
17842WAT     H153768   4.244   9.479   5.812
17842WAT     H253769   4.316   9.551   5.940
17843WAT      O53770   2.050   4.438   6.951
17843WAT     H153771   1.958   4.458   6.986
17843WAT     H253772   2.094   4.371   7.010
17844WAT      O53773   6.022   5.319   5.594
17844WAT     H153774   6.035   5.355   5.687
17844WAT     H253775   6.067   5.380   5.529
17845WAT      O53776   3.959   1.948   7.280
17845WAT     H153777   3.964   1.848   7.270
17845WAT     H253778   4.046   1.988   7.250
17846WAT      O53779   1.572   8.817   6.282
17846WAT     H153780   1.614   8.769   6.359
17846WAT     H253781   1.531   8.751   6.219
17847WAT      O53782   1.737   0.346   5.005
17847WAT     H153783   1.739   0.414   4.932
17847WAT     H253784   1.675   0.376   5.078
17848WAT      O53785   2.524   7.501   1.809
17848WAT     H153786   2.610   7.536   1.771
17848WAT     H253787   2.483   7.569   1.869
17849WAT      O53788   6.143   5.860   0.223
17849WAT     H153789   6.121   5.950   0.260
17849WAT     H253790   6.205   5.812   0.285
17850WAT      O53791   7.726   8.529   2.159
17850WAT     H153792   7.737   8.500   2.064
17850WAT     H253793   7.661   8.606   2.164
17851WAT      O53794   6.267   4.984   3.358
17851WAT     H153795   6.229   5.066   3.316
17851WAT     H253796   6.221   4.965   3.444
17852WAT      O53797   9.116   8.861   1.693
17852WAT     H153798   9.197   8.918   1.705
17852WAT     H253799   9.140   8.780   1.639
17853WAT      O53800   5.814   1.614   9.638
17853WAT     H153801   5.853   1.544   9.697
17853WAT     H253802   5.887   1.674   9.605
17854WAT      O53803   4.561   5.523   9.178
17854WAT     H153804   4.538   5.456   9.248
17854WAT     H253805   4.570   5.477   9.089
17855WAT      O53806   3.070   9.297   7.633
17855WAT     H153807   3.158   9.293   7.584
17855WAT     H253808   3.072   9.232   7.709
17856WAT      O53809   7.549   8.994   5.396
17856WAT     H153810   7.621   8.924   5.394
17856WAT     H253811   7.463   8.953   5.424
17857WAT      O53812   1.777   8.317   6.088
17857WAT     H153813   1.754   8.231   6.135
17857WAT     H253814   1.694   8.372   6.078
17858WAT      O53815   7.832   7.657   4.262
17858WAT     H153816   7.778   7.671   4.179
17858WAT     H253817   7.826   7.562   4.291
17859WAT      O53818   6.401   5.209   8.075
17859WAT     H153819   6.400   5.144   8.151
17859WAT     H253820   6.335   5.283   8.093
17860WAT      O53821   4.310   1.978   8.305
17860WAT     H153822   4.333   2.027   8.221
17860WAT     H253823   4.393   1.939   8.345
17861WAT      O53824   6.795   9.386   4.716
17861WAT     H153825   6.870   9.449   4.733
17861WAT     H253826   6.717   9.411   4.775
17862WAT      O53827   5.495   9.746   0.704
17862WAT     H153828   5.572   9.798   0.667
17862WAT     H253829   5.470   9.674   0.638
17863WAT      O53830   2.385   0.238   4.780
17863WAT     H153831   2.379   0.337   4.769
17863WAT     H253832   2.458   0.203   4.721
17864WAT      O53833   5.814   2.788   3.023
17864WAT     H153834   5.737   2.844   3.053
17864WAT     H253835   5.789   2.692   3.029
17865WAT      O53836   1.571   1.806   5.278
17865WAT     H153837   1.607   1.899   5.276
17865WAT     H253838   1.624   1.748   5.217
17866WAT      O53839   5.075   7.618   8.326
17866WAT     H153840   5.120   7.607   8.415
17866WAT     H253841   4.985   7.658   8.338
17867WAT      O53842   1.675   0.379   3.363
17867WAT     H153843   1.610   0.376   3.439
17867WAT     H253844   1.625   0.365   3.277
17868WAT      O53845   2.967   4.582   4.235
17868WAT     H153846   3.010   4.671   4.222
17868WAT     H253847   2.999   4.518   4.164
17869WAT      O53848   5.914   1.669   3.110
17869WAT     H153849   5.854   1.674   3.189
17869WAT     H253850   5.860   1.646   3.029
17870WAT      O53851   4.710   2.358   7.944
17870WAT     H153852   4.711   2.403   8.033
17870WAT     H253853   4.616   2.344   7.914
17871WAT      O53854   6.771   0.414   3.861
17871WAT     H153855   6.799   0.496   3.810
17871WAT     H253856   6.731   0.442   3.948
17872WAT      O53857   8.378   7.433   7.750
17872WAT     H153858   8.450   7.408   7.685
17872WAT     H253859   8.328   7.512   7.715
17873WAT      O53860   6.602   7.941   6.367
17873WAT     H153861   6.525   7.911   6.310
17873WAT     H253862   6.675   7.873   6.362
17874WAT      O53863   5.685   8.190   1.636
17874WAT     H153864   5.652   8.111   1.584
17874WAT     H253865   5.785   8.192   1.632
17875WAT      O53866   6.299   1.048   1.055
17875WAT     H153867   6.326   0.975   0.993
17875WAT     H253868   6.336   1.030   1.146
17876WAT      O53869   7.715   7.923   1.142
17876WAT     H153870   7.716   7.823   1.145
17876WAT     H253871   7.707   7.960   1.235
17877WAT      O53872   4.878   6.009   5.725
17877WAT     H153873   4.830   6.011   5.638
17877WAT     H253874   4.976   6.024   5.710
17878WAT      O53875   5.577   3.676   9.302
17878WAT     H153876   5.656   3.665   9.241
17878WAT     H253877   5.502   3.618   9.270
17879WAT      O53878   6.205   8.582   6.041
17879WAT     H153879   6.275   8.643   6.005
17879WAT     H253880   6.163   8.531   5.966
17880WAT      O53881   2.913   5.544   0.890
17880WAT     H153882   2.827   5.594   0.876
17880WAT     H253883   2.895   5.462   0.944
17881WAT      O53884   2.660   7.337   2.842
17881WAT     H153885   2.726   7.401   2.805
17881WAT     H253886   2.706   7.253   2.870
17882WAT      O53887   2.540   1.752   2.664
17882WAT     H153888   2.567   1.801   2.581
17882WAT     H253889   2.611   1.685   2.687
17883WAT      O53890   8.091   6.127   5.278
17883WAT     H153891   8.073   6.065   5.354
17883WAT     H253892   8.140   6.208   5.311
17884WAT      O53893   2.051   9.404   9.640
17884WAT     H153894   2.125   9.337   9.646
17884WAT     H253895   1.972   9.362   9.596
17885WAT      O53896   0.189   4.579   3.171
17885WAT     H153897   0.117   4.577   3.102
17885WAT     H253898   0.148   4.580   3.263
17886WAT      O53899   0.712   6.248   6.499
17886WAT     H153900   0.753   6.281   6.584
17886WAT     H253901   0.729   6.314   6.426
17887WAT      O53902   6.736   6.999   1.376
17887WAT     H153903   6.699   7.068   1.314
17887WAT     H253904   6.740   7.037   1.469
17888WAT      O53905   8.178   5.564   7.651
17888WAT     H153906   8.078   5.561   7.659
17888WAT     H253907   8.218   5.568   7.743
17889WAT      O53908   4.130   7.886   7.714
17889WAT     H153909   4.228   7.906   7.721
17889WAT     H253910   4.088   7.893   7.805
17890WAT      O53911   3.383   7.083   3.289
17890WAT     H153912   3.444   7.027   3.233
17890WAT     H253913   3.353   7.162   3.236
17891WAT      O53914   1.696   0.767   7.782
17891WAT     H153915   1.717   0.730   7.873
17891WAT     H253916   1.676   0.692   7.719
17892WAT      O53917   6.466   4.195   1.587
17892WAT     H153918   6.507   4.211   1.677
17892WAT     H253919   6.372   4.164   1.599
17893WAT      O53920   3.809   8.115   5.388
17893WAT     H153921   3.843   8.183   5.323
17893WAT     H253922   3.884   8.081   5.444
17894WAT      O53923   2.388   4.949   8.727
17894WAT     H153924   2.428   4.927   8.815
17894WAT     H253925   2.436   5.028   8.687
17895WAT      O53926   4.863  -0.004   4.098
17895WAT     H153927   4.836   0.033   4.187
17895WAT     H253928   4.823   0.052   4.025
17896WAT      O53929   0.290   3.107   2.551
17896WAT     H153930   0.375   3.141   2.591
17896WAT     H253931   0.295   3.007   2.542
17897WAT      O53932   3.688   2.607   9.790
17897WAT     H153933   3.618   2.678   9.785
17897WAT     H253934   3.777   2.646   9.766
17898WAT      O53935   6.923   2.655   9.877
17898WAT     H153936   6.881   2.744   9.895
17898WAT     H253937   6.988   2.664   9.802
17899WAT      O53938   0.892   8.257   8.667
17899WAT     H153939   0.854   8.168   8.642
17899WAT     H253940   0.981   8.245   8.710
17900WAT      O53941   7.510   0.610   2.334
17900WAT     H153942   7.532   0.546   2.407
17900WAT     H253943   7.589   0.619   2.273
17901WAT      O53944   2.344   6.882   7.777
17901WAT     H153945   2.405   6.947   7.823
17901WAT     H253946   2.250   6.915   7.783
17902WAT      O53947   7.563   0.882   3.902
17902WAT     H153948   7.535   0.858   3.995
17902WAT     H253949   7.482   0.896   3.845
17903WAT      O53950   4.094   6.314   6.836
17903WAT     H153951   4.153   6.247   6.791
17903WAT     H253952   4.069   6.386   6.771
17904WAT      O53953   1.262   1.217   3.623
17904WAT     H153954   1.341   1.274   3.606
17904WAT     H253955   1.187   1.244   3.563
17905WAT      O53956   6.448   5.433   7.449
17905WAT     H153957   6.402   5.509   7.403
17905WAT     H253958   6.546   5.452   7.454
17906WAT      O53959   6.578   4.559   2.764
17906WAT     H153960   6.634   4.638   2.789
17906WAT     H253961   6.617   4.515   2.682
17907WAT      O53962   1.090   3.866   6.473
17907WAT     H153963   1.063   3.905   6.561
17907WAT     H253964   1.148   3.932   6.425
17908WAT      O53965   6.563   3.187   2.958
17908WAT     H153966   6.521   3.141   3.037
17908WAT     H253967   6.624   3.124   2.911
17909WAT      O53968   5.751   7.039   3.762
17909WAT     H153969   5.755   7.013   3.666
17909WAT     H253970   5.821   6.989   3.813
17910WAT      O53971   9.424   8.078   8.566
17910WAT     H153972   9.517   8.045   8.578
17910WAT     H253973   9.370   8.055   8.647
17911WAT      O53974   7.772   6.713   9.419
17911WAT     H153975   7.835   6.646   9.458
17911WAT     H253976   7.801   6.805   9.446
17912WAT      O53977   1.027   6.706   6.654
17912WAT     H153978   1.006   6.641   6.581
17912WAT     H253979   1.107   6.760   6.629
17913WAT      O53980   9.186   3.539   4.224
17913WAT     H153981   9.194   3.638   4.236
17913WAT     H253982   9.200   3.493   4.312
17914WAT      O53983   0.310   2.318   6.990
17914WAT     H153984   0.285   2.398   7.044
17914WAT     H253985   0.234   2.253   6.988
17915WAT      O53986   8.253   4.702   7.016
17915WAT     H153987   8.233   4.626   7.078
17915WAT     H253988   8.286   4.666   6.928
17916WAT      O53989   4.327   0.404   5.770
17916WAT     H153990   4.243   0.352   5.756
17916WAT     H253991   4.398   0.343   5.806
17917WAT      O53992   3.806   2.667   1.093
17917WAT     H153993   3.779   2.762   1.085
17917WAT     H253994   3.905   2.661   1.110
17918WAT      O53995   7.225   8.255   3.433
17918WAT     H153996   7.186   8.289   3.348
17918WAT     H253997   7.272   8.329   3.481
17919WAT      O53998   4.862   6.414   1.384
17919WAT     H153999   4.772   6.453   1.368
17919WAT     H254000   4.872   6.390   1.480
17920WAT      O54001   4.768   6.624   5.002
17920WAT     H154002   4.848   6.565   4.987
17920WAT     H254003   4.799   6.715   5.028
17921WAT      O54004   1.331   8.331   9.439
17921WAT     H154005   1.419   8.290   9.463
17921WAT     H254006   1.346   8.424   9.406
17922WAT      O54007   1.054   5.503   8.094
17922WAT     H154008   1.066   5.443   8.173
17922WAT     H254009   0.962   5.544   8.096
17923WAT      O54010   5.861   6.135   9.542
17923WAT     H154011   5.956   6.107   9.557
17923WAT     H254012   5.850   6.166   9.448
17924WAT      O54013   5.884   6.989   2.742
17924WAT     H154014   5.914   6.955   2.653
17924WAT     H254015   5.960   7.034   2.788
17925WAT      O54016   1.317   0.937   9.126
17925WAT     H154017   1.354   0.847   9.149
17925WAT     H254018   1.353   0.965   9.036
17926WAT      O54019   2.428   9.000   4.313
17926WAT     H154020   2.400   8.943   4.389
17926WAT     H254021   2.498   9.065   4.343
17927WAT      O54022   8.172   1.710   2.451
17927WAT     H154023   8.250   1.704   2.388
17927WAT     H254024   8.178   1.795   2.503
17928WAT      O54025   4.992   1.150   8.541
17928WAT     H154026   5.036   1.187   8.623
17928WAT     H254027   4.994   1.218   8.468
17929WAT      O54028   1.235   4.615   8.359
17929WAT     H154029   1.332   4.607   8.334
17929WAT     H254030   1.180   4.560   8.296
17930WAT      O54031   3.416   3.985   6.613
17930WAT     H154032   3.387   4.027   6.527
17930WAT     H254033   3.397   4.047   6.689
17931WAT      O54034   5.936   4.881   4.792
17931WAT     H154035   5.911   4.825   4.712
17931WAT     H254036   5.857   4.932   4.823
17932WAT      O54037   5.346   3.406   4.352
17932WAT     H154038   5.417   3.477   4.351
17932WAT     H254039   5.383   3.321   4.317
17933WAT      O54040   8.601   5.667   0.751
17933WAT     H154041   8.513   5.630   0.781
17933WAT     H254042   8.671   5.646   0.819
17934WAT      O54043   8.934   7.482   1.207
17934WAT     H154044   8.865   7.439   1.149
17934WAT     H254045   8.897   7.565   1.248
17935WAT      O54046   2.556   8.800   0.774
17935WAT     H154047   2.559   8.771   0.678
17935WAT     H254048   2.501   8.883   0.782
17936WAT      O54049   5.044   4.645   6.970
17936WAT     H154050   4.997   4.628   6.884
17936WAT     H254051   5.087   4.560   7.002
17937WAT      O54052   9.172   7.165   9.762
17937WAT     H154053   9.227   7.176   9.679
17937WAT     H254054   9.230   7.173   9.842
17938WAT      O54055   0.024   2.203   3.308
17938WAT     H154056   0.104   2.166   3.356
17938WAT     H254057  -0.012   2.281   3.359
17939WAT      O54058   6.321   6.358   2.336
17939WAT     H154059   6.403   6.392   2.380
17939WAT     H254060   6.346   6.310   2.251
17940WAT      O54061   2.842   7.289   6.286
17940WAT     H154062   2.925   7.248   6.323
17940WAT     H254063   2.785   7.322   6.361
17941WAT      O54064   4.390   9.729   7.755
17941WAT     H154065   4.350   9.676   7.680
17941WAT     H254066   4.322   9.793   7.791
17942WAT      O54067   1.498   3.713   4.213
17942WAT     H154068   1.489   3.808   4.182
17942WAT     H254069   1.538   3.712   4.305
17943WAT      O54070   7.341   3.878   8.703
17943WAT     H154071   7.293   3.933   8.771
17943WAT     H254072   7.334   3.921   8.613
17944WAT      O54073   6.168   1.479   3.579
17944WAT     H154074   6.197   1.554   3.639
17944WAT     H254075   6.099   1.425   3.626
17945WAT      O54076   8.855   5.229   4.446
17945WAT     H154077   8.873   5.241   4.348
17945WAT     H254078   8.940   5.240   4.497
17946WAT      O54079   8.546   8.777   9.740
17946WAT     H154080   8.447   8.765   9.728
17946WAT     H254081   8.575   8.860   9.693
17947WAT      O54082   1.353   6.657   8.621
17947WAT     H154083   1.259   6.643   8.590
17947WAT     H254084   1.377   6.587   8.687
17948WAT      O54085   8.406   2.455   5.925
17948WAT     H154086   8.451   2.533   5.969
17948WAT     H254087   8.371   2.482   5.836
17949WAT      O54088   6.360   4.235   0.976
17949WAT     H154089   6.386   4.148   1.018
17949WAT     H254090   6.330   4.220   0.882
17950WAT      O54091   4.586   0.146   3.141
17950WAT     H154092   4.685   0.140   3.155
17950WAT     H254093   4.559   0.087   3.066
17951WAT      O54094   2.810   2.272   2.550
17951WAT     H154095   2.787   2.202   2.618
17951WAT     H254096   2.786   2.362   2.585
17952WAT      O54097   5.517   7.113   1.992
17952WAT     H154098   5.586   7.054   2.035
17952WAT     H254099   5.479   7.176   2.060
17953WAT      O54100   4.672   0.180   8.944
17953WAT     H154101   4.765   0.189   8.980
17953WAT     H254102   4.676   0.170   8.845
17954WAT      O54103   0.223   8.951   5.383
17954WAT     H154104   0.286   9.026   5.405
17954WAT     H254105   0.196   8.958   5.287
17955WAT      O54106   5.645   3.212   7.362
17955WAT     H154107   5.596   3.162   7.434
17955WAT     H254108   5.725   3.259   7.402
17956WAT      O54109   0.695   6.663   9.790
17956WAT     H154110   0.694   6.563   9.792
17956WAT     H254111   0.731   6.698   9.877
17957WAT      O54112   3.590   7.724   0.643
17957WAT     H154113   3.678   7.677   0.646
17957WAT     H254114   3.554   7.722   0.549
17958WAT      O54115   8.157   8.917   7.576
17958WAT     H154116   8.188   8.838   7.630
17958WAT     H254117   8.131   8.991   7.637
17959WAT      O54118   0.528   9.200   7.017
17959WAT     H154119   0.498   9.105   7.011
17959WAT     H254120   0.619   9.209   6.975
17960WAT      O54121   0.405   9.421   3.751
17960WAT     H154122   0.321   9.370   3.767
17960WAT     H254123   0.459   9.423   3.835
17961WAT      O54124   3.342   7.602   8.261
17961WAT     H154125   3.298   7.563   8.179
17961WAT     H254126   3.423   7.654   8.234
17962WAT      O54127   5.003   9.439   3.117
17962WAT     H154128   4.943   9.371   3.076
17962WAT     H254129   4.974   9.531   3.090
17963WAT      O54130   2.869   6.748   4.348
17963WAT     H154131   2.896   6.833   4.393
17963WAT     H254132   2.820   6.690   4.413
17964WAT      O54133   6.510   5.116   2.303
17964WAT     H154134   6.584   5.106   2.369
17964WAT     H254135   6.467   5.027   2.286
17965WAT      O54136   8.426   4.429   1.423
17965WAT     H154137   8.366   4.508   1.411
17965WAT     H254138   8.512   4.444   1.375
17966WAT      O54139   7.328   8.219   7.270
17966WAT     H154140   7.402   8.241   7.334
17966WAT     H254141   7.264   8.296   7.265
17967WAT      O54142   0.581   5.120   1.655
17967WAT     H154143   0.670   5.128   1.700
17967WAT     H254144   0.570   5.194   1.589
17968WAT      O54145   0.912   6.269   8.315
17968WAT     H154146   0.987   6.254   8.250
17968WAT     H254147   0.852   6.189   8.315
17969WAT      O54148   7.258   2.735   5.521
17969WAT     H154149   7.202   2.692   5.591
17969WAT     H254150   7.302   2.816   5.558
17970WAT      O54151   4.728   8.309   8.238
17970WAT     H154152   4.637   8.303   8.199
17970WAT     H254153   4.767   8.400   8.220
17971WAT      O54154   6.627   6.331   0.418
17971WAT     H154155   6.629   6.399   0.346
17971WAT     H254156   6.633   6.239   0.378
17972WAT      O54157   4.675   7.688   7.160
17972WAT     H154158   4.647   7.598   7.191
17972WAT     H254159   4.700   7.684   7.063
17973WAT      O54160   7.278   3.353   0.717
17973WAT     H154161   7.181   3.329   0.721
17973WAT     H254162   7.289   3.436   0.664
17974WAT      O54163   2.646   0.663   2.840
17974WAT     H154164   2.696   0.668   2.753
17974WAT     H254165   2.585   0.742   2.848
17975WAT      O54166   2.463   7.309   5.244
17975WAT     H154167   2.445   7.258   5.329
17975WAT     H254168   2.517   7.252   5.182
17976WAT      O54169   2.085   6.292   1.550
17976WAT     H154170   2.026   6.287   1.631
17976WAT     H254171   2.078   6.384   1.511
17977WAT      O54172   4.703   2.180   0.293
17977WAT     H154173   4.620   2.222   0.328
17977WAT     H254174   4.696   2.081   0.298
17978WAT      O54175   5.698   8.836   9.628
17978WAT     H154176   5.787   8.842   9.584
17978WAT     H254177   5.701   8.766   9.700
17979WAT      O54178   0.296   7.887   3.408
17979WAT     H154179   0.349   7.815   3.454
17979WAT     H254180   0.306   7.876   3.309
17980WAT      O54181   7.558   4.410   0.618
17980WAT     H154182   7.541   4.452   0.707
17980WAT     H254183   7.580   4.314   0.630
17981WAT      O54184   7.363   3.908   5.442
17981WAT     H154185   7.295   3.928   5.371
17981WAT     H254186   7.318   3.868   5.522
17982WAT      O54187   0.475   6.808   7.178
17982WAT     H154188   0.448   6.861   7.258
17982WAT     H254189   0.556   6.754   7.200
17983WAT      O54190   6.558   4.179   2.181
17983WAT     H154191   6.656   4.163   2.171
17983WAT     H254192   6.524   4.129   2.261
17984WAT      O54193   9.659   6.677   7.040
17984WAT     H154194   9.622   6.721   6.959
17984WAT     H254195   9.680   6.746   7.109
17985WAT      O54196   9.534   4.367   7.391
17985WAT     H154197   9.605   4.373   7.460
17985WAT     H254198   9.444   4.380   7.434
17986WAT      O54199   8.636   8.447   1.552
17986WAT     H154200   8.559   8.511   1.559
17986WAT     H254201   8.620   8.383   1.477
17987WAT      O54202   2.072   2.589   3.852
17987WAT     H154203   1.977   2.617   3.839
17987WAT     H254204   2.075   2.509   3.912
17988WAT      O54205   7.573   1.253   3.040
17988WAT     H154206   7.620   1.320   3.097
17988WAT     H254207   7.606   1.161   3.063
17989WAT      O54208   8.084   8.924   9.193
17989WAT     H154209   7.989   8.942   9.168
17989WAT     H254210   8.108   8.830   9.169
17990WAT      O54211   9.134   7.295   7.307
17990WAT     H154212   9.116   7.269   7.402
17990WAT     H254213   9.077   7.374   7.283
17991WAT      O54214   2.333   0.996   9.699
17991WAT     H154215   2.247   1.042   9.677
17991WAT     H254216   2.379   1.045   9.773
17992WAT      O54217   8.258   5.781   2.559
17992WAT     H154218   8.352   5.798   2.530
17992WAT     H254219   8.227   5.694   2.522
17993WAT      O54220   4.026   9.754   7.105
17993WAT     H154221   4.066   9.818   7.170
17993WAT     H254222   3.979   9.804   7.032
17994WAT      O54223   2.257   2.076   0.377
17994WAT     H154224   2.327   2.024   0.328
17994WAT     H254225   2.219   2.146   0.317
17995WAT      O54226   9.502   3.927   3.775
17995WAT     H154227   9.455   3.961   3.693
17995WAT     H254228   9.578   3.988   3.798
17996WAT      O54229   8.223   4.267   3.355
17996WAT     H154230   8.205   4.301   3.263
17996WAT     H254231   8.249   4.343   3.414
17997WAT      O54232   5.897   5.081   4.537
17997WAT     H154233   5.813   5.032   4.562
17997WAT     H254234   5.971   5.015   4.521
17998WAT      O54235   9.160   3.838   6.169
17998WAT     H154236   9.072   3.824   6.124
17998WAT     H254237   9.201   3.749   6.190
17999WAT      O54238   6.444   8.230   6.613
17999WAT     H154239   6.348   8.211   6.633
17999WAT     H254240   6.500   8.154   6.645
18000WAT      O54241   8.400   0.207   3.075
18000WAT     H154242   8.359   0.215   3.166
18000WAT     H254243   8.369   0.123   3.031
18001WAT      O54244   1.457   7.915   8.275
18001WAT     H154245   1.549   7.881   8.295
18001WAT     H254246   1.403   7.842   8.232
18002WAT      O54247   3.130   2.777   8.992
18002WAT     H154248   3.143   2.871   8.961
18002WAT     H254249   3.213   2.724   8.976
18003WAT      O54250   9.830   8.006   1.308
18003WAT     H154251   9.890   7.959   1.243
18003WAT     H254252   9.789   7.940   1.369
18004WAT      O54253   5.551   5.293   0.166
18004WAT     H154254   5.462   5.254   0.146
18004WAT     H254255   5.559   5.382   0.120
18005WAT      O54256   7.803   1.848   9.358
18005WAT     H154257   7.860   1.860   9.440
18005WAT     H254258   7.799   1.751   9.334
18006WAT      O54259   3.720   3.182   7.817
18006WAT     H154260   3.707   3.276   7.787
18006WAT     H254261   3.813   3.152   7.796
18007WAT      O54262   7.882   6.062   6.379
18007WAT     H154263   7.919   6.119   6.305
18007WAT     H254264   7.953   5.999   6.411
18008WAT      O54265   7.583   0.989   6.191
18008WAT     H154266   7.526   1.060   6.233
18008WAT     H254267   7.540   0.956   6.108
18009WAT      O54268   1.961   7.981   5.242
18009WAT     H154269   1.923   7.903   5.291
18009WAT     H254270   2.061   7.976   5.246
18010WAT      O54271   4.069   6.984   1.944
18010WAT     H154272   3.981   6.965   1.988
18010WAT     H254273   4.078   6.930   1.861
18011WAT      O54274   3.449   8.137   2.508
18011WAT     H154275   3.533   8.130   2.455
18011WAT     H254276   3.457   8.212   2.574
18012WAT      O54277   6.049   4.313   0.085
18012WAT     H154278   6.074   4.216   0.080
18012WAT     H254279   5.992   4.337   0.007
18013WAT      O54280   6.268   5.844   2.022
18013WAT     H154281   6.279   5.763   1.964
18013WAT     H254282   6.273   5.927   1.966
18014WAT      O54283   6.346   8.822   2.770
18014WAT     H154284   6.361   8.840   2.867
18014WAT     H254285   6.280   8.888   2.734
18015WAT      O54286   3.398   7.857   3.474
18015WAT     H154287   3.423   7.867   3.378
18015WAT     H254288   3.466   7.801   3.521
18016WAT      O54289   3.057   8.001   1.738
18016WAT     H154290   3.096   7.974   1.650
18016WAT     H254291   3.128   7.997   1.809
18017WAT      O54292   6.583   6.916   6.948
18017WAT     H154293   6.658   6.909   7.013
18017WAT     H254294   6.615   6.892   6.857
18018WAT      O54295   2.610   2.906   2.727
18018WAT     H154296   2.685   2.871   2.671
18018WAT     H254297   2.547   2.958   2.670
18019WAT      O54298   0.578   4.197   5.863
18019WAT     H154299   0.538   4.208   5.954
18019WAT     H254300   0.661   4.143   5.868
18020WAT      O54301   1.513   0.980   2.908
18020WAT     H154302   1.491   1.057   2.967
18020WAT     H254303   1.600   0.939   2.937
18021WAT      O54304   5.033   5.105   0.808
18021WAT     H154305   4.974   5.076   0.732
18021WAT     H254306   5.121   5.134   0.771
18022WAT      O54307   5.058   2.730   8.180
18022WAT     H154308   5.098   2.757   8.092
18022WAT     H254309   5.108   2.652   8.216
18023WAT      O54310   0.423   9.188   5.098
18023WAT     H154311   0.502   9.225   5.048
18023WAT     H254312   0.382   9.114   5.045
18024WAT      O54313   0.916   5.026   1.334
18024WAT     H154314   1.000   5.002   1.287
18024WAT     H254315   0.870   4.943   1.365
18025WAT      O54316   3.915   7.582   1.263
18025WAT     H154317   3.852   7.543   1.329
18025WAT     H254318   3.864   7.621   1.186
18026WAT      O54319   2.212   2.784   4.004
18026WAT     H154320   2.196   2.695   3.961
18026WAT     H254321   2.159   2.854   3.956
18027WAT      O54322   6.163   9.045   8.076
18027WAT     H154323   6.093   9.095   8.025
18027WAT     H254324   6.166   8.950   8.044
18028WAT      O54325   2.557   5.832   4.373
18028WAT     H154326   2.577   5.905   4.308
18028WAT     H254327   2.587   5.744   4.337
18029WAT      O54328   5.990   8.410   6.159
18029WAT     H154329   6.030   8.388   6.070
18029WAT     H254330   6.026   8.498   6.190
18030WAT      O54331   1.406   2.883   6.616
18030WAT     H154332   1.334   2.894   6.685
18030WAT     H254333   1.400   2.791   6.576
18031WAT      O54334   1.756   5.657   2.663
18031WAT     H154335   1.788   5.694   2.750
18031WAT     H254336   1.662   5.624   2.673
18032WAT      O54337   4.635   9.018   2.786
18032WAT     H154338   4.627   8.926   2.825
18032WAT     H254339   4.642   9.010   2.686
18033WAT      O54340   5.494   0.458   7.737
18033WAT     H154341   5.509   0.362   7.760
18033WAT     H254342   5.400   0.483   7.759
18034WAT      O54343   0.214   7.567   9.324
18034WAT     H154344   0.180   7.653   9.287
18034WAT     H254345   0.223   7.500   9.251
18035WAT      O54346   5.961   6.926   2.478
18035WAT     H154347   6.003   7.011   2.445
18035WAT     H254348   5.882   6.904   2.421
18036WAT      O54349   0.709   0.124   0.753
18036WAT     H154350   0.732   0.221   0.749
18036WAT     H254351   0.791   0.069   0.741
18037WAT      O54352   9.609   4.929   8.906
18037WAT     H154353   9.641   5.024   8.909
18037WAT     H254354   9.641   4.880   8.986
18038WAT      O54355   8.512   5.171   0.066
18038WAT     H154356   8.449   5.094   0.077
18038WAT     H254357   8.592   5.158   0.125
18039WAT      O54358   0.147   8.605   8.386
18039WAT     H154359   0.175   8.700   8.370
18039WAT     H254360   0.112   8.597   8.479
18040WAT      O54361   7.910   3.878   6.525
18040WAT     H154362   7.956   3.807   6.472
18040WAT     H254363   7.977   3.946   6.555
18041WAT      O54364   2.971   5.494   8.844
18041WAT     H154365   2.995   5.545   8.926
18041WAT     H254366   2.953   5.558   8.769
18042WAT      O54367   4.222   1.371   0.601
18042WAT     H154368   4.288   1.390   0.528
18042WAT     H254369   4.134   1.412   0.579
18043WAT      O54370   2.456   3.895   1.836
18043WAT     H154371   2.392   3.931   1.768
18043WAT     H254372   2.502   3.814   1.799
18044WAT      O54373   3.662   1.123   5.630
18044WAT     H154374   3.574   1.085   5.602
18044WAT     H254375   3.677   1.105   5.727
18045WAT      O54376   6.644   2.182   9.837
18045WAT     H154377   6.593   2.268   9.828
18045WAT     H254378   6.712   2.192   9.910
18046WAT      O54379   9.792   5.046   4.277
18046WAT     H154380   9.823   4.973   4.338
18046WAT     H254381   9.854   5.124   4.284
18047WAT      O54382   2.738   4.026   7.458
18047WAT     H154383   2.671   4.090   7.420
18047WAT     H254384   2.766   4.057   7.549
18048WAT      O54385   9.268   2.044   2.038
18048WAT     H154386   9.212   2.050   1.956
18048WAT     H254387   9.360   2.015   2.014
18049WAT      O54388   7.749   5.442   6.653
18049WAT     H154389   7.825   5.457   6.589
18049WAT     H254390   7.751   5.513   6.723
18050WAT      O54391   2.368   6.909   6.135
18050WAT     H154392   2.418   6.967   6.071
18050WAT     H254393   2.386   6.939   6.229
18051WAT      O54394   3.266   9.356   5.989
18051WAT     H154395   3.233   9.420   6.058
18051WAT     H254396   3.189   9.303   5.954
18052WAT      O54397   2.566   4.282   2.748
18052WAT     H154398   2.521   4.216   2.808
18052WAT     H254399   2.620   4.233   2.680
18053WAT      O54400   2.267   1.789   0.967
18053WAT     H154401   2.183   1.838   0.994
18053WAT     H254402   2.298   1.824   0.879
18054WAT      O54403   3.419   1.376   9.879
18054WAT     H154404   3.383   1.283   9.869
18054WAT     H254405   3.466   1.384   9.967
18055WAT      O54406   1.407   8.767   0.959
18055WAT     H154407   1.407   8.820   0.875
18055WAT     H254408   1.347   8.811   1.026
18056WAT      O54409   8.331   5.149   4.825
18056WAT     H154410   8.398   5.214   4.788
18056WAT     H254411   8.348   5.137   4.923
18057WAT      O54412   4.450   8.836   3.612
18057WAT     H154413   4.354   8.821   3.588
18057WAT     H254414   4.483   8.758   3.666
18058WAT      O54415   4.372   4.916   0.829
18058WAT     H154416   4.311   4.868   0.892
18058WAT     H254417   4.381   5.011   0.858
18059WAT      O54418   0.633   3.024   2.882
18059WAT     H154419   0.719   3.037   2.930
18059WAT     H254420   0.604   3.111   2.841
18060WAT      O54421   8.113   3.594   2.615
18060WAT     H154422   8.098   3.677   2.561
18060WAT     H254423   8.111   3.617   2.713
18061WAT      O54424   0.895   1.777   4.005
18061WAT     H154425   0.852   1.687   4.007
18061WAT     H254426   0.914   1.803   3.911
18062WAT      O54427   5.691   4.605   1.535
18062WAT     H154428   5.680   4.506   1.521
18062WAT     H254429   5.745   4.622   1.617
18063WAT      O54430   5.349   2.420   3.473
18063WAT     H154431   5.374   2.326   3.497
18063WAT     H254432   5.313   2.467   3.554
18064WAT      O54433   5.031   2.542   2.490
18064WAT     H154434   4.980   2.599   2.425
18064WAT     H254435   4.982   2.540   2.577
18065WAT      O54436   8.630   8.561   1.216
18065WAT     H154437   8.713   8.616   1.231
18065WAT     H254438   8.558   8.593   1.276
18066WAT      O54439   3.908   4.587   8.145
18066WAT     H154440   3.831   4.644   8.116
18066WAT     H254441   3.886   4.543   8.232
18067WAT      O54442   3.916   7.119   1.582
18067WAT     H154443   3.882   7.135   1.489
18067WAT     H254444   3.944   7.206   1.622
18068WAT      O54445   4.450   8.623   2.998
18068WAT     H154446   4.440   8.684   3.076
18068WAT     H254447   4.529   8.562   3.013
18069WAT      O54448   9.294   4.912   4.508
18069WAT     H154449   9.286   4.813   4.520
18069WAT     H254450   9.230   4.943   4.438
18070WAT      O54451   1.294   7.332   5.706
18070WAT     H154452   1.293   7.267   5.782
18070WAT     H254453   1.384   7.374   5.700
18071WAT      O54454   0.192   7.957   8.210
18071WAT     H154455   0.262   7.888   8.227
18071WAT     H254456   0.235   8.038   8.168
18072WAT      O54457   1.370   2.657   7.536
18072WAT     H154458   1.391   2.719   7.611
18072WAT     H254459   1.443   2.590   7.527
18073WAT      O54460   0.283   4.026   4.269
18073WAT     H154461   0.293   3.989   4.177
18073WAT     H254462   0.253   4.121   4.263
18074WAT      O54463   8.380   8.566   2.065
18074WAT     H154464   8.423   8.654   2.085
18074WAT     H254465   8.401   8.540   1.971
18075WAT      O54466   6.246   3.112   8.357
18075WAT     H154467   6.165   3.065   8.392
18075WAT     H254468   6.266   3.191   8.414
18076WAT      O54469   2.303   3.681   8.032
18076WAT     H154470   2.309   3.752   8.102
18076WAT     H254471   2.359   3.603   8.058
18077WAT      O54472   2.536   5.182   3.179
18077WAT     H154473   2.572   5.261   3.130
18077WAT     H254474   2.546   5.101   3.122
18078WAT      O54475   9.753   8.402   2.076
18078WAT     H154476   9.779   8.418   2.171
18078WAT     H254477   9.785   8.478   2.020
18079WAT      O54478   4.613   6.445   7.927
18079WAT     H154479   4.514   6.462   7.926
18079WAT     H254480   4.633   6.369   7.989
18080WAT      O54481   7.586   5.289   0.018
18080WAT     H154482   7.599   5.190   0.025
18080WAT     H254483   7.647   5.335   0.083
18081WAT      O54484   1.578   2.751   1.174
18081WAT     H154485   1.532   2.839   1.159
18081WAT     H254486   1.539   2.682   1.113
18082WAT      O54487   6.993   9.521   5.063
18082WAT     H154488   7.011   9.539   4.966
18082WAT     H254489   7.024   9.428   5.086
18083WAT      O54490   7.233   1.246   1.986
18083WAT     H154491   7.315   1.298   1.961
18083WAT     H254492   7.221   1.246   2.085
18084WAT      O54493   4.485   5.554   3.839
18084WAT     H154494   4.417   5.626   3.824
18084WAT     H254495   4.486   5.493   3.760
18085WAT      O54496   0.707   5.157   6.489
18085WAT     H154497   0.724   5.136   6.586
18085WAT     H254498   0.684   5.072   6.441
18086WAT      O54499   1.839   8.465   3.405
18086WAT     H154500   1.853   8.522   3.485
18086WAT     H254501   1.845   8.368   3.431
18087WAT      O54502   6.926   9.127   2.866
18087WAT     H154503   6.950   9.073   2.947
18087WAT     H254504   6.827   9.124   2.852
18088WAT      O54505   9.209   6.487   8.123
18088WAT     H154506   9.284   6.467   8.060
18088WAT     H254507   9.247   6.513   8.212
18089WAT      O54508   2.058   2.629   6.619
18089WAT     H154509   2.116   2.548   6.621
18089WAT     H254510   1.962   2.600   6.614
18090WAT      O54511   6.993   5.768   9.744
18090WAT     H154512   7.009   5.852   9.692
18090WAT     H254513   7.081   5.731   9.774
18091WAT      O54514   5.071   4.381   1.449
18091WAT     H154515   5.077   4.298   1.394
18091WAT     H254516   5.162   4.421   1.458
18092WAT      O54517   5.363   2.515   4.042
18092WAT     H154518   5.277   2.463   4.045
18092WAT     H254519   5.376   2.562   4.129
18093WAT      O54520   8.573   3.197   5.942
18093WAT     H154521   8.517   3.235   6.015
18093WAT     H254522   8.659   3.248   5.936
18094WAT      O54523   3.574   3.612   9.566
18094WAT     H154524   3.648   3.664   9.608
18094WAT     H254525   3.509   3.584   9.637
18095WAT      O54526   6.123   8.065   1.401
18095WAT     H154527   6.129   7.974   1.358
18095WAT     H254528   6.214   8.107   1.401
18096WAT      O54529   4.056   7.745   3.400
18096WAT     H154530   4.042   7.819   3.335
18096WAT     H254531   3.968   7.706   3.426
18097WAT      O54532   8.640   3.500   0.352
18097WAT     H154533   8.612   3.436   0.280
18097WAT     H254534   8.733   3.532   0.334
18098WAT      O54535   8.326   3.374   7.533
18098WAT     H154536   8.268   3.302   7.571
18098WAT     H254537   8.416   3.373   7.577
18099WAT      O54538   7.137   6.206   2.337
18099WAT     H154539   7.043   6.182   2.362
18099WAT     H254540   7.140   6.232   2.240
18100WAT      O54541   3.978   1.510   2.846
18100WAT     H154542   4.045   1.473   2.911
18100WAT     H254543   4.022   1.530   2.759
18101WAT      O54544   8.261   3.434   9.435
18101WAT     H154545   8.267   3.339   9.465
18101WAT     H254546   8.276   3.495   9.513
18102WAT      O54547   6.366   9.242   2.263
18102WAT     H154548   6.431   9.276   2.331
18102WAT     H254549   6.278   9.289   2.275
18103WAT      O54550   3.508   5.653   2.399
18103WAT     H154551   3.411   5.676   2.403
18103WAT     H254552   3.528   5.605   2.314
18104WAT      O54553   1.159   8.754   5.322
18104WAT     H154554   1.133   8.834   5.267
18104WAT     H254555   1.094   8.743   5.397
18105WAT      O54556   0.229   7.349   7.615
18105WAT     H154557   0.139   7.353   7.571
18105WAT     H254558   0.296   7.399   7.558
18106WAT      O54559   0.228   1.576   9.546
18106WAT     H154560   0.277   1.597   9.461
18106WAT     H254561   0.238   1.651   9.611
18107WAT      O54562   0.859   7.555   6.467
18107WAT     H154563   0.920   7.630   6.489
18107WAT     H254564   0.911   7.481   6.424
18108WAT      O54565   3.451   5.874   9.057
18108WAT     H154566   3.360   5.857   9.019
18108WAT     H254567   3.520   5.861   8.985
18109WAT      O54568   3.250   4.195   2.893
18109WAT     H154569   3.281   4.285   2.863
18109WAT     H254570   3.165   4.172   2.847
18110WAT      O54571   1.675   1.757   9.094
18110WAT     H154572   1.606   1.828   9.084
18110WAT     H254573   1.689   1.712   9.006
18111WAT      O54574   2.966   7.358   7.631
18111WAT     H154575   2.931   7.266   7.651
18111WAT     H254576   3.005   7.359   7.539
18112WAT      O54577   0.807   4.605   7.752
18112WAT     H154578   0.713   4.605   7.717
18112WAT     H254579   0.870   4.631   7.679
18113WAT      O54580   5.615   2.648   4.499
18113WAT     H154581   5.652   2.559   4.471
18113WAT     H254582   5.618   2.655   4.599
18114WAT      O54583   7.165   3.847   2.928
18114WAT     H154584   7.161   3.832   3.027
18114WAT     H254585   7.190   3.943   2.910
18115WAT      O54586   4.202   0.962   2.579
18115WAT     H154587   4.255   1.026   2.523
18115WAT     H254588   4.105   0.985   2.573
18116WAT      O54589   7.887   6.573   0.715
18116WAT     H154590   7.834   6.586   0.799
18116WAT     H254591   7.826   6.549   0.640
18117WAT      O54592   1.266   8.233   4.216
18117WAT     H154593   1.302   8.322   4.243
18117WAT     H254594   1.339   8.179   4.174
18118WAT      O54595   7.764   2.191   6.892
18118WAT     H154596   7.842   2.250   6.874
18118WAT     H254597   7.697   2.239   6.949
18119WAT      O54598   1.245   1.348   5.107
18119WAT     H154599   1.155   1.343   5.151
18119WAT     H254600   1.297   1.424   5.146
18120WAT      O54601   2.943   5.306   8.304
18120WAT     H154602   2.946   5.406   8.317
18120WAT     H254603   3.017   5.278   8.243
18121WAT      O54604   6.685   8.511   1.436
18121WAT     H154605   6.630   8.519   1.353
18121WAT     H254606   6.782   8.509   1.411
18122WAT      O54607   6.542   6.696   7.396
18122WAT     H154608   6.550   6.795   7.388
18122WAT     H254609   6.445   6.670   7.392
18123WAT      O54610   5.495   0.482   7.133
18123WAT     H154611   5.561   0.486   7.208
18123WAT     H254612   5.461   0.573   7.113
18124WAT      O54613   5.801   9.202   5.779
18124WAT     H154614   5.702   9.189   5.790
18124WAT     H254615   5.843   9.213   5.869
18125WAT      O54616   2.215   5.711   1.929
18125WAT     H154617   2.307   5.708   1.967
18125WAT     H254618   2.219   5.693   1.831
18126WAT      O54619   1.619   2.765   2.591
18126WAT     H154620   1.528   2.805   2.601
18126WAT     H254621   1.611   2.665   2.586
18127WAT      O54622   3.649   1.431   9.745
18127WAT     H154623   3.569   1.430   9.806
18127WAT     H254624   3.719   1.490   9.784
18128WAT      O54625   7.138   5.409   0.084
18128WAT     H154626   7.040   5.392   0.076
18128WAT     H254627   7.158   5.503   0.054
18129WAT      O54628   5.712   2.130   2.532
18129WAT     H154629   5.741   2.117   2.627
18129WAT     H254630   5.642   2.201   2.528
18130WAT      O54631   6.706   7.498   1.166
18130WAT     H154632   6.760   7.574   1.203
18130WAT     H254633   6.609   7.522   1.170
18131WAT      O54634   3.745   5.026   7.414
18131WAT     H154635   3.715   5.115   7.378
18131WAT     H254636   3.772   5.037   7.509
18132WAT      O54637   0.779   6.432   4.968
18132WAT     H154638   0.717   6.502   5.005
18132WAT     H254639   0.759   6.417   4.871
18133WAT      O54640   6.656   9.084   3.323
18133WAT     H154641   6.675   9.107   3.228
18133WAT     H254642   6.669   8.986   3.337
18134WAT      O54643   4.627   7.780   7.574
18134WAT     H154644   4.549   7.728   7.539
18134WAT     H254645   4.712   7.732   7.553
18135WAT      O54646   0.221   4.090   0.750
18135WAT     H154647   0.172   4.003   0.739
18135WAT     H254648   0.255   4.119   0.661
18136WAT      O54649   1.161   7.592   5.638
18136WAT     H154650   1.192   7.498   5.652
18136WAT     H254651   1.228   7.655   5.678
18137WAT      O54652   8.604   7.724   7.843
18137WAT     H154653   8.649   7.758   7.761
18137WAT     H254654   8.541   7.794   7.878
18138WAT      O54655   1.751   5.894   6.697
18138WAT     H154656   1.709   5.902   6.606
18138WAT     H254657   1.850   5.910   6.689
18139WAT      O54658   1.695   4.119   1.723
18139WAT     H154659   1.793   4.138   1.720
18139WAT     H254660   1.676   4.051   1.794
18140WAT      O54661   9.234   9.314   0.786
18140WAT     H154662   9.224   9.242   0.717
18140WAT     H254663   9.291   9.388   0.750
18141WAT      O54664   3.170   4.333   6.179
18141WAT     H154665   3.262   4.303   6.155
18141WAT     H254666   3.105   4.298   6.112
18142WAT      O54667   9.297   2.157   8.830
18142WAT     H154668   9.266   2.194   8.917
18142WAT     H254669   9.354   2.225   8.784
18143WAT      O54670   2.974   2.973   8.223
18143WAT     H154671   2.921   2.939   8.301
18143WAT     H254672   2.924   2.955   8.138
18144WAT      O54673   4.037   0.135   1.866
18144WAT     H154674   4.014   0.089   1.951
18144WAT     H254675   3.959   0.189   1.835
18145WAT      O54676   6.454   5.056   1.612
18145WAT     H154677   6.529   5.115   1.582
18145WAT     H254678   6.431   4.991   1.539
18146WAT      O54679   9.703   8.625   8.309
18146WAT     H154680   9.751   8.568   8.243
18146WAT     H254681   9.683   8.570   8.391
18147WAT      O54682   7.547   3.916   8.970
18147WAT     H154683   7.564   3.838   8.908
18147WAT     H254684   7.545   3.883   9.064
18148WAT      O54685   1.983   3.694   4.867
18148WAT     H154686   1.950   3.683   4.961
18148WAT     H254687   1.922   3.647   4.804
18149WAT      O54688   8.997   4.033   7.697
18149WAT     H154689   9.001   4.010   7.794
18149WAT     H254690   9.064   3.978   7.647
18150WAT      O54691   9.085   2.964   3.709
18150WAT     H154692   9.080   3.047   3.765
18150WAT     H254693   8.993   2.925   3.699
18151WAT      O54694   7.611   2.346   6.182
18151WAT     H154695   7.624   2.321   6.279
18151WAT     H254696   7.689   2.313   6.129
18152WAT      O54697   3.199   1.597   4.901
18152WAT     H154698   3.257   1.525   4.939
18152WAT     H254699   3.237   1.628   4.815
18153WAT      O54700   5.278   8.189   9.229
18153WAT     H154701   5.215   8.186   9.151
18153WAT     H254702   5.231   8.229   9.308
18154WAT      O54703   2.640   4.664   2.562
18154WAT     H154704   2.706   4.614   2.618
18154WAT     H254705   2.553   4.614   2.561
18155WAT      O54706   0.997   0.817   0.550
18155WAT     H154707   1.011   0.847   0.644
18155WAT     H254708   0.971   0.720   0.549
18156WAT      O54709   0.601   8.512   3.584
18156WAT     H154710   0.662   8.536   3.659
18156WAT     H254711   0.629   8.560   3.500
18157WAT      O54712   8.169   9.122   8.409
18157WAT     H154713   8.121   9.176   8.478
18157WAT     H254714   8.176   9.175   8.324
18158WAT      O54715   2.529   8.660   6.477
18158WAT     H154716   2.464   8.687   6.406
18158WAT     H254717   2.485   8.662   6.566
18159WAT      O54718   5.191   8.992   6.121
18159WAT     H154719   5.220   8.995   6.217
18159WAT     H254720   5.093   8.971   6.117
18160WAT      O54721   9.703   6.290   8.927
18160WAT     H154722   9.745   6.369   8.973
18160WAT     H254723   9.608   6.281   8.957
18161WAT      O54724   1.481   2.949   7.467
18161WAT     H154725   1.445   2.954   7.374
18161WAT     H254726   1.430   3.012   7.526
18162WAT      O54727   3.447   3.971   1.532
18162WAT     H154728   3.422   4.005   1.442
18162WAT     H254729   3.530   4.017   1.563
18163WAT      O54730   1.012   8.761   5.553
18163WAT     H154731   0.931   8.712   5.588
18163WAT     H254732   1.092   8.735   5.607
18164WAT      O54733   8.153   3.203   7.120
18164WAT     H154734   8.235   3.232   7.170
18164WAT     H254735   8.076   3.198   7.183
18165WAT      O54736   3.202   3.905   7.174
18165WAT     H154737   3.123   3.881   7.232
18165WAT     H254738   3.193   3.860   7.085
18166WAT      O54739   9.442   0.641   4.717
18166WAT     H154740   9.460   0.683   4.806
18166WAT     H254741   9.520   0.656   4.656
18167WAT      O54742   3.356   5.490   0.097
18167WAT     H154743   3.435   5.456   0.146
18167WAT     H254744   3.379   5.576   0.052
18168WAT      O54745   1.504   2.557   0.988
18168WAT     H154746   1.582   2.555   0.926
18168WAT     H254747   1.449   2.475   0.975
18169WAT      O54748   3.610   2.039   6.551
18169WAT     H154749   3.545   1.994   6.613
18169WAT     H254750   3.703   2.019   6.581
18170WAT      O54751   5.536   6.347   2.327
18170WAT     H154752   5.506   6.367   2.233
18170WAT     H254753   5.458   6.351   2.389
18171WAT      O54754   8.409   4.516   7.400
18171WAT     H154755   8.412   4.443   7.468
18171WAT     H254756   8.423   4.605   7.445
18172WAT      O54757   0.682   8.350   0.664
18172WAT     H154758   0.590   8.313   0.655
18172WAT     H254759   0.679   8.440   0.708
18173WAT      O54760   4.684   0.771   9.483
18173WAT     H154761   4.777   0.764   9.447
18173WAT     H254762   4.684   0.746   9.580
18174WAT      O54763   6.482   2.503   1.710
18174WAT     H154764   6.446   2.581   1.760
18174WAT     H254765   6.580   2.495   1.724
18175WAT      O54766   0.602   3.257   9.164
18175WAT     H154767   0.562   3.262   9.256
18175WAT     H254768   0.656   3.173   9.156
18176WAT      O54769   5.110   5.244   8.751
18176WAT     H154770   5.136   5.339   8.733
18176WAT     H254771   5.107   5.229   8.850
18177WAT      O54772   3.419   4.431   2.714
18177WAT     H154773   3.387   4.523   2.691
18177WAT     H254774   3.444   4.427   2.811
18178WAT      O54775   8.836   4.214   2.747
18178WAT     H154776   8.821   4.241   2.651
18178WAT     H254777   8.847   4.296   2.803
18179WAT      O54778   8.226   8.913   9.427
18179WAT     H154779   8.166   8.918   9.347
18179WAT     H254780   8.270   9.002   9.441
18180WAT      O54781   2.041   6.763   2.181
18180WAT     H154782   2.050   6.675   2.133
18180WAT     H254783   2.129   6.786   2.223
18181WAT      O54784   6.988   5.416   3.809
18181WAT     H154785   6.909   5.382   3.860
18181WAT     H254786   6.959   5.491   3.749
18182WAT      O54787   0.780   6.388   3.127
18182WAT     H154788   0.812   6.478   3.096
18182WAT     H254789   0.859   6.335   3.158
18183WAT      O54790   5.593   0.910   8.047
18183WAT     H154791   5.531   0.929   7.971
18183WAT     H254792   5.546   0.930   8.134
18184WAT      O54793   5.610   1.314   4.720
18184WAT     H154794   5.589   1.218   4.701
18184WAT     H254795   5.529   1.370   4.701
18185WAT      O54796   4.438   7.939   3.074
18185WAT     H154797   4.394   8.019   3.114
18185WAT     H254798   4.396   7.856   3.110
18186WAT      O54799   7.056   1.484   7.472
18186WAT     H154800   6.961   1.507   7.452
18186WAT     H254801   7.087   1.413   7.409
18187WAT      O54802   6.254   8.136   4.548
18187WAT     H154803   6.188   8.084   4.495
18187WAT     H254804   6.317   8.183   4.487
18188WAT      O54805   0.565   1.346   0.855
18188WAT     H154806   0.634   1.408   0.819
18188WAT     H254807   0.606   1.257   0.872
18189WAT      O54808   1.397   7.877   3.607
18189WAT     H154809   1.450   7.962   3.602
18189WAT     H254810   1.457   7.800   3.627
18190WAT      O54811   9.470   6.275   5.479
18190WAT     H154812   9.536   6.221   5.532
18190WAT     H254813   9.417   6.214   5.420
18191WAT      O54814   2.892   6.111   2.984
18191WAT     H154815   2.885   6.018   3.022
18191WAT     H254816   2.951   6.109   2.903
18192WAT      O54817   9.588   8.545   5.632
18192WAT     H154818   9.577   8.616   5.562
18192WAT     H254819   9.550   8.459   5.598
18193WAT      O54820   3.258   7.722   4.658
18193WAT     H154821   3.301   7.710   4.747
18193WAT     H254822   3.321   7.691   4.586
18194WAT      O54823   9.090   6.860   7.102
18194WAT     H154824   9.046   6.823   7.020
18194WAT     H254825   9.182   6.890   7.079
18195WAT      O54826   8.370   0.992   0.458
18195WAT     H154827   8.391   1.070   0.400
18195WAT     H254828   8.280   1.005   0.500
18196WAT      O54829   9.239   8.396   4.138
18196WAT     H154830   9.161   8.398   4.200
18196WAT     H254831   9.320   8.430   4.185
18197WAT      O54832   1.916   3.720   3.429
18197WAT     H154833   1.882   3.737   3.336
18197WAT     H254834   2.016   3.722   3.428
18198WAT      O54835   5.439   7.014   3.786
18198WAT     H154836   5.535   7.015   3.812
18198WAT     H254837   5.405   6.920   3.785
18199WAT      O54838   1.843   9.499   2.744
18199WAT     H154839   1.894   9.548   2.673
18199WAT     H254840   1.889   9.513   2.832
18200WAT      O54841   3.478   3.724   6.011
18200WAT     H154842   3.426   3.803   6.044
18200WAT     H254843   3.542   3.753   5.940
18201WAT      O54844   4.845   6.805   2.173
18201WAT     H154845   4.895   6.855   2.102
18201WAT     H254846   4.750   6.838   2.176
18202WAT      O54847   2.780   4.563   1.344
18202WAT     H154848   2.687   4.531   1.363
18202WAT     H254849   2.777   4.632   1.272
18203WAT      O54850   8.679   2.530   1.999
18203WAT     H154851   8.775   2.515   2.020
18203WAT     H254852   8.632   2.564   2.080
18204WAT      O54853   6.073   0.560   9.392
18204WAT     H154854   6.061   0.651   9.355
18204WAT     H254855   5.987   0.509   9.387
18205WAT      O54856   5.446   1.342   1.328
18205WAT     H154857   5.536   1.298   1.328
18205WAT     H254858   5.407   1.338   1.236
18206WAT      O54859   6.123   2.737   6.534
18206WAT     H154860   6.076   2.688   6.608
18206WAT     H254861   6.093   2.832   6.533
18207WAT      O54862   6.351   7.165   2.783
18207WAT     H154863   6.408   7.086   2.805
18207WAT     H254864   6.257   7.149   2.815
18208WAT      O54865   0.827   4.505   6.477
18208WAT     H154866   0.743   4.529   6.525
18208WAT     H254867   0.820   4.532   6.381
18209WAT      O54868   7.560   2.433   9.555
18209WAT     H154869   7.514   2.391   9.477
18209WAT     H254870   7.621   2.366   9.598
18210WAT      O54871   2.397   5.110   7.399
18210WAT     H154872   2.411   5.208   7.410
18210WAT     H254873   2.312   5.083   7.443
18211WAT      O54874   0.328   2.344   4.624
18211WAT     H154875   0.402   2.377   4.682
18211WAT     H254876   0.296   2.255   4.658
18212WAT      O54877   3.765   9.615   1.518
18212WAT     H154878   3.818   9.661   1.447
18212WAT     H254879   3.682   9.667   1.537
18213WAT      O54880   9.649   4.957   5.458
18213WAT     H154881   9.674   4.973   5.363
18213WAT     H254882   9.728   4.921   5.508
18214WAT      O54883   0.759   1.250   8.081
18214WAT     H154884   0.748   1.150   8.077
18214WAT     H254885   0.691   1.293   8.022
18215WAT      O54886   1.404   4.563   3.753
18215WAT     H154887   1.327   4.510   3.718
18215WAT     H254888   1.490   4.523   3.720
18216WAT      O54889   7.297   8.684   3.433
18216WAT     H154890   7.245   8.766   3.410
18216WAT     H254891   7.337   8.645   3.350
18217WAT      O54892   6.976   1.991   7.981
18217WAT     H154893   7.041   1.915   7.985
18217WAT     H254894   7.026   2.077   7.976
18218WAT      O54895   1.665   8.504   9.757
18218WAT     H154896   1.682   8.602   9.771
18218WAT     H254897   1.739   8.465   9.702
18219WAT      O54898   4.792   6.944   3.679
18219WAT     H154899   4.758   7.033   3.709
18219WAT     H254900   4.735   6.872   3.717
18220WAT      O54901   5.056   0.616   0.117
18220WAT     H154902   5.007   0.603   0.032
18220WAT     H254903   4.994   0.650   0.188
18221WAT      O54904   9.749   7.836   1.506
18221WAT     H154905   9.794   7.802   1.589
18221WAT     H254906   9.659   7.872   1.530
18222WAT      O54907   5.496   3.370   8.659
18222WAT     H154908   5.499   3.435   8.735
18222WAT     H254909   5.414   3.314   8.666
18223WAT      O54910   8.420   1.127   1.998
18223WAT     H154911   8.346   1.179   2.039
18223WAT     H254912   8.467   1.183   1.930
18224WAT      O54913   9.547   9.609   1.232
18224WAT     H154914   9.562   9.572   1.324
18224WAT     H254915   9.613   9.569   1.169
18225WAT      O54916   0.573   4.199   7.782
18225WAT     H154917   0.566   4.191   7.683
18225WAT     H254918   0.482   4.195   7.823
18226WAT      O54919   7.006   9.537   2.748
18226WAT     H154920   6.963   9.618   2.708
18226WAT     H254921   7.090   9.516   2.697
18227WAT      O54922   5.647   2.602   0.895
18227WAT     H154923   5.732   2.581   0.846
18227WAT     H254924   5.645   2.551   0.981
18228WAT      O54925   6.327   2.310   0.538
18228WAT     H154926   6.230   2.294   0.558
18228WAT     H254927   6.371   2.222   0.518
18229WAT      O54928   7.724   7.324   7.535
18229WAT     H154929   7.696   7.400   7.594
18229WAT     H254930   7.770   7.359   7.454
18230WAT      O54931   4.947   1.242   0.768
18230WAT     H154932   4.929   1.334   0.733
18230WAT     H254933   4.931   1.175   0.696
18231WAT      O54934   6.196   9.131   8.343
18231WAT     H154935   6.190   9.095   8.251
18231WAT     H254936   6.108   9.173   8.368
18232WAT      O54937   8.448   9.103   1.551
18232WAT     H154938   8.499   9.072   1.631
18232WAT     H254939   8.360   9.140   1.581
18233WAT      O54940   3.601   2.913   7.824
18233WAT     H154941   3.686   2.878   7.863
18233WAT     H254942   3.618   3.001   7.779
18234WAT      O54943   4.259   7.759   4.433
18234WAT     H154944   4.235   7.718   4.521
18234WAT     H254945   4.186   7.821   4.404
18235WAT      O54946   0.794   5.313   7.505
18235WAT     H154947   0.838   5.399   7.528
18235WAT     H254948   0.815   5.244   7.574
18236WAT      O54949   2.686   2.247   1.645
18236WAT     H154950   2.611   2.310   1.666
18236WAT     H254951   2.699   2.243   1.546
18237WAT      O54952   7.592   2.332   7.583
18237WAT     H154953   7.508   2.285   7.556
18237WAT     H254954   7.618   2.303   7.675
18238WAT      O54955   2.129   0.029   8.731
18238WAT     H154956   2.155  -0.065   8.752
18238WAT     H254957   2.116   0.039   8.632
18239WAT      O54958   1.830   4.438   1.576
18239WAT     H154959   1.752   4.377   1.570
18239WAT     H254960   1.905   4.392   1.624
18240WAT      O54961   4.615   8.987   9.643
18240WAT     H154962   4.549   8.940   9.585
18240WAT     H254963   4.566   9.041   9.711
18241WAT      O54964   5.551   4.536   6.783
18241WAT     H154965   5.454   4.560   6.790
18241WAT     H254966   5.559   4.441   6.751
18242WAT      O54967   7.341   1.474   4.139
18242WAT     H154968   7.327   1.431   4.050
18242WAT     H254969   7.439   1.491   4.153
18243WAT      O54970   2.359   4.656   1.266
18243WAT     H154971   2.263   4.636   1.246
18243WAT     H254972   2.412   4.652   1.182
18244WAT      O54973   5.840   0.158   8.349
18244WAT     H154974   5.873   0.196   8.262
18244WAT     H254975   5.914   0.107   8.392
18245WAT      O54976   4.663   9.451   3.345
18245WAT     H154977   4.705   9.427   3.258
18245WAT     H254978   4.713   9.407   3.420
18246WAT      O54979   5.583   7.045   3.038
18246WAT     H154980   5.485   7.064   3.032
18246WAT     H254981   5.616   7.066   3.130
18247WAT      O54982   4.004   6.045   4.066
18247WAT     H154983   4.015   5.952   4.100
18247WAT     H254984   3.913   6.078   4.087
18248WAT      O54985   9.167   7.664   5.373
18248WAT     H154986   9.104   7.588   5.360
18248WAT     H254987   9.192   7.670   5.470
18249WAT      O54988   0.752   9.791   7.313
18249WAT     H154989   0.670   9.840   7.346
18249WAT     H254990   0.828   9.855   7.308
18250WAT      O54991   4.775   9.628   0.146
18250WAT     H154992   4.867   9.594   0.164
18250WAT     H254993   4.708   9.554   0.158
18251WAT      O54994   8.043   0.086   1.853
18251WAT     H154995   8.020  -0.005   1.817
18251WAT     H254996   8.135   0.085   1.892
18252WAT      O54997   5.624   0.699   9.470
18252WAT     H154998   5.599   0.744   9.384
18252WAT     H254999   5.615   0.763   9.546
18253WAT      O55000   6.484   3.417   9.411
18253WAT     H155001   6.526   3.424   9.502
18253WAT     H255002   6.555   3.426   9.341
18254WAT      O55003   0.960   5.639   5.320
18254WAT     H155004   1.044   5.653   5.267
18254WAT     H255005   0.978   5.573   5.393
18255WAT      O55006   4.412   3.711   3.601
18255WAT     H155007   4.505   3.674   3.607
18255WAT     H255008   4.346   3.638   3.616
18256WAT      O55009   6.453   8.253   8.370
18256WAT     H155010   6.381   8.266   8.439
18256WAT     H255011   6.540   8.238   8.416
18257WAT      O55012   0.038   3.866   0.741
18257WAT     H155013  -0.044   3.820   0.707
18257WAT     H255014   0.114   3.851   0.678
18258WAT      O55015   9.607   8.402   5.851
18258WAT     H155016   9.595   8.458   5.769
18258WAT     H255017   9.704   8.388   5.867
18259WAT      O55018   1.716   6.743   9.162
18259WAT     H155019   1.763   6.752   9.074
18259WAT     H255020   1.685   6.649   9.174
18260WAT      O55021   3.640   0.298   9.854
18260WAT     H155022   3.716   0.234   9.845
18260WAT     H255023   3.556   0.248   9.873
18261WAT      O55024   7.013   4.413   8.127
18261WAT     H155025   6.973   4.350   8.194
18261WAT     H255026   7.079   4.473   8.173
18262WAT      O55027   5.382   2.050   2.402
18262WAT     H155028   5.465   2.015   2.357
18262WAT     H255029   5.408   2.093   2.489
18263WAT      O55030   8.080   3.322   5.078
18263WAT     H155031   8.140   3.285   5.149
18263WAT     H255032   8.053   3.415   5.102
18264WAT      O55033   9.252   5.197   1.090
18264WAT     H155034   9.292   5.214   1.000
18264WAT     H255035   9.324   5.168   1.154
18265WAT      O55036   1.997   3.656   5.988
18265WAT     H155037   2.092   3.630   6.008
18265WAT     H255038   1.964   3.718   6.059
18266WAT      O55039   7.972   6.874   2.930
18266WAT     H155040   7.906   6.922   2.872
18266WAT     H255041   7.965   6.776   2.914
18267WAT      O55042   1.813   8.160   5.836
18267WAT     H155043   1.848   8.198   5.751
18267WAT     H255044   1.797   8.234   5.902
18268WAT      O55045   5.170   5.659   0.402
18268WAT     H155046   5.155   5.743   0.350
18268WAT     H255047   5.107   5.588   0.369
18269WAT      O55048   5.735   3.026   4.222
18269WAT     H155049   5.820   3.076   4.206
18269WAT     H255050   5.754   2.946   4.279
18270WAT      O55051   1.176   7.265   9.125
18270WAT     H155052   1.149   7.283   9.219
18270WAT     H255053   1.096   7.236   9.072
18271WAT      O55054   2.083   5.085   1.366
18271WAT     H155055   2.134   5.170   1.379
18271WAT     H255056   2.104   5.047   1.276
18272WAT      O55057   2.729   8.257   5.565
18272WAT     H155058   2.664   8.238   5.638
18272WAT     H255059   2.684   8.242   5.476
18273WAT      O55060   3.331   3.740   3.833
18273WAT     H155061   3.362   3.656   3.788
18273WAT     H255062   3.376   3.819   3.792
18274WAT      O55063   9.392   1.124   6.315
18274WAT     H155064   9.364   1.152   6.407
18274WAT     H255065   9.392   1.024   6.309
18275WAT      O55066   6.261   8.949   3.304
18275WAT     H155067   6.307   9.036   3.321
18275WAT     H255068   6.163   8.965   3.292
18276WAT      O55069   8.972   7.750   7.378
18276WAT     H155070   8.899   7.779   7.317
18276WAT     H255071   9.016   7.831   7.419
18277WAT      O55072   5.441   3.871   5.151
18277WAT     H155073   5.479   3.946   5.097
18277WAT     H255074   5.400   3.908   5.235
18278WAT      O55075   7.428   0.217   7.073
18278WAT     H155076   7.380   0.188   6.990
18278WAT     H255077   7.493   0.290   7.051
18279WAT      O55078   3.525   4.997   5.658
18279WAT     H155079   3.425   4.993   5.665
18279WAT     H255080   3.565   4.923   5.712
18280WAT      O55081   1.680   3.453   0.513
18280WAT     H155082   1.684   3.474   0.415
18280WAT     H255083   1.768   3.415   0.542
18281WAT      O55084   5.144   6.469   7.713
18281WAT     H155085   5.067   6.532   7.698
18281WAT     H255086   5.158   6.414   7.631
18282WAT      O55087   2.411   8.494   8.496
18282WAT     H155088   2.367   8.531   8.414
18282WAT     H255089   2.509   8.483   8.479
18283WAT      O55090   3.974   7.352   5.612
18283WAT     H155091   3.990   7.322   5.519
18283WAT     H255092   4.058   7.344   5.665
18284WAT      O55093   6.754   3.467   5.666
18284WAT     H155094   6.812   3.386   5.678
18284WAT     H255095   6.813   3.547   5.656
18285WAT      O55096   7.506   3.412   3.794
18285WAT     H155097   7.492   3.498   3.842
18285WAT     H255098   7.461   3.338   3.844
18286WAT      O55099   5.197   6.613   4.476
18286WAT     H155100   5.235   6.552   4.547
18286WAT     H255101   5.240   6.592   4.388
18287WAT      O55102   7.260   5.004   1.175
18287WAT     H155103   7.302   5.074   1.233
18287WAT     H255104   7.233   4.925   1.231
18288WAT      O55105   7.593   9.467   2.939
18288WAT     H155106   7.658   9.392   2.932
18288WAT     H255107   7.637   9.552   2.909
18289WAT      O55108   3.102   3.146   6.972
18289WAT     H155109   3.123   3.156   7.069
18289WAT     H255110   3.043   3.222   6.942
18290WAT      O55111   3.666   8.104   8.441
18290WAT     H155112   3.639   8.007   8.449
18290WAT     H255113   3.700   8.136   8.530
18291WAT      O55114   6.400   8.154   0.205
18291WAT     H155115   6.356   8.225   0.150
18291WAT     H255116   6.497   8.174   0.214
18292WAT      O55117   0.053   2.387   8.375
18292WAT     H155118   0.083   2.355   8.465
18292WAT     H255119   0.099   2.334   8.304
18293WAT      O55120   7.446   2.836   8.958
18293WAT     H155121   7.397   2.773   8.898
18293WAT     H255122   7.485   2.785   9.035
18294WAT      O55123   0.362   4.821   6.552
18294WAT     H155124   0.287   4.763   6.584
18294WAT     H255125   0.385   4.888   6.623
18295WAT      O55126   9.315   6.901   0.383
18295WAT     H155127   9.296   6.822   0.441
18295WAT     H255128   9.313   6.984   0.440
18296WAT      O55129   1.346   6.011   9.177
18296WAT     H155130   1.288   6.087   9.147
18296WAT     H255131   1.293   5.951   9.236
18297WAT      O55132   6.904   6.200   5.156
18297WAT     H155133   6.855   6.129   5.207
18297WAT     H255134   6.972   6.157   5.096
18298WAT      O55135   9.224   2.967   6.290
18298WAT     H155136   9.141   2.980   6.236
18298WAT     H255137   9.304   2.995   6.237
18299WAT      O55138   7.365   4.594   5.521
18299WAT     H155139   7.358   4.527   5.447
18299WAT     H255140   7.439   4.569   5.583
18300WAT      O55141   0.874   3.016   6.796
18300WAT     H155142   0.823   3.090   6.840
18300WAT     H255143   0.823   2.930   6.804
18301WAT      O55144   8.766   8.040   8.097
18301WAT     H155145   8.742   8.107   8.167
18301WAT     H255146   8.754   8.081   8.006
18302WAT      O55147   8.467   6.148   7.526
18302WAT     H155148   8.492   6.052   7.520
18302WAT     H255149   8.447   6.183   7.434
18303WAT      O55150   4.181   2.090   7.639
18303WAT     H155151   4.104   2.108   7.577
18303WAT     H255152   4.168   2.142   7.724
18304WAT      O55153   1.287   5.276   1.643
18304WAT     H155154   1.331   5.301   1.556
18304WAT     H255155   1.194   5.244   1.625
18305WAT      O55156   9.707   0.383   9.345
18305WAT     H155157   9.798   0.388   9.304
18305WAT     H255158   9.643   0.344   9.279
18306WAT      O55159   8.915   0.951   8.935
18306WAT     H155160   8.816   0.964   8.944
18306WAT     H255161   8.961   0.998   9.011
18307WAT      O55162   5.633   3.639   8.256
18307WAT     H155163   5.684   3.720   8.284
18307WAT     H255164   5.656   3.563   8.317
18308WAT      O55165   8.154   1.946   0.141
18308WAT     H155166   8.067   1.910   0.172
18308WAT     H255167   8.183   2.020   0.202
18309WAT      O55168   5.595   3.970   8.936
18309WAT     H155169   5.600   4.063   8.972
18309WAT     H255170   5.503   3.952   8.904
18310WAT      O55171   3.104   1.208   8.367
18310WAT     H155172   3.096   1.193   8.268
18310WAT     H255173   3.021   1.177   8.412
18311WAT      O55174   5.536   4.410   0.796
18311WAT     H155175   5.621   4.400   0.745
18311WAT     H255176   5.554   4.457   0.883
18312WAT      O55177   4.355   4.109   7.350
18312WAT     H155178   4.408   4.172   7.293
18312WAT     H255179   4.407   4.024   7.363
18313WAT      O55180   7.555   5.974   7.991
18313WAT     H155181   7.599   5.884   7.987
18313WAT     H255182   7.620   6.042   8.025
18314WAT      O55183   1.924   8.698   6.082
18314WAT     H155184   1.876   8.760   6.020
18314WAT     H255185   1.945   8.613   6.035
18315WAT      O55186   4.405   4.240   2.545
18315WAT     H155187   4.486   4.291   2.573
18315WAT     H255188   4.355   4.210   2.626
18316WAT      O55189   7.620   4.196   5.431
18316WAT     H155190   7.625   4.098   5.446
18316WAT     H255191   7.633   4.217   5.334
18317WAT      O55192   0.840   5.759   1.025
18317WAT     H155193   0.917   5.821   1.008
18317WAT     H255194   0.765   5.809   1.067
18318WAT      O55195   5.172   4.062   7.813
18318WAT     H155196   5.226   4.122   7.871
18318WAT     H255197   5.080   4.100   7.801
18319WAT      O55198   3.106   8.113   0.010
18319WAT     H155199   3.090   8.166  -0.073
18319WAT     H255200   3.020   8.070   0.040
18320WAT      O55201   3.564   8.623   9.436
18320WAT     H155202   3.652   8.583   9.460
18320WAT     H255203   3.501   8.551   9.406
18321WAT      O55204   4.858   5.565   1.708
18321WAT     H155205   4.919   5.547   1.785
18321WAT     H255206   4.763   5.553   1.737
18322WAT      O55207   7.039   2.990   7.107
18322WAT     H155208   7.012   3.066   7.166
18322WAT     H255209   7.109   3.020   7.042
18323WAT      O55210   9.271   8.988   7.302
18323WAT     H155211   9.312   8.944   7.222
18323WAT     H255212   9.314   8.952   7.385
18324WAT      O55213   3.179   8.094   7.267
18324WAT     H155214   3.118   8.079   7.345
18324WAT     H255215   3.200   8.191   7.258
18325WAT      O55216   9.448   2.048   9.558
18325WAT     H155217   9.382   2.107   9.605
18325WAT     H255218   9.501   2.104   9.494
18326WAT      O55219   7.727   2.166   2.099
18326WAT     H155220   7.732   2.096   2.170
18326WAT     H255221   7.716   2.122   2.010
18327WAT      O55222   6.040   6.898   4.729
18327WAT     H155223   6.064   6.838   4.653
18327WAT     H255224   6.123   6.930   4.775
18328WAT      O55225   2.393   4.130   3.890
18328WAT     H155226   2.362   4.100   3.980
18328WAT     H255227   2.421   4.050   3.836
18329WAT      O55228   8.933   2.032   7.166
18329WAT     H155229   9.025   2.057   7.135
18329WAT     H255230   8.882   1.993   7.090
18330WAT      O55231   0.350   3.504   6.654
18330WAT     H155232   0.275   3.568   6.668
18330WAT     H255233   0.406   3.498   6.736
18331WAT      O55234   9.649   6.487   0.693
18331WAT     H155235   9.688   6.564   0.743
18331WAT     H255236   9.660   6.403   0.746
18332WAT      O55237   9.659   0.680   4.552
18332WAT     H155238   9.689   0.586   4.566
18332WAT     H255239   9.738   0.741   4.553
18333WAT      O55240   5.284   2.312   7.555
18333WAT     H155241   5.189   2.282   7.551
18333WAT     H255242   5.288   2.408   7.582
18334WAT      O55243   2.438   7.635   7.135
18334WAT     H155244   2.507   7.686   7.187
18334WAT     H255245   2.370   7.699   7.099
18335WAT      O55246   2.890   7.532   5.180
18335WAT     H155247   2.796   7.561   5.164
18335WAT     H255248   2.897   7.433   5.173
18336WAT      O55249   8.349   5.492   7.418
18336WAT     H155250   8.322   5.541   7.501
18336WAT     H255251   8.415   5.546   7.367
18337WAT      O55252   1.156   1.858   8.403
18337WAT     H155253   1.156   1.774   8.350
18337WAT     H255254   1.085   1.920   8.368
18338WAT      O55255   3.169   6.683   5.184
18338WAT     H155256   3.248   6.709   5.128
18338WAT     H255257   3.119   6.609   5.139
18339WAT      O55258   4.541   2.751   1.748
18339WAT     H155259   4.459   2.740   1.805
18339WAT     H255260   4.514   2.762   1.653
18340WAT      O55261   9.182   2.558   5.690
18340WAT     H155262   9.250   2.521   5.627
18340WAT     H255263   9.091   2.542   5.654
18341WAT      O55264   8.897   4.062   7.255
18341WAT     H155265   8.842   4.035   7.176
18341WAT     H255266   8.977   4.002   7.262
18342WAT      O55267   9.422   0.278   5.423
18342WAT     H155268   9.478   0.202   5.457
18342WAT     H255269   9.466   0.320   5.345
18343WAT      O55270   0.354   6.024   5.703
18343WAT     H155271   0.360   6.025   5.603
18343WAT     H255272   0.260   6.004   5.731
18344WAT      O55273   8.647   8.338   8.957
18344WAT     H155274   8.663   8.244   8.926
18344WAT     H255275   8.672   8.346   9.054
18345WAT      O55276   7.788   3.461   7.398
18345WAT     H155277   7.807   3.555   7.426
18345WAT     H255278   7.740   3.461   7.310
18346WAT      O55279   3.309   4.029   3.945
18346WAT     H155280   3.365   3.953   3.978
18346WAT     H255281   3.283   4.088   4.021
18347WAT      O55282   7.738   8.679   1.305
18347WAT     H155283   7.679   8.754   1.335
18347WAT     H255284   7.832   8.697   1.333
18348WAT      O55285   0.528   3.707   4.835
18348WAT     H155286   0.524   3.621   4.887
18348WAT     H255287   0.607   3.761   4.866
18349WAT      O55288   1.793   1.052   3.957
18349WAT     H155289   1.837   0.966   3.934
18349WAT     H255290   1.738   1.083   3.880
18350WAT      O55291   2.048   1.267   4.819
18350WAT     H155292   2.138   1.233   4.848
18350WAT     H255293   2.007   1.320   4.893
18351WAT      O55294   2.965   5.030   3.044
18351WAT     H155295   2.934   5.067   2.957
18351WAT     H255296   3.060   5.056   3.060
18352WAT      O55297   7.320   6.172   7.959
18352WAT     H155298   7.339   6.237   8.032
18352WAT     H255299   7.357   6.082   7.984
18353WAT      O55300   4.906   4.657   9.133
18353WAT     H155301   4.890   4.631   9.228
18353WAT     H255302   4.832   4.621   9.075
18354WAT      O55303   8.834   2.373   3.128
18354WAT     H155304   8.859   2.400   3.035
18354WAT     H255305   8.852   2.449   3.191
18355WAT      O55306   1.387   6.821   8.074
18355WAT     H155307   1.310   6.825   8.137
18355WAT     H255308   1.458   6.762   8.113
18356WAT      O55309   2.828   7.504   1.874
18356WAT     H155310   2.886   7.553   1.810
18356WAT     H255311   2.824   7.408   1.849
18357WAT      O55312   4.487   8.519   1.278
18357WAT     H155313   4.587   8.526   1.274
18357WAT     H255314   4.452   8.580   1.348
18358WAT      O55315   5.136   3.921   3.245
18358WAT     H155316   5.041   3.900   3.226
18358WAT     H255317   5.185   3.934   3.159
18359WAT      O55318   6.728   2.553   2.426
18359WAT     H155319   6.798   2.565   2.355
18359WAT     H255320   6.763   2.495   2.499
18360WAT      O55321   8.215   5.165   7.033
18360WAT     H155322   8.248   5.136   7.123
18360WAT     H255323   8.271   5.122   6.962
18361WAT      O55324   7.914   9.747   7.602
18361WAT     H155325   7.890   9.719   7.509
18361WAT     H255326   7.975   9.826   7.598
18362WAT      O55327   3.747   6.164   0.540
18362WAT     H155328   3.689   6.083   0.539
18362WAT     H255329   3.821   6.153   0.473
18363WAT      O55330   0.277   3.427   9.282
18363WAT     H155331   0.234   3.420   9.372
18363WAT     H255332   0.208   3.451   9.213
18364WAT      O55333   5.025   0.256   9.246
18364WAT     H155334   5.088   0.257   9.324
18364WAT     H255335   4.932   0.273   9.278
18365WAT      O55336   4.953   7.864   4.386
18365WAT     H155337   5.009   7.814   4.452
18365WAT     H255338   4.906   7.939   4.432
18366WAT      O55339   4.503   8.606   0.182
18366WAT     H155340   4.586   8.576   0.135
18366WAT     H255341   4.457   8.676   0.126
18367WAT      O55342   6.504   0.791   6.496
18367WAT     H155343   6.432   0.860   6.500
18367WAT     H255344   6.590   0.833   6.465
18368WAT      O55345   2.149   6.651   3.289
18368WAT     H155346   2.050   6.654   3.275
18368WAT     H255347   2.193   6.716   3.228
18369WAT      O55348   6.794   3.278   3.310
18369WAT     H155349   6.876   3.334   3.317
18369WAT     H255350   6.772   3.239   3.399
18370WAT      O55351   3.376   5.174   7.805
18370WAT     H155352   3.287   5.207   7.835
18370WAT     H255353   3.417   5.118   7.878
18371WAT      O55354   3.085   9.077   4.127
18371WAT     H155355   3.177   9.116   4.122
18371WAT     H255356   3.078   9.000   4.064
18372WAT      O55357   2.008   7.718   7.795
18372WAT     H155358   1.952   7.790   7.838
18372WAT     H255359   2.102   7.724   7.830
18373WAT      O55360   7.845   0.686   7.065
18373WAT     H155361   7.746   0.682   7.079
18373WAT     H255362   7.883   0.594   7.072
18374WAT      O55363   4.297   4.236   2.003
18374WAT     H155364   4.390   4.200   2.007
18374WAT     H255365   4.241   4.178   1.943
18375WAT      O55366   1.742   8.225   1.432
18375WAT     H155367   1.824   8.193   1.386
18375WAT     H255368   1.673   8.249   1.364
18376WAT      O55369   6.115   5.613   7.034
18376WAT     H155370   6.100   5.673   7.112
18376WAT     H255371   6.029   5.598   6.986
18377WAT      O55372   5.577   0.129   8.710
18377WAT     H155373   5.480   0.117   8.732
18377WAT     H255374   5.610   0.048   8.662
18378WAT      O55375   8.687   0.521   7.944
18378WAT     H155376   8.730   0.456   7.881
18378WAT     H255377   8.666   0.606   7.894
18379WAT      O55378   3.805   9.300   6.278
18379WAT     H155379   3.890   9.259   6.312
18379WAT     H255380   3.769   9.245   6.203
18380WAT      O55381   7.004   4.067   9.816
18380WAT     H155382   7.083   4.006   9.819
18380WAT     H255383   7.015   4.131   9.739
18381WAT      O55384   7.321   8.887   5.162
18381WAT     H155385   7.292   8.901   5.256
18381WAT     H255386   7.253   8.926   5.099
18382WAT      O55387   2.389   6.255   2.420
18382WAT     H155388   2.457   6.194   2.461
18382WAT     H255389   2.396   6.346   2.460
18383WAT      O55390   7.049   0.673   6.466
18383WAT     H155391   7.118   0.744   6.451
18383WAT     H255392   7.033   0.661   6.564
18384WAT      O55393   5.061   3.219   4.166
18384WAT     H155394   5.031   3.127   4.193
18384WAT     H255395   5.024   3.286   4.230
18385WAT      O55396   5.455   3.986   2.222
18385WAT     H155397   5.555   3.979   2.231
18385WAT     H255398   5.421   4.058   2.283
18386WAT      O55399   6.985   0.815   4.743
18386WAT     H155400   7.005   0.749   4.815
18386WAT     H255401   6.906   0.783   4.690
18387WAT      O55402   9.140   3.661   8.862
18387WAT     H155403   9.041   3.671   8.853
18387WAT     H255404   9.167   3.685   8.955
18388WAT      O55405   0.831   7.895   3.221
18388WAT     H155406   0.910   7.835   3.235
18388WAT     H255407   0.754   7.861   3.275
18389WAT      O55408   5.971   0.744   7.138
18389WAT     H155409   5.932   0.652   7.139
18389WAT     H255410   5.900   0.811   7.159
18390WAT      O55411   9.558   2.215   7.157
18390WAT     H155412   9.511   2.203   7.245
18390WAT     H255413   9.545   2.132   7.102
18391WAT      O55414   7.010   4.682   6.721
18391WAT     H155415   6.942   4.664   6.792
18391WAT     H255416   7.069   4.601   6.710
18392WAT      O55417   5.175   6.143   3.198
18392WAT     H155418   5.275   6.148   3.197
18392WAT     H255419   5.137   6.234   3.177
18393WAT      O55420   5.715   4.154   2.661
18393WAT     H155421   5.756   4.068   2.629
18393WAT     H255422   5.675   4.140   2.752
18394WAT      O55423   6.440   2.938   0.081
18394WAT     H155424   6.391   2.897   0.158
18394WAT     H255425   6.506   3.005   0.116
18395WAT      O55426   3.276   7.216   0.477
18395WAT     H155427   3.314   7.177   0.561
18395WAT     H255428   3.197   7.273   0.501
18396WAT      O55429   0.192   1.963   9.018
18396WAT     H155430   0.184   1.897   8.944
18396WAT     H255431   0.234   1.920   9.098
18397WAT      O55432   1.600   4.151   4.058
18397WAT     H155433   1.681   4.114   4.012
18397WAT     H255434   1.620   4.243   4.092
18398WAT      O55435   1.231   2.419   1.866
18398WAT     H155436   1.253   2.507   1.909
18398WAT     H255437   1.141   2.424   1.823
18399WAT      O55438   7.330   7.640   1.800
18399WAT     H155439   7.286   7.696   1.730
18399WAT     H255440   7.297   7.667   1.890
18400WAT      O55441   2.268   1.832   5.545
18400WAT     H155442   2.227   1.779   5.619
18400WAT     H255443   2.201   1.896   5.508
18401WAT      O55444   4.365   3.561   4.517
18401WAT     H155445   4.354   3.622   4.438
18401WAT     H255446   4.429   3.488   4.494
18402WAT      O55447   2.518   4.501   7.302
18402WAT     H155448   2.561   4.553   7.228
18402WAT     H255449   2.428   4.539   7.322
18403WAT      O55450   8.796   8.989   3.883
18403WAT     H155451   8.754   8.899   3.871
18403WAT     H255452   8.726   9.060   3.873
18404WAT      O55453   9.754   5.568   4.962
18404WAT     H155454   9.662   5.537   4.985
18404WAT     H255455   9.817   5.542   5.036
18405WAT      O55456   2.019   8.887   3.623
18405WAT     H155457   2.081   8.831   3.678
18405WAT     H255458   2.070   8.930   3.548
18406WAT      O55459   3.211   8.795   9.230
18406WAT     H155460   3.192   8.893   9.237
18406WAT     H255461   3.175   8.749   9.312
18407WAT      O55462   5.005   7.082   1.474
18407WAT     H155463   5.036   7.172   1.444
18407WAT     H255464   4.905   7.080   1.477
18408WAT      O55465   3.995   6.093   1.537
18408WAT     H155466   4.023   6.027   1.467
18408WAT     H255467   3.906   6.065   1.575
18409WAT      O55468   2.589   4.262   3.752
18409WAT     H155469   2.557   4.340   3.698
18409WAT     H255470   2.512   4.225   3.805
18410WAT      O55471   5.738   8.764   0.373
18410WAT     H155472   5.774   8.855   0.393
18410WAT     H255473   5.810   8.708   0.332
18411WAT      O55474   6.510   1.167   4.917
18411WAT     H155475   6.581   1.237   4.912
18411WAT     H255476   6.494   1.142   5.012
18412WAT      O55477   6.629   8.407   1.015
18412WAT     H155478   6.650   8.311   0.995
18412WAT     H255479   6.577   8.446   0.938
18413WAT      O55480   7.334   5.556   6.482
18413WAT     H155481   7.369   5.648   6.462
18413WAT     H255482   7.264   5.562   6.553
18414WAT      O55483   5.801   2.619   2.655
18414WAT     H155484   5.889   2.614   2.701
18414WAT     H255485   5.814   2.606   2.556
18415WAT      O55486   0.288   4.835   3.128
18415WAT     H155487   0.354   4.832   3.053
18415WAT     H255488   0.253   4.743   3.145
18416WAT      O55489   1.629   8.566   3.034
18416WAT     H155490   1.704   8.564   2.968
18416WAT     H255491   1.549   8.523   2.993
18417WAT      O55492   0.964   3.966   4.213
18417WAT     H155493   1.044   3.927   4.169
18417WAT     H255494   0.892   3.982   4.145
18418WAT      O55495   3.006   4.635   2.772
18418WAT     H155496   3.077   4.588   2.719
18418WAT     H255497   3.035   4.643   2.867
18419WAT      O55498   2.876   4.218   3.773
18419WAT     H155499   2.778   4.237   3.767
18419WAT     H255500   2.890   4.120   3.788
18420WAT      O55501   2.655   4.828   9.198
18420WAT     H155502   2.724   4.811   9.128
18420WAT     H255503   2.694   4.887   9.269
18421WAT      O55504   2.505   7.924   8.324
18421WAT     H155505   2.505   7.829   8.292
18421WAT     H255506   2.599   7.956   8.335
18422WAT      O55507   2.606   4.922   4.096
18422WAT     H155508   2.538   4.994   4.107
18422WAT     H255509   2.564   4.844   4.049
18423WAT      O55510   5.692   3.117   7.928
18423WAT     H155511   5.657   3.140   7.837
18423WAT     H255512   5.673   3.022   7.949
18424WAT      O55513   6.803   4.045   2.731
18424WAT     H155514   6.821   3.978   2.804
18424WAT     H255515   6.775   3.997   2.648
18425WAT      O55516   9.336   7.122   0.529
18425WAT     H155517   9.435   7.134   0.544
18425WAT     H255518   9.299   7.206   0.489
18426WAT      O55519   8.316   6.465   2.251
18426WAT     H155520   8.377   6.490   2.177
18426WAT     H255521   8.225   6.502   2.234
18427WAT      O55522   9.072   1.047   7.203
18427WAT     H155523   9.116   0.979   7.143
18427WAT     H255524   9.142   1.107   7.242
18428WAT      O55525   0.785   2.954   8.483
18428WAT     H155526   0.694   2.979   8.449
18428WAT     H255527   0.844   3.035   8.483
18429WAT      O55528   9.292   8.160   2.349
18429WAT     H155529   9.263   8.134   2.441
18429WAT     H255530   9.218   8.206   2.302
18430WAT      O55531   6.492   2.894   8.366
18430WAT     H155532   6.456   2.806   8.334
18430WAT     H255533   6.502   2.956   8.288
18431WAT      O55534   1.651   3.173   9.384
18431WAT     H155535   1.591   3.138   9.456
18431WAT     H255536   1.745   3.174   9.416
18432WAT      O55537   4.155   9.086   3.644
18432WAT     H155538   4.086   9.119   3.580
18432WAT     H255539   4.229   9.154   3.650
18433WAT      O55540   6.684   8.725   7.536
18433WAT     H155541   6.717   8.640   7.576
18433WAT     H255542   6.754   8.796   7.544
18434WAT      O55543   0.040   4.765   6.053
18434WAT     H155544   0.043   4.757   5.954
18434WAT     H255545   0.109   4.704   6.093
18435WAT      O55546   3.752   7.999   9.095
18435WAT     H155547   3.703   8.067   9.040
18435WAT     H255548   3.705   7.911   9.090
18436WAT      O55549   1.186   5.502   4.131
18436WAT     H155550   1.127   5.500   4.212
18436WAT     H255551   1.141   5.553   4.058
18437WAT      O55552   1.563   5.777   0.799
18437WAT     H155553   1.603   5.726   0.875
18437WAT     H255554   1.490   5.835   0.833
18438WAT      O55555   1.818   4.222   8.736
18438WAT     H155556   1.904   4.171   8.727
18438WAT     H255557   1.823   4.306   8.683
18439WAT      O55558   9.347   9.775   6.550
18439WAT     H155559   9.423   9.741   6.605
18439WAT     H255560   9.354   9.874   6.542
18440WAT      O55561   8.150   7.879   4.816
18440WAT     H155562   8.219   7.942   4.852
18440WAT     H255563   8.179   7.844   4.727
18441WAT      O55564   7.458   9.816   3.633
18441WAT     H155565   7.498   9.809   3.724
18441WAT     H255566   7.371   9.767   3.632
18442WAT      O55567   3.145   6.605   3.596
18442WAT     H155568   3.080   6.548   3.646
18442WAT     H255569   3.098   6.647   3.518
18443WAT      O55570   2.165   5.229   7.243
18443WAT     H155571   2.168   5.234   7.342
18443WAT     H255572   2.074   5.255   7.211
18444WAT      O55573   9.892   7.554   1.427
18444WAT     H155574   9.875   7.480   1.362
18444WAT     H255575   9.857   7.639   1.390
18445WAT      O55576   0.050   3.676   6.032
18445WAT     H155577   0.076   3.682   6.128
18445WAT     H255578   0.082   3.590   5.993
18446WAT      O55579   4.740   5.657   8.093
18446WAT     H155580   4.650   5.673   8.051
18446WAT     H255581   4.728   5.615   8.183
18447WAT      O55582   4.552   0.223   0.906
18447WAT     H155583   4.472   0.248   0.960
18447WAT     H255584   4.549   0.270   0.817
18448WAT      O55585   3.325   3.381   9.410
18448WAT     H155586   3.244   3.326   9.391
18448WAT     H255587   3.348   3.436   9.330
18449WAT      O55588   2.103   2.888   7.551
18449WAT     H155589   2.072   2.875   7.457
18449WAT     H255590   2.027   2.868   7.614
18450WAT      O55591   7.417   8.836   4.883
18450WAT     H155592   7.436   8.778   4.804
18450WAT     H255593   7.439   8.787   4.967
18451WAT      O55594   9.154   8.823   8.929
18451WAT     H155595   9.111   8.791   9.013
18451WAT     H255596   9.094   8.804   8.851
18452WAT      O55597   1.079   3.690   1.729
18452WAT     H155598   1.156   3.737   1.772
18452WAT     H255599   0.998   3.699   1.786
18453WAT      O55600   5.639   8.022   8.415
18453WAT     H155601   5.578   7.945   8.432
18453WAT     H255602   5.649   8.036   8.317
18454WAT      O55603   8.149   1.102   3.411
18454WAT     H155604   8.141   1.074   3.507
18454WAT     H255605   8.131   1.200   3.403
18455WAT      O55606   9.537   8.719   8.089
18455WAT     H155607   9.619   8.723   8.032
18455WAT     H255608   9.564   8.726   8.186
18456WAT      O55609   7.202   5.244   4.729
18456WAT     H155610   7.161   5.333   4.751
18456WAT     H255611   7.283   5.230   4.785
18457WAT      O55612   8.828   8.425   5.737
18457WAT     H155613   8.824   8.382   5.827
18457WAT     H255614   8.834   8.524   5.748
18458WAT      O55615   1.435   1.233   8.608
18458WAT     H155616   1.463   1.139   8.593
18458WAT     H255617   1.364   1.258   8.542
18459WAT      O55618   2.493   9.184   2.968
18459WAT     H155619   2.436   9.182   2.886
18459WAT     H255620   2.568   9.119   2.958
18460WAT      O55621   8.417   6.952   4.459
18460WAT     H155622   8.501   6.994   4.426
18460WAT     H255623   8.340   6.982   4.403
18461WAT      O55624   5.561   0.691   1.470
18461WAT     H155625   5.526   0.718   1.380
18461WAT     H255626   5.630   0.757   1.500
18462WAT      O55627   6.929   8.614   6.615
18462WAT     H155628   6.846   8.610   6.559
18462WAT     H255629   6.981   8.696   6.591
18463WAT      O55630   6.813   4.080   7.780
18463WAT     H155631   6.763   4.128   7.853
18463WAT     H255632   6.791   4.122   7.692
18464WAT      O55633   6.234   5.346   8.529
18464WAT     H155634   6.282   5.433   8.537
18464WAT     H255635   6.252   5.291   8.611
18465WAT      O55636   5.639   2.849   2.011
18465WAT     H155637   5.584   2.774   1.973
18465WAT     H255638   5.598   2.936   1.986
18466WAT      O55639   8.560   2.887   5.376
18466WAT     H155640   8.590   2.974   5.337
18466WAT     H255641   8.630   2.852   5.438
18467WAT      O55642   4.542   6.029   5.810
18467WAT     H155643   4.535   5.961   5.737
18467WAT     H255644   4.562   5.984   5.897
18468WAT      O55645   8.686   7.758   0.485
18468WAT     H155646   8.725   7.667   0.502
18468WAT     H255647   8.745   7.806   0.420
18469WAT      O55648   6.177   6.912   5.387
18469WAT     H155649   6.089   6.865   5.392
18469WAT     H255650   6.214   6.903   5.295
18470WAT      O55651   6.890   0.024   2.400
18470WAT     H155652   6.837   0.081   2.337
18470WAT     H255653   6.969   0.076   2.433
18471WAT      O55654   5.663   5.562   0.759
18471WAT     H155655   5.690   5.555   0.663
18471WAT     H255656   5.742   5.539   0.817
18472WAT      O55657   6.815   2.462   9.277
18472WAT     H155658   6.772   2.462   9.367
18472WAT     H255659   6.825   2.556   9.245
18473WAT      O55660   6.836   1.247   7.037
18473WAT     H155661   6.841   1.150   7.061
18473WAT     H255662   6.876   1.260   6.946
18474WAT      O55663   3.633   7.945   8.102
18474WAT     H155664   3.547   7.961   8.150
18474WAT     H255665   3.709   7.970   8.161
18475WAT      O55666   8.956   7.099   3.035
18475WAT     H155667   8.951   7.076   3.133
18475WAT     H255668   9.032   7.050   2.994
18476WAT      O55669   6.821   3.123   9.115
18476WAT     H155670   6.914   3.090   9.127
18476WAT     H255671   6.761   3.079   9.181
18477WAT      O55672   8.807   3.564   6.418
18477WAT     H155673   8.713   3.598   6.415
18477WAT     H255674   8.870   3.641   6.423
18478WAT      O55675   1.211   4.114   6.377
18478WAT     H155676   1.288   4.171   6.404
18478WAT     H255677   1.169   4.151   6.294
18479WAT      O55678   7.808   7.921   2.950
18479WAT     H155679   7.824   7.873   3.037
18479WAT     H255680   7.752   8.002   2.967
18480WAT      O55681   5.479   3.580   4.155
18480WAT     H155682   5.533   3.498   4.134
18480WAT     H255683   5.507   3.655   4.094
18481WAT      O55684   3.639   5.000   2.917
18481WAT     H155685   3.664   4.904   2.933
18481WAT     H255686   3.672   5.055   2.994
18482WAT      O55687   3.081   6.124   7.911
18482WAT     H155688   3.080   6.223   7.898
18482WAT     H255689   3.098   6.104   8.008
18483WAT      O55690   3.553   8.983   0.756
18483WAT     H155691   3.604   9.064   0.726
18483WAT     H255692   3.545   8.919   0.681
18484WAT      O55693   8.426   4.704   2.745
18484WAT     H155694   8.414   4.692   2.646
18484WAT     H255695   8.339   4.687   2.791
18485WAT      O55696   6.366   8.171   1.417
18485WAT     H155697   6.438   8.163   1.348
18485WAT     H255698   6.406   8.200   1.504
18486WAT      O55699   0.462   2.054   8.369
18486WAT     H155700   0.432   2.098   8.454
18486WAT     H255701   0.385   2.005   8.328
18487WAT      O55702   2.471   5.504   4.578
18487WAT     H155703   2.472   5.436   4.652
18487WAT     H255704   2.391   5.563   4.589
18488WAT      O55705   0.469   6.109   9.640
18488WAT     H155706   0.487   6.024   9.690
18488WAT     H255707   0.410   6.168   9.695
18489WAT      O55708   4.070   7.942   6.685
18489WAT     H155709   4.092   7.917   6.779
18489WAT     H255710   4.125   7.887   6.622
18490WAT      O55711   8.559   7.190   6.174
18490WAT     H155712   8.549   7.092   6.158
18490WAT     H255713   8.513   7.240   6.100
18491WAT      O55714   5.775   7.878   0.441
18491WAT     H155715   5.731   7.945   0.501
18491WAT     H255716   5.704   7.832   0.387
18492WAT      O55717   9.278   6.531   1.418
18492WAT     H155718   9.332   6.498   1.341
18492WAT     H255719   9.327   6.512   1.503
18493WAT      O55720   4.467   8.695   9.022
18493WAT     H155721   4.500   8.613   8.974
18493WAT     H255722   4.374   8.679   9.055
18494WAT      O55723   1.131   4.874   3.826
18494WAT     H155724   1.063   4.938   3.788
18494WAT     H255725   1.109   4.781   3.796
18495WAT      O55726   2.117   6.127   9.424
18495WAT     H155727   2.105   6.226   9.418
18495WAT     H255728   2.135   6.101   9.519
18496WAT      O55729   3.364   6.051   4.094
18496WAT     H155730   3.368   5.964   4.044
18496WAT     H255731   3.454   6.094   4.093
18497WAT      O55732   1.813   4.324   4.315
18497WAT     H155733   1.729   4.354   4.271
18497WAT     H255734   1.892   4.359   4.264
18498WAT      O55735   8.623   3.556   5.990
18498WAT     H155736   8.712   3.522   6.019
18498WAT     H255737   8.575   3.596   6.069
18499WAT      O55738   0.862   3.408   7.739
18499WAT     H155739   0.764   3.404   7.720
18499WAT     H255740   0.882   3.489   7.794
18500WAT      O55741   8.456   3.322   5.328
18500WAT     H155742   8.433   3.406   5.377
18500WAT     H255743   8.372   3.277   5.297
18501WAT      O55744   7.706   0.912   3.488
18501WAT     H155745   7.692   0.974   3.410
18501WAT     H255746   7.629   0.847   3.492
18502WAT      O55747   7.170   9.828   8.288
18502WAT     H155748   7.243   9.807   8.354
18502WAT     H255749   7.108   9.895   8.328
18503WAT      O55750   2.914   6.944   1.595
18503WAT     H155751   2.984   7.013   1.613
18503WAT     H255752   2.954   6.853   1.602
18504WAT      O55753   2.666   4.745   1.887
18504WAT     H155754   2.698   4.768   1.979
18504WAT     H255755   2.594   4.676   1.893
18505WAT      O55756   7.552   4.004   3.279
18505WAT     H155757   7.620   3.988   3.207
18505WAT     H255758   7.477   4.059   3.242
18506WAT      O55759   2.761   8.398   1.667
18506WAT     H155760   2.743   8.479   1.723
18506WAT     H255761   2.821   8.336   1.718
18507WAT      O55762   4.388   9.615   2.738
18507WAT     H155763   4.345   9.587   2.651
18507WAT     H255764   4.320   9.609   2.811
18508WAT      O55765   3.625   6.796   6.119
18508WAT     H155766   3.628   6.792   6.019
18508WAT     H255767   3.682   6.872   6.150
18509WAT      O55768   7.589   3.854   2.424
18509WAT     H155769   7.573   3.766   2.468
18509WAT     H255770   7.522   3.867   2.350
18510WAT      O55771   3.515   7.064   6.464
18510WAT     H155772   3.601   7.106   6.494
18510WAT     H255773   3.515   7.058   6.364
18511WAT      O55774   1.607   2.582   1.749
18511WAT     H155775   1.686   2.521   1.740
18511WAT     H255776   1.640   2.674   1.772
18512WAT      O55777   5.568   7.775   8.708
18512WAT     H155778   5.668   7.778   8.698
18512WAT     H255779   5.545   7.715   8.785
18513WAT      O55780   7.798   3.476   0.265
18513WAT     H155781   7.793   3.385   0.307
18513WAT     H255782   7.706   3.512   0.252
18514WAT      O55783   4.331   8.966   2.708
18514WAT     H155784   4.376   9.021   2.777
18514WAT     H255785   4.246   9.011   2.679
18515WAT      O55786   5.431   5.813   8.581
18515WAT     H155787   5.343   5.836   8.621
18515WAT     H255788   5.445   5.715   8.585
18516WAT      O55789   1.481   9.688   7.638
18516WAT     H155790   1.537   9.713   7.717
18516WAT     H255791   1.479   9.764   7.573
18517WAT      O55792   1.948   2.411   4.713
18517WAT     H155793   1.853   2.439   4.704
18517WAT     H255794   1.966   2.382   4.807
18518WAT      O55795   6.773   0.013   6.248
18518WAT     H155796   6.811  -0.056   6.186
18518WAT     H255797   6.825   0.014   6.333
18519WAT      O55798   5.276   4.906   0.460
18519WAT     H155799   5.183   4.890   0.494
18519WAT     H255800   5.295   5.004   0.462
18520WAT      O55801   1.425   7.336   0.423
18520WAT     H155802   1.487   7.379   0.357
18520WAT     H255803   1.395   7.404   0.490
18521WAT      O55804   9.718   7.701   7.268
18521WAT     H155805   9.635   7.711   7.213
18521WAT     H255806   9.707   7.751   7.354
18522WAT      O55807   6.850   5.816   0.254
18522WAT     H155808   6.893   5.901   0.285
18522WAT     H255809   6.800   5.832   0.169
18523WAT      O55810   5.796   8.954   3.509
18523WAT     H155811   5.755   8.864   3.503
18523WAT     H255812   5.844   8.964   3.596
18524WAT      O55813   0.319   5.708   5.093
18524WAT     H155814   0.225   5.737   5.074
18524WAT     H255815   0.319   5.612   5.122
18525WAT      O55816   5.179   9.414   6.563
18525WAT     H155817   5.081   9.412   6.582
18525WAT     H255818   5.196   9.466   6.479
18526WAT      O55819   3.414   2.319   8.186
18526WAT     H155820   3.400   2.354   8.278
18526WAT     H255821   3.512   2.307   8.169
18527WAT      O55822   2.136   7.648   3.777
18527WAT     H155823   2.185   7.629   3.861
18527WAT     H255824   2.049   7.597   3.777
18528WAT      O55825   6.796   0.123   4.720
18528WAT     H155826   6.883   0.087   4.751
18528WAT     H255827   6.809   0.213   4.680
18529WAT      O55828   1.048   8.656   5.973
18529WAT     H155829   1.117   8.585   5.987
18529WAT     H255830   0.987   8.629   5.898
18530WAT      O55831   4.505   5.980   4.038
18530WAT     H155832   4.549   6.010   3.953
18530WAT     H255833   4.436   5.910   4.018
18531WAT      O55834   1.295   1.609   7.573
18531WAT     H155835   1.243   1.672   7.631
18531WAT     H255836   1.304   1.648   7.482
18532WAT      O55837   8.849   6.365   4.954
18532WAT     H155838   8.774   6.376   5.018
18532WAT     H255839   8.876   6.268   4.951
18533WAT      O55840   6.383   5.004   0.305
18533WAT     H155841   6.299   4.962   0.271
18533WAT     H255842   6.413   4.957   0.388
18534WAT      O55843   9.576   9.226   7.297
18534WAT     H155844   9.620   9.311   7.267
18534WAT     H255845   9.478   9.241   7.308
18535WAT      O55846   9.374   0.036   8.419
18535WAT     H155847   9.369   0.123   8.468
18535WAT     H255848   9.428   0.048   8.335
18536WAT      O55849   5.334   4.218   8.354
18536WAT     H155850   5.319   4.123   8.326
18536WAT     H255851   5.430   4.242   8.342
18537WAT      O55852   6.611   5.128   9.608
18537WAT     H155853   6.698   5.132   9.657
18537WAT     H255854   6.617   5.184   9.526
18538WAT      O55855   7.538   1.460   6.716
18538WAT     H155856   7.587   1.535   6.760
18538WAT     H255857   7.571   1.373   6.753
18539WAT      O55858   2.976   0.178   6.014
18539WAT     H155859   2.978   0.275   5.991
18539WAT     H255860   2.964   0.168   6.113
18540WAT      O55861   0.470   2.931   5.631
18540WAT     H155862   0.467   2.862   5.703
18540WAT     H255863   0.510   3.015   5.666
18541WAT      O55864   5.384   4.636   4.088
18541WAT     H155865   5.416   4.590   4.005
18541WAT     H255866   5.364   4.569   4.158
18542WAT      O55867   5.376   1.615   1.861
18542WAT     H155868   5.403   1.684   1.794
18542WAT     H255869   5.314   1.549   1.819
18543WAT      O55870   7.232   3.457   3.547
18543WAT     H155871   7.323   3.422   3.527
18543WAT     H255872   7.221   3.547   3.503
18544WAT      O55873   1.640   7.970   6.542
18544WAT     H155874   1.561   7.990   6.601
18544WAT     H255875   1.697   8.052   6.535
18545WAT      O55876   6.586   4.612   7.900
18545WAT     H155877   6.557   4.686   7.960
18545WAT     H255878   6.672   4.574   7.934
18546WAT      O55879   3.016   3.986   7.850
18546WAT     H155880   3.068   3.914   7.897
18546WAT     H255881   3.038   4.075   7.891
18547WAT      O55882   9.618   2.267   5.534
18547WAT     H155883   9.681   2.262   5.457
18547WAT     H255884   9.542   2.204   5.519
18548WAT      O55885   8.769   4.054   9.549
18548WAT     H155886   8.758   3.964   9.591
18548WAT     H255887   8.735   4.050   9.455
18549WAT      O55888   3.335   4.087   8.198
18549WAT     H155889   3.323   4.184   8.177
18549WAT     H255890   3.400   4.077   8.274
18550WAT      O55891   8.261   5.066   9.052
18550WAT     H155892   8.196   5.137   9.025
18550WAT     H255893   8.339   5.068   8.990
18551WAT      O55894   0.772   2.559   8.210
18551WAT     H155895   0.692   2.614   8.233
18551WAT     H255896   0.805   2.513   8.292
18552WAT      O55897   3.791   1.231   8.790
18552WAT     H155898   3.718   1.299   8.791
18552WAT     H255899   3.778   1.171   8.711
18553WAT      O55900   5.207   1.155   1.741
18553WAT     H155901   5.243   1.194   1.825
18553WAT     H255902   5.203   1.225   1.670
18554WAT      O55903   7.545   3.919   5.754
18554WAT     H155904   7.625   3.863   5.730
18554WAT     H255905   7.576   4.006   5.791
18555WAT      O55906   6.783   2.414   2.663
18555WAT     H155907   6.782   2.498   2.717
18555WAT     H255908   6.877   2.379   2.658
18556WAT      O55909   3.029   6.073   1.557
18556WAT     H155910   2.950   6.074   1.618
18556WAT     H255911   3.035   6.161   1.510
18557WAT      O55912   5.185   6.063   2.792
18557WAT     H155913   5.209   6.050   2.695
18557WAT     H255914   5.215   6.154   2.822
18558WAT      O55915   1.620   6.400   7.785
18558WAT     H155916   1.712   6.437   7.795
18558WAT     H255917   1.570   6.415   7.870
18559WAT      O55918   1.474   0.269   5.553
18559WAT     H155919   1.431   0.359   5.561
18559WAT     H255920   1.437   0.208   5.624
18560WAT      O55921   8.300   2.587   5.717
18560WAT     H155922   8.211   2.621   5.687
18560WAT     H255923   8.367   2.662   5.713
18561WAT      O55924   0.054   6.390   8.479
18561WAT     H155925   0.006   6.376   8.392
18561WAT     H255926   0.153   6.389   8.463
18562WAT      O55927   5.996   0.502   5.875
18562WAT     H155928   6.037   0.431   5.817
18562WAT     H255929   6.039   0.499   5.966
18563WAT      O55930   2.385   0.721   4.902
18563WAT     H155931   2.340   0.690   4.986
18563WAT     H255932   2.373   0.652   4.831
18564WAT      O55933   0.846   4.491   3.849
18564WAT     H155934   0.843   4.404   3.801
18564WAT     H255935   0.865   4.476   3.946
18565WAT      O55936   4.534   7.189   8.778
18565WAT     H155937   4.581   7.229   8.699
18565WAT     H255938   4.480   7.110   8.748
18566WAT      O55939   0.622   8.911   5.324
18566WAT     H155940   0.574   8.894   5.410
18566WAT     H255941   0.670   8.999   5.329
18567WAT      O55942   3.695   5.405   4.947
18567WAT     H155943   3.600   5.391   4.921
18567WAT     H255944   3.724   5.334   5.010
18568WAT      O55945   9.260   4.320   6.624
18568WAT     H155946   9.354   4.346   6.604
18568WAT     H255947   9.255   4.280   6.715
18569WAT      O55948   7.580   9.347   7.504
18569WAT     H155949   7.571   9.411   7.580
18569WAT     H255950   7.490   9.308   7.483
18570WAT      O55951   8.430   3.736   9.603
18570WAT     H155952   8.409   3.761   9.509
18570WAT     H255953   8.363   3.671   9.637
18571WAT      O55954   6.256   5.950   8.737
18571WAT     H155955   6.301   6.013   8.800
18571WAT     H255956   6.248   5.992   8.647
18572WAT      O55957   2.147   3.085   4.177
18572WAT     H155958   2.131   3.061   4.081
18572WAT     H255959   2.060   3.110   4.220
18573WAT      O55960   7.060   8.727   1.199
18573WAT     H155961   7.014   8.800   1.248
18573WAT     H255962   7.150   8.759   1.168
18574WAT      O55963   8.847   8.116   3.850
18574WAT     H155964   8.915   8.043   3.846
18574WAT     H255965   8.889   8.200   3.886
18575WAT      O55966   9.513   5.644   0.364
18575WAT     H155967   9.445   5.707   0.402
18575WAT     H255968   9.563   5.689   0.290
18576WAT      O55969   3.545   1.365   4.291
18576WAT     H155970   3.503   1.339   4.204
18576WAT     H255971   3.605   1.444   4.277
18577WAT      O55972   4.902   1.963   0.379
18577WAT     H155973   4.805   1.943   0.386
18577WAT     H255974   4.916   2.063   0.377
18578WAT      O55975   3.241   4.609   1.253
18578WAT     H155976   3.287   4.653   1.330
18578WAT     H255977   3.188   4.678   1.203
18579WAT      O55978   0.007   7.002   2.400
18579WAT     H155979   0.032   6.954   2.315
18579WAT     H255980   0.087   7.007   2.460
18580WAT      O55981   3.379   9.144   4.065
18580WAT     H155982   3.402   9.165   3.970
18580WAT     H255983   3.450   9.086   4.104
18581WAT      O55984   4.159   8.848   0.372
18581WAT     H155985   4.247   8.806   0.395
18581WAT     H255986   4.144   8.927   0.432
18582WAT      O55987   2.454   1.818   1.553
18582WAT     H155988   2.477   1.914   1.564
18582WAT     H255989   2.439   1.776   1.642
18583WAT      O55990   4.735   9.594   1.842
18583WAT     H155991   4.795   9.533   1.895
18583WAT     H255992   4.706   9.548   1.758
18584WAT      O55993   6.559   7.768   4.496
18584WAT     H155994   6.542   7.864   4.517
18584WAT     H255995   6.488   7.734   4.434
18585WAT      O55996   2.769   3.066   7.066
18585WAT     H155997   2.686   3.107   7.102
18585WAT     H255998   2.768   3.070   6.966
18586WAT      O55999   8.642   8.596   0.237
18586WAT     H156000   8.697   8.641   0.167
18586WAT     H256001   8.554   8.568   0.198
18587WAT      O56002   6.189   3.148   9.763
18587WAT     H156003   6.158   3.057   9.736
18587WAT     H256004   6.225   3.196   9.682
18588WAT      O56005   1.811   0.516   0.259
18588WAT     H156006   1.807   0.542   0.162
18588WAT     H256007   1.866   0.584   0.309
18589WAT      O56008   3.538   9.194   2.341
18589WAT     H156009   3.520   9.194   2.243
18589WAT     H256010   3.484   9.122   2.385
18590WAT      O56011   6.605   7.749   5.643
18590WAT     H156012   6.682   7.797   5.601
18590WAT     H256013   6.634   7.707   5.729
18591WAT      O56014   0.431   1.151   5.445
18591WAT     H156015   0.502   1.221   5.443
18591WAT     H256016   0.356   1.181   5.504
18592WAT      O56017   7.186   1.651   8.763
18592WAT     H156018   7.116   1.723   8.767
18592WAT     H256019   7.276   1.691   8.783
18593WAT      O56020   0.020   3.361   7.960
18593WAT     H156021  -0.010   3.405   8.045
18593WAT     H256022  -0.056   3.358   7.895
18594WAT      O56023   0.418   2.039   2.514
18594WAT     H156024   0.373   1.954   2.542
18594WAT     H256025   0.483   2.067   2.584
18595WAT      O56026   8.039   8.793   8.188
18595WAT     H156027   8.112   8.846   8.145
18595WAT     H256028   8.034   8.815   8.285
18596WAT      O56029   5.115   0.403   8.785
18596WAT     H156030   5.184   0.465   8.821
18596WAT     H256031   5.071   0.444   8.705
18597WAT      O56032   8.517   2.395   9.715
18597WAT     H156033   8.432   2.343   9.713
18597WAT     H256034   8.523   2.446   9.801
18598WAT      O56035   4.409   9.785   1.830
18598WAT     H156036   4.424   9.721   1.755
18598WAT     H256037   4.450   9.874   1.806
18599WAT      O56038   1.785   7.316   3.284
18599WAT     H156039   1.834   7.242   3.239
18599WAT     H256040   1.837   7.349   3.363
18600WAT      O56041   9.690   6.691   8.644
18600WAT     H156042   9.748   6.617   8.677
18600WAT     H256043   9.743   6.776   8.641
18601WAT      O56044   0.328   5.438   5.922
18601WAT     H156045   0.388   5.510   5.887
18601WAT     H256046   0.258   5.417   5.854
18602WAT      O56047   2.360   8.792   0.553
18602WAT     H156048   2.368   8.878   0.603
18602WAT     H256049   2.295   8.803   0.478
18603WAT      O56050   0.778   4.823   1.468
18603WAT     H156051   0.742   4.744   1.420
18603WAT     H256052   0.704   4.888   1.487
18604WAT      O56053   5.577   1.961   9.280
18604WAT     H156054   5.530   2.049   9.294
18604WAT     H256055   5.516   1.887   9.307
18605WAT      O56056   4.674   5.332   2.211
18605WAT     H156057   4.689   5.234   2.226
18605WAT     H256058   4.734   5.384   2.272
18606WAT      O56059   5.750   7.701   2.495
18606WAT     H156060   5.652   7.717   2.503
18606WAT     H256061   5.796   7.786   2.472
18607WAT      O56062   2.335   7.329   8.293
18607WAT     H156063   2.431   7.342   8.316
18607WAT     H256064   2.278   7.373   8.363
18608WAT      O56065   9.612   3.355   4.738
18608WAT     H156066   9.683   3.310   4.683
18608WAT     H256067   9.544   3.288   4.767
18609WAT      O56068   6.925   9.359   1.961
18609WAT     H156069   6.860   9.333   2.032
18609WAT     H256070   6.875   9.399   1.884
18610WAT      O56071   3.764   1.587   3.949
18610WAT     H156072   3.818   1.518   3.900
18610WAT     H256073   3.812   1.674   3.948
18611WAT      O56074   4.014   2.032   2.129
18611WAT     H156075   4.091   1.968   2.133
18611WAT     H256076   3.945   1.997   2.066
18612WAT      O56077   4.690   7.548   5.420
18612WAT     H156078   4.779   7.565   5.464
18612WAT     H256079   4.703   7.541   5.321
18613WAT      O56080   9.420   9.283   4.013
18613WAT     H156081   9.328   9.313   3.988
18613WAT     H256082   9.417   9.241   4.104
18614WAT      O56083   0.432   5.613   8.216
18614WAT     H156084   0.494   5.656   8.150
18614WAT     H256085   0.405   5.523   8.182
18615WAT      O56086   3.133   4.792   2.338
18615WAT     H156087   3.034   4.777   2.343
18615WAT     H256088   3.153   4.888   2.359
18616WAT      O56089   6.622   2.621   7.155
18616WAT     H156090   6.639   2.535   7.203
18616WAT     H256091   6.656   2.698   7.210
18617WAT      O56092   1.643   4.261   3.223
18617WAT     H156093   1.645   4.353   3.185
18617WAT     H256094   1.552   4.240   3.258
18618WAT      O56095   3.351   8.101   0.907
18618WAT     H156096   3.257   8.133   0.894
18618WAT     H256097   3.404   8.117   0.824
18619WAT      O56098   2.979   0.925   4.229
18619WAT     H156099   2.993   0.997   4.162
18619WAT     H256100   3.008   0.957   4.319
18620WAT      O56101   6.084   2.049   6.020
18620WAT     H156102   6.132   1.972   5.978
18620WAT     H256103   6.004   2.017   6.070
18621WAT      O56104   8.153   4.777   4.879
18621WAT     H156105   8.240   4.737   4.850
18621WAT     H256106   8.096   4.796   4.799
18622WAT      O56107   6.070   4.111   9.327
18622WAT     H156108   6.124   4.152   9.401
18622WAT     H256109   6.028   4.026   9.359
18623WAT      O56110   7.703   9.191   8.872
18623WAT     H156111   7.629   9.135   8.835
18623WAT     H256112   7.683   9.288   8.853
18624WAT      O56113   5.018   3.430   4.325
18624WAT     H156114   5.063   3.489   4.392
18624WAT     H256115   4.941   3.479   4.285
18625WAT      O56116   7.603   4.812   9.395
18625WAT     H156117   7.680   4.841   9.340
18625WAT     H256118   7.626   4.819   9.492
18626WAT      O56119   0.003   8.284   3.942
18626WAT     H156120   0.080   8.347   3.930
18626WAT     H256121  -0.049   8.310   4.023
18627WAT      O56122   3.114   1.463   8.855
18627WAT     H156123   3.141   1.465   8.759
18627WAT     H256124   3.162   1.535   8.905
18628WAT      O56125   3.797   6.689   1.178
18628WAT     H156126   3.762   6.684   1.271
18628WAT     H256127   3.894   6.663   1.177
18629WAT      O56128   5.278   4.720   2.532
18629WAT     H156129   5.241   4.738   2.441
18629WAT     H256130   5.258   4.798   2.592
18630WAT      O56131   6.516   5.367   1.154
18630WAT     H156132   6.605   5.366   1.108
18630WAT     H256133   6.511   5.448   1.214
18631WAT      O56134   7.350   7.352   7.229
18631WAT     H156135   7.366   7.324   7.324
18631WAT     H256136   7.262   7.314   7.198
18632WAT      O56137   6.885   6.848   5.087
18632WAT     H156138   6.793   6.888   5.087
18632WAT     H256139   6.920   6.845   5.180
18633WAT      O56140   2.083   3.932   6.743
18633WAT     H156141   2.018   3.993   6.788
18633WAT     H256142   2.139   3.985   6.679
18634WAT      O56143   1.888   6.573   5.049
18634WAT     H156144   1.833   6.557   5.131
18634WAT     H256145   1.828   6.580   4.969
18635WAT      O56146   9.890   9.627   6.803
18635WAT     H156147   9.846   9.582   6.880
18635WAT     H256148   9.896   9.563   6.726
18636WAT      O56149   6.139   2.484   5.132
18636WAT     H156150   6.140   2.476   5.232
18636WAT     H256151   6.053   2.447   5.096
18637WAT      O56152   0.213   4.888   2.741
18637WAT     H156153   0.291   4.866   2.800
18637WAT     H256154   0.199   4.987   2.739
18638WAT      O56155   9.600   0.020   1.482
18638WAT     H156156   9.546  -0.063   1.486
18638WAT     H256157   9.544   0.095   1.446
18639WAT      O56158   4.010   2.054   1.414
18639WAT     H156159   3.912   2.072   1.401
18639WAT     H256160   4.035   2.073   1.509
18640WAT      O56161   5.734   0.546   0.212
18640WAT     H156162   5.665   0.538   0.284
18640WAT     H256163   5.738   0.640   0.180
18641WAT      O56164   9.028   3.949   4.372
18641WAT     H156165   9.047   3.909   4.461
18641WAT     H256166   9.010   4.046   4.382
18642WAT      O56167   1.673   1.669   2.567
18642WAT     H156168   1.581   1.643   2.539
18642WAT     H256169   1.732   1.674   2.486
18643WAT      O56170   7.547   9.430   3.362
18643WAT     H156171   7.528   9.333   3.349
18643WAT     H256172   7.526   9.456   3.457
18644WAT      O56173   4.040   2.802   3.942
18644WAT     H156174   4.050   2.899   3.923
18644WAT     H256175   4.055   2.785   4.039
18645WAT      O56176   4.924   5.907   4.206
18645WAT     H156177   4.913   6.001   4.174
18645WAT     H256178   4.910   5.844   4.130
18646WAT      O56179   4.885   3.088   0.135
18646WAT     H156180   4.957   3.027   0.168
18646WAT     H256181   4.864   3.067   0.039
18647WAT      O56182   6.636   1.885   2.353
18647WAT     H156183   6.685   1.927   2.429
18647WAT     H256184   6.538   1.906   2.362
18648WAT      O56185   6.211   4.356   1.177
18648WAT     H156186   6.119   4.336   1.142
18648WAT     H256187   6.279   4.325   1.111
18649WAT      O56188   9.022   3.305   2.146
18649WAT     H156189   9.105   3.345   2.106
18649WAT     H256190   8.953   3.376   2.157
18650WAT      O56191   1.042   9.179   3.589
18650WAT     H156192   1.141   9.173   3.581
18650WAT     H256193   1.000   9.096   3.552
18651WAT      O56194   1.888   4.539   1.321
18651WAT     H156195   1.808   4.551   1.263
18651WAT     H256196   1.859   4.531   1.417
18652WAT      O56197   5.898   5.283   9.808
18652WAT     H156198   5.855   5.239   9.887
18652WAT     H256199   5.991   5.310   9.831
18653WAT      O56200   3.338   1.699   4.679
18653WAT     H156201   3.280   1.736   4.606
18653WAT     H256202   3.413   1.762   4.698
18654WAT      O56203   7.520   8.412   6.432
18654WAT     H156204   7.541   8.455   6.521
18654WAT     H256205   7.421   8.410   6.419
18655WAT      O56206   4.871   8.871   1.029
18655WAT     H156207   4.920   8.957   1.034
18655WAT     H256208   4.928   8.802   0.984
18656WAT      O56209   3.040   0.353   2.123
18656WAT     H156210   2.945   0.344   2.151
18656WAT     H256211   3.099   0.305   2.188
18657WAT      O56212   3.392   1.729   1.184
18657WAT     H156213   3.386   1.805   1.119
18657WAT     H256214   3.301   1.690   1.198
18658WAT      O56215   1.837   9.395   1.983
18658WAT     H156216   1.824   9.468   2.050
18658WAT     H256217   1.755   9.337   1.982
18659WAT      O56218   9.007   7.601   2.177
18659WAT     H156219   9.039   7.692   2.202
18659WAT     H256220   8.943   7.608   2.100
18660WAT      O56221   9.708   0.947   8.910
18660WAT     H156222   9.737   0.937   9.005
18660WAT     H256223   9.664   0.863   8.880
18661WAT      O56224   9.841   4.818   7.469
18661WAT     H156225   9.756   4.864   7.493
18661WAT     H256226   9.918   4.866   7.513
18662WAT      O56227   8.830   4.230   3.858
18662WAT     H156228   8.917   4.181   3.854
18662WAT     H256229   8.766   4.179   3.916
18663WAT      O56230   7.919   6.252   3.829
18663WAT     H156231   7.829   6.288   3.803
18663WAT     H256232   7.911   6.155   3.852
18664WAT      O56233   0.346   8.737   4.422
18664WAT     H156234   0.275   8.678   4.383
18664WAT     H256235   0.339   8.828   4.382
18665WAT      O56236   7.396   0.539   9.579
18665WAT     H156237   7.435   0.448   9.589
18665WAT     H256238   7.380   0.559   9.482
18666WAT      O56239   1.788   1.041   5.896
18666WAT     H156240   1.883   1.022   5.923
18666WAT     H256241   1.767   0.992   5.812
18667WAT      O56242   3.894   3.584   3.557
18667WAT     H156243   3.898   3.522   3.478
18667WAT     H256244   3.829   3.549   3.624
18668WAT      O56245   9.102   2.173   4.288
18668WAT     H156246   9.087   2.220   4.376
18668WAT     H256247   9.199   2.159   4.274
18669WAT      O56248   9.613   6.433   6.082
18669WAT     H156249   9.539   6.407   6.020
18669WAT     H256250   9.605   6.380   6.166
18670WAT      O56251   7.311   0.819   4.339
18670WAT     H156252   7.403   0.833   4.376
18670WAT     H256253   7.261   0.905   4.339
18671WAT      O56254   9.583   8.971   3.605
18671WAT     H156255   9.560   9.057   3.650
18671WAT     H256256   9.581   8.897   3.672
18672WAT      O56257   8.943   0.372   4.222
18672WAT     H156258   8.927   0.429   4.142
18672WAT     H256259   8.861   0.317   4.240
18673WAT      O56260   7.725   2.813   9.307
18673WAT     H156261   7.638   2.765   9.305
18673WAT     H256262   7.787   2.774   9.239
18674WAT      O56263   2.749   6.257   4.431
18674WAT     H156264   2.837   6.302   4.411
18674WAT     H256265   2.677   6.326   4.437
18675WAT      O56266   5.660   1.593   0.750
18675WAT     H156267   5.752   1.601   0.788
18675WAT     H256268   5.662   1.534   0.669
18676WAT      O56269   2.179   1.977   9.700
18676WAT     H156270   2.170   1.963   9.799
18676WAT     H256271   2.205   2.071   9.682
18677WAT      O56272   9.369   6.712   6.417
18677WAT     H156273   9.445   6.763   6.377
18677WAT     H256274   9.404   6.650   6.488
18678WAT      O56275   6.208   2.029   3.296
18678WAT     H156276   6.264   2.111   3.299
18678WAT     H256277   6.221   1.976   3.380
18679WAT      O56278   6.061   5.172   2.060
18679WAT     H156279   5.973   5.219   2.068
18679WAT     H256280   6.083   5.126   2.146
18680WAT      O56281   8.295   8.891   2.182
18680WAT     H156282   8.298   8.977   2.232
18680WAT     H256283   8.214   8.839   2.211
18681WAT      O56284   4.438   2.265   5.981
18681WAT     H156285   4.365   2.215   5.933
18681WAT     H256286   4.410   2.360   5.992
18682WAT      O56287   7.529   3.377   6.154
18682WAT     H156288   7.525   3.328   6.241
18682WAT     H256289   7.588   3.326   6.091
18683WAT      O56290   4.982   9.158   8.923
18683WAT     H156291   4.970   9.084   8.989
18683WAT     H256292   4.894   9.201   8.905
18684WAT      O56293   0.730   3.225   5.148
18684WAT     H156294   0.676   3.211   5.231
18684WAT     H256295   0.671   3.217   5.068
18685WAT      O56296   5.072   2.093   2.028
18685WAT     H156297   5.141   2.074   2.098
18685WAT     H256298   4.981   2.089   2.070
18686WAT      O56299   7.886   0.675   6.540
18686WAT     H156300   7.789   0.685   6.562
18686WAT     H256301   7.923   0.764   6.510
18687WAT      O56302   5.448   7.494   8.491
18687WAT     H156303   5.465   7.564   8.421
18687WAT     H256304   5.535   7.454   8.520
18688WAT      O56305   0.658   7.979   7.018
18688WAT     H156306   0.616   8.038   6.949
18688WAT     H256307   0.665   8.029   7.104
18689WAT      O56308   7.469   0.120   8.862
18689WAT     H156309   7.491   0.179   8.784
18689WAT     H256310   7.423   0.038   8.829
18690WAT      O56311   6.822   0.144   3.800
18690WAT     H156312   6.747   0.118   3.740
18690WAT     H256313   6.806   0.234   3.838
18691WAT      O56314   7.571   9.638   0.293
18691WAT     H156315   7.505   9.571   0.329
18691WAT     H256316   7.644   9.591   0.244
18692WAT      O56317   6.244   0.535   1.716
18692WAT     H156318   6.308   0.607   1.746
18692WAT     H256319   6.179   0.517   1.790
18693WAT      O56320   8.353   8.218   5.317
18693WAT     H156321   8.263   8.182   5.293
18693WAT     H256322   8.421   8.184   5.252
18694WAT      O56323   4.345   4.077   4.914
18694WAT     H156324   4.331   3.979   4.919
18694WAT     H256325   4.367   4.113   5.004
18695WAT      O56326   6.438   7.379   2.942
18695WAT     H156327   6.415   7.305   2.879
18695WAT     H256328   6.432   7.346   3.036
18696WAT      O56329   2.959   0.457   1.861
18696WAT     H156330   3.010   0.410   1.933
18696WAT     H256331   2.870   0.487   1.897
18697WAT      O56332   7.384   5.142   1.616
18697WAT     H156333   7.355   5.046   1.609
18697WAT     H256334   7.339   5.184   1.695
18698WAT      O56335   0.613   1.599   6.421
18698WAT     H156336   0.662   1.543   6.354
18698WAT     H256337   0.523   1.622   6.385
18699WAT      O56338   2.474   7.928   0.999
18699WAT     H156339   2.444   7.863   1.069
18699WAT     H256340   2.415   8.009   1.002
18700WAT      O56341   0.022   8.810   8.656
18700WAT     H156342   0.036   8.712   8.642
18700WAT     H256343   0.089   8.844   8.721
18701WAT      O56344   3.405   5.205   7.414
18701WAT     H156345   3.489   5.247   7.380
18701WAT     H256346   3.327   5.262   7.390
18702WAT      O56347   5.709   2.763   7.283
18702WAT     H156348   5.681   2.816   7.203
18702WAT     H256349   5.807   2.744   7.279
18703WAT      O56350   3.227   6.728   4.363
18703WAT     H156351   3.310   6.673   4.354
18703WAT     H256352   3.159   6.696   4.298
18704WAT      O56353   2.972   4.938   6.788
18704WAT     H156354   2.897   4.996   6.821
18704WAT     H256355   2.941   4.843   6.788
18705WAT      O56356   3.706   0.359   5.739
18705WAT     H156357   3.760   0.426   5.791
18705WAT     H256358   3.670   0.290   5.802
18706WAT      O56359   9.283   2.066   3.625
18706WAT     H156360   9.273   2.008   3.706
18706WAT     H256361   9.227   2.149   3.636
18707WAT      O56362   9.497   9.446   5.969
18707WAT     H156363   9.482   9.381   5.895
18707WAT     H256364   9.569   9.412   6.030
18708WAT      O56365   7.173   3.240   1.681
18708WAT     H156366   7.108   3.164   1.679
18708WAT     H256367   7.257   3.213   1.634
18709WAT      O56368   8.200   8.779   4.652
18709WAT     H156369   8.279   8.812   4.704
18709WAT     H256370   8.130   8.850   4.648
18710WAT      O56371   3.052   5.140   4.070
18710WAT     H156372   3.052   5.045   4.099
18710WAT     H256373   2.993   5.193   4.131
18711WAT      O56374   2.754   5.178   8.728
18711WAT     H156375   2.712   5.190   8.818
18711WAT     H256376   2.779   5.267   8.691
18712WAT      O56377   3.679   9.836   6.972
18712WAT     H156378   3.627   9.853   6.888
18712WAT     H256379   3.766   9.884   6.968
18713WAT      O56380   7.778   7.717   2.457
18713WAT     H156381   7.738   7.694   2.545
18713WAT     H256382   7.853   7.783   2.470
18714WAT      O56383   0.201   1.586   8.643
18714WAT     H156384   0.189   1.548   8.551
18714WAT     H256385   0.220   1.684   8.636
18715WAT      O56386   6.431   0.649   5.697
18715WAT     H156387   6.401   0.720   5.633
18715WAT     H256388   6.418   0.681   5.791
18716WAT      O56389   8.434   8.031   0.760
18716WAT     H156390   8.519   8.080   0.740
18716WAT     H256391   8.424   7.955   0.696
18717WAT      O56392   8.622   1.415   0.916
18717WAT     H156393   8.586   1.505   0.939
18717WAT     H256394   8.579   1.383   0.831
18718WAT      O56395   2.022   2.842   2.686
18718WAT     H156396   1.963   2.858   2.607
18718WAT     H256397   2.063   2.751   2.679
18719WAT      O56398   2.082   9.787   3.388
18719WAT     H156399   2.030   9.706   3.416
18719WAT     H256400   2.086   9.853   3.463
18720WAT      O56401   0.913   3.158   8.835
18720WAT     H156402   0.889   3.236   8.777
18720WAT     H256403   0.947   3.191   8.923
18721WAT      O56404   8.382   7.471   9.701
18721WAT     H156405   8.402   7.568   9.712
18721WAT     H256406   8.401   7.444   9.606
18722WAT      O56407   5.143   7.793   4.557
18722WAT     H156408   5.242   7.805   4.563
18722WAT     H256409   5.108   7.755   4.643
18723WAT      O56410   0.346   0.761   1.122
18723WAT     H156411   0.409   0.715   1.061
18723WAT     H256412   0.379   0.754   1.216
18724WAT      O56413   8.721   6.685   7.482
18724WAT     H156414   8.781   6.760   7.509
18724WAT     H256415   8.626   6.708   7.503
18725WAT      O56416   2.142   5.634   0.184
18725WAT     H156417   2.121   5.645   0.086
18725WAT     H256418   2.062   5.596   0.231
18726WAT      O56419   3.695   1.081   8.198
18726WAT     H156420   3.711   1.177   8.221
18726WAT     H256421   3.688   1.027   8.282
18727WAT      O56422   7.698   4.533   7.303
18727WAT     H156423   7.701   4.625   7.262
18727WAT     H256424   7.615   4.524   7.359
18728WAT      O56425   3.904   7.870   2.602
18728WAT     H156426   3.834   7.858   2.532
18728WAT     H256427   3.861   7.872   2.692
18729WAT      O56428   3.657   7.873   5.774
18729WAT     H156429   3.634   7.949   5.713
18729WAT     H256430   3.741   7.894   5.823
18730WAT      O56431   3.771   0.795   5.024
18730WAT     H156432   3.786   0.802   5.122
18730WAT     H256433   3.808   0.708   4.991
18731WAT      O56434   2.283   6.922   6.638
18731WAT     H156435   2.316   6.953   6.727
18731WAT     H256436   2.202   6.864   6.651
18732WAT      O56437   8.853   7.293   5.398
18732WAT     H156438   8.785   7.220   5.392
18732WAT     H256439   8.842   7.342   5.484
18733WAT      O56440   4.820   1.485   2.550
18733WAT     H156441   4.862   1.572   2.525
18733WAT     H256442   4.733   1.502   2.596
18734WAT      O56443   0.531   3.712   0.134
18734WAT     H156444   0.590   3.792   0.133
18734WAT     H256445   0.551   3.655   0.214
18735WAT      O56446   6.616   7.087   8.875
18735WAT     H156447   6.576   7.166   8.922
18735WAT     H256448   6.607   7.006   8.933
18736WAT      O56449   1.454   4.484   1.782
18736WAT     H156450   1.361   4.467   1.815
18736WAT     H256451   1.463   4.581   1.758
18737WAT      O56452   3.128   5.677   1.009
18737WAT     H156453   3.115   5.776   0.999
18737WAT     H256454   3.060   5.629   0.954
18738WAT      O56455   4.686   6.717   7.444
18738WAT     H156456   4.684   6.807   7.488
18738WAT     H256457   4.619   6.657   7.487
18739WAT      O56458   0.994   6.575   9.224
18739WAT     H156459   0.943   6.515   9.286
18739WAT     H256460   0.950   6.665   9.221
18740WAT      O56461   7.094   0.306   3.105
18740WAT     H156462   6.994   0.309   3.113
18740WAT     H256463   7.120   0.237   3.038
18741WAT      O56464   6.628   0.100   6.023
18741WAT     H156465   6.680   0.088   6.107
18741WAT     H256466   6.606   0.197   6.010
18742WAT      O56467   4.055   3.643   2.587
18742WAT     H156468   3.978   3.654   2.524
18742WAT     H256469   4.135   3.611   2.537
18743WAT      O56470   8.494   2.407   3.624
18743WAT     H156471   8.494   2.446   3.716
18743WAT     H256472   8.510   2.308   3.630
18744WAT      O56473   2.071   8.687   9.117
18744WAT     H156474   1.973   8.668   9.103
18744WAT     H256475   2.081   8.778   9.157
18745WAT      O56476   4.496   1.986   5.370
18745WAT     H156477   4.512   1.966   5.466
18745WAT     H256478   4.417   1.935   5.338
18746WAT      O56479   3.254   4.562   1.993
18746WAT     H156480   3.264   4.504   1.912
18746WAT     H256481   3.167   4.611   1.989
18747WAT      O56482   4.437   5.534   9.885
18747WAT     H156483   4.372   5.475   9.838
18747WAT     H256484   4.400   5.626   9.892
18748WAT      O56485   7.816   9.434   5.635
18748WAT     H156486   7.743   9.502   5.624
18748WAT     H256487   7.784   9.346   5.600
18749WAT      O56488   3.031   1.087   3.288
18749WAT     H156489   3.117   1.119   3.248
18749WAT     H256490   3.013   0.993   3.257
18750WAT      O56491   4.781   8.549   0.537
18750WAT     H156492   4.815   8.636   0.501
18750WAT     H256493   4.791   8.548   0.636
18751WAT      O56494   5.097   9.299   4.298
18751WAT     H156495   5.146   9.382   4.327
18751WAT     H256496   5.156   9.244   4.239
18752WAT      O56497   7.712   6.144   4.106
18752WAT     H156498   7.735   6.087   4.185
18752WAT     H256499   7.743   6.238   4.122
18753WAT      O56500   8.390   1.586   4.230
18753WAT     H156501   8.328   1.627   4.297
18753WAT     H256502   8.368   1.623   4.139
18754WAT      O56503   2.641   6.524   8.932
18754WAT     H156504   2.712   6.459   8.960
18754WAT     H256505   2.551   6.487   8.956
18755WAT      O56506   5.708   1.251   4.300
18755WAT     H156507   5.729   1.302   4.383
18755WAT     H256508   5.773   1.275   4.228
18756WAT      O56509   9.089   8.529   2.793
18756WAT     H156510   9.085   8.614   2.741
18756WAT     H256511   9.017   8.467   2.763
18757WAT      O56512   6.928   6.577   2.368
18757WAT     H156513   6.987   6.585   2.288
18757WAT     H256514   6.952   6.494   2.419
18758WAT      O56515   8.910   1.926   3.791
18758WAT     H156516   8.952   1.920   3.881
18758WAT     H256517   8.874   2.018   3.777
18759WAT      O56518   1.728   3.185   6.004
18759WAT     H156519   1.822   3.178   5.971
18759WAT     H256520   1.712   3.115   6.073
18760WAT      O56521   6.948   6.066   0.347
18760WAT     H156522   7.045   6.050   0.366
18760WAT     H256523   6.893   6.017   0.415
18761WAT      O56524   8.991   9.673   3.706
18761WAT     H156525   8.998   9.580   3.669
18761WAT     H256526   9.062   9.686   3.775
18762WAT      O56527   3.136   4.735   1.680
18762WAT     H156528   3.184   4.709   1.764
18762WAT     H256529   3.070   4.808   1.700
18763WAT      O56530   8.711   2.290   7.112
18763WAT     H156531   8.680   2.195   7.111
18763WAT     H256532   8.664   2.341   7.040
18764WAT      O56533   6.632   1.842   4.560
18764WAT     H156534   6.549   1.823   4.506
18764WAT     H256535   6.702   1.774   4.537
18765WAT      O56536   3.746   1.659   1.692
18765WAT     H156537   3.680   1.623   1.625
18765WAT     H256538   3.713   1.639   1.784
18766WAT      O56539   1.154   0.375   3.837
18766WAT     H156540   1.136   0.445   3.769
18766WAT     H256541   1.233   0.320   3.809
18767WAT      O56542   9.240   0.337   3.515
18767WAT     H156543   9.199   0.276   3.448
18767WAT     H256544   9.301   0.285   3.575
18768WAT      O56545   1.959   9.565   2.342
18768WAT     H156546   1.917   9.594   2.256
18768WAT     H256547   1.939   9.468   2.357
18769WAT      O56548   9.424   8.156   9.781
18769WAT     H156549   9.392   8.177   9.688
18769WAT     H256550   9.488   8.227   9.811
18770WAT      O56551   7.790   3.143   1.908
18770WAT     H156552   7.695   3.166   1.887
18770WAT     H256553   7.796   3.110   2.002
18771WAT      O56554   8.939   0.397   1.512
18771WAT     H156555   9.003   0.473   1.503
18771WAT     H256556   8.861   0.412   1.452
18772WAT      O56557   2.083   9.302   7.094
18772WAT     H156558   2.072   9.334   7.000
18772WAT     H256559   1.995   9.271   7.130
18773WAT      O56560   6.302   9.321   5.760
18773WAT     H156561   6.317   9.417   5.781
18773WAT     H256562   6.308   9.267   5.845
18774WAT      O56563   6.623   1.017   1.647
18774WAT     H156564   6.668   1.071   1.719
18774WAT     H256565   6.670   1.031   1.560
18775WAT      O56566   2.708   1.132   1.084
18775WAT     H156567   2.735   1.142   0.988
18775WAT     H256568   2.625   1.185   1.101
18776WAT      O56569   2.494   7.672   3.797
18776WAT     H156570   2.456   7.588   3.836
18776WAT     H256571   2.460   7.751   3.850
18777WAT      O56572   6.368   3.341   0.466
18777WAT     H156573   6.394   3.372   0.375
18777WAT     H256574   6.290   3.278   0.458
18778WAT      O56575   0.032   6.508   9.492
18778WAT     H156576   0.045   6.517   9.590
18778WAT     H256577   0.005   6.414   9.470
18779WAT      O56578   4.593   2.395   3.905
18779WAT     H156579   4.552   2.480   3.939
18779WAT     H256580   4.645   2.413   3.822
18780WAT      O56581   7.994   6.447   6.233
18780WAT     H156582   7.904   6.477   6.201
18780WAT     H256583   7.997   6.347   6.236
18781WAT      O56584   9.213   8.470   1.117
18781WAT     H156585   9.199   8.479   1.019
18781WAT     H256586   9.168   8.387   1.150
18782WAT      O56587   4.559   1.775   0.154
18782WAT     H156588   4.621   1.824   0.092
18782WAT     H256589   4.546   1.682   0.121
18783WAT      O56590   0.851   7.567   0.920
18783WAT     H156591   0.792   7.486   0.917
18783WAT     H256592   0.926   7.552   0.985
18784WAT      O56593   4.143   4.264   6.980
18784WAT     H156594   4.242   4.265   6.962
18784WAT     H256595   4.096   4.316   6.908
18785WAT      O56596   4.681   0.417   7.331
18785WAT     H156597   4.723   0.392   7.244
18785WAT     H256598   4.719   0.504   7.363
18786WAT      O56599   3.503   7.906   1.802
18786WAT     H156600   3.528   7.859   1.717
18786WAT     H256601   3.471   7.840   1.869
18787WAT      O56602   9.039   4.160   1.802
18787WAT     H156603   9.093   4.120   1.876
18787WAT     H256604   9.012   4.088   1.738
18788WAT      O56605   2.583   9.168   2.510
18788WAT     H156606   2.604   9.229   2.434
18788WAT     H256607   2.624   9.078   2.492
18789WAT      O56608   6.122   5.489   0.318
18789WAT     H156609   6.178   5.565   0.352
18789WAT     H256610   6.071   5.518   0.237
18790WAT      O56611   9.629   3.963   7.590
18790WAT     H156612   9.542   4.007   7.569
18790WAT     H256613   9.630   3.936   7.687
18791WAT      O56614   4.815   6.263   0.469
18791WAT     H156615   4.862   6.312   0.543
18791WAT     H256616   4.723   6.301   0.458
18792WAT      O56617   0.836   5.128   1.756
18792WAT     H156618   0.850   5.221   1.790
18792WAT     H256619   0.917   5.073   1.778
18793WAT      O56620   5.665   9.164   3.776
18793WAT     H156621   5.759   9.134   3.758
18793WAT     H256622   5.649   9.251   3.729
18794WAT      O56623   2.902   8.947   3.809
18794WAT     H156624   2.992   8.933   3.850
18794WAT     H256625   2.848   8.863   3.815
18795WAT      O56626   3.771   7.294   2.969
18795WAT     H156627   3.841   7.285   2.898
18795WAT     H256628   3.772   7.213   3.026
18796WAT      O56629   9.437   9.606   2.852
18796WAT     H156630   9.443   9.508   2.831
18796WAT     H256631   9.369   9.649   2.792
18797WAT      O56632   5.444   8.728   5.373
18797WAT     H156633   5.386   8.712   5.453
18797WAT     H256634   5.426   8.819   5.336
18798WAT      O56635   8.625   3.017   0.417
18798WAT     H156636   8.675   3.098   0.447
18798WAT     H256637   8.681   2.967   0.351
18799WAT      O56638   2.321   1.902   8.716
18799WAT     H156639   2.383   1.930   8.643
18799WAT     H256640   2.231   1.882   8.678
18800WAT      O56641   7.174   3.473   1.092
18800WAT     H156642   7.145   3.377   1.101
18800WAT     H256643   7.094   3.532   1.088
18801WAT      O56644   0.175   5.460   6.584
18801WAT     H156645   0.111   5.402   6.533
18801WAT     H256646   0.208   5.533   6.524
18802WAT      O56647   5.034   3.724   2.956
18802WAT     H156648   4.961   3.771   3.006
18802WAT     H256649   5.101   3.688   3.020
18803WAT      O56650   1.382   0.763   5.244
18803WAT     H156651   1.395   0.726   5.152
18803WAT     H256652   1.285   0.773   5.263
18804WAT      O56653   9.726   2.842   6.384
18804WAT     H156654   9.729   2.847   6.284
18804WAT     H256655   9.653   2.779   6.412
18805WAT      O56656   4.850   5.295   8.924
18805WAT     H156657   4.753   5.319   8.913
18805WAT     H256658   4.906   5.373   8.896
18806WAT      O56659   1.446   6.939   8.395
18806WAT     H156660   1.539   6.976   8.397
18806WAT     H256661   1.387   7.000   8.343
18807WAT      O56662   9.133   2.144   7.868
18807WAT     H156663   9.115   2.187   7.780
18807WAT     H256664   9.232   2.134   7.881
18808WAT      O56665   8.598   3.025   3.027
18808WAT     H156666   8.641   3.060   3.110
18808WAT     H256667   8.622   2.929   3.015
18809WAT      O56668   6.037   0.686   2.454
18809WAT     H156669   5.986   0.607   2.485
18809WAT     H256670   6.133   0.661   2.439
18810WAT      O56671   5.090   4.694   9.626
18810WAT     H156672   5.036   4.693   9.710
18810WAT     H256673   5.183   4.663   9.645
18811WAT      O56674   5.863   8.609   8.464
18811WAT     H156675   5.792   8.641   8.527
18811WAT     H256676   5.826   8.537   8.405
18812WAT      O56677   8.348   4.757   5.994
18812WAT     H156678   8.435   4.731   6.036
18812WAT     H256679   8.299   4.675   5.964
18813WAT      O56680   8.620   0.309   5.255
18813WAT     H156681   8.669   0.395   5.266
18813WAT     H256682   8.684   0.232   5.261
18814WAT      O56683   8.564   2.856   6.702
18814WAT     H156684   8.608   2.939   6.670
18814WAT     H256685   8.614   2.819   6.781
18815WAT      O56686   0.670   0.531   4.876
18815WAT     H156687   0.680   0.630   4.884
18815WAT     H256688   0.728   0.485   4.943
18816WAT      O56689   3.209   7.744   2.600
18816WAT     H156690   3.207   7.661   2.656
18816WAT     H256691   3.239   7.821   2.656
18817WAT      O56692   9.885   0.954   1.423
18817WAT     H156693   9.973   0.978   1.382
18817WAT     H256694   9.825   0.916   1.352
18818WAT      O56695   3.203   5.066   6.850
18818WAT     H156696   3.122   5.015   6.820
18818WAT     H256697   3.271   5.001   6.885
18819WAT      O56698   4.502   1.513   8.325
18819WAT     H156699   4.406   1.540   8.334
18819WAT     H256700   4.509   1.431   8.270
18820WAT      O56701   3.059   1.401   0.092
18820WAT     H156702   3.032   1.310   0.062
18820WAT     H256703   3.154   1.418   0.068
18821WAT      O56704   3.195   7.091   0.257
18821WAT     H156705   3.120   7.028   0.277
18821WAT     H256706   3.226   7.135   0.342
18822WAT      O56707   0.920   1.342   4.930
18822WAT     H156708   0.828   1.380   4.924
18822WAT     H256709   0.950   1.342   5.025
18823WAT      O56710   1.751   3.322   5.298
18823WAT     H156711   1.797   3.410   5.308
18823WAT     H256712   1.813   3.248   5.323
18824WAT      O56713   7.873   2.563   2.457
18824WAT     H156714   7.885   2.491   2.389
18824WAT     H256715   7.946   2.559   2.525
18825WAT      O56716   3.872   3.087   9.334
18825WAT     H156717   3.854   3.182   9.309
18825WAT     H256718   3.790   3.048   9.376
18826WAT      O56719   0.472   1.500   2.516
18826WAT     H156720   0.428   1.464   2.434
18826WAT     H256721   0.559   1.542   2.491
18827WAT      O56722   3.678   4.287   7.212
18827WAT     H156723   3.661   4.275   7.310
18827WAT     H256724   3.772   4.321   7.198
18828WAT      O56725   9.598   4.093   2.891
18828WAT     H156726   9.676   4.135   2.939
18828WAT     H256727   9.629   4.062   2.801
18829WAT      O56728   1.250   1.892   7.248
18829WAT     H156729   1.308   1.960   7.203
18829WAT     H256730   1.303   1.809   7.264
18830WAT      O56731   9.815   3.945   4.556
18830WAT     H156732   9.759   3.889   4.495
18830WAT     H256733   9.871   3.887   4.614
18831WAT      O56734   9.731   7.525   3.851
18831WAT     H156735   9.736   7.616   3.809
18831WAT     H256736   9.672   7.528   3.932
18832WAT      O56737   6.975   5.271   5.166
18832WAT     H156738   7.034   5.345   5.134
18832WAT     H256739   6.934   5.295   5.253
18833WAT      O56740   8.906   0.257   6.665
18833WAT     H156741   8.916   0.258   6.565
18833WAT     H256742   8.940   0.170   6.701
18834WAT      O56743   0.405   5.397   0.740
18834WAT     H156744   0.469   5.442   0.677
18834WAT     H256745   0.398   5.451   0.824
18835WAT      O56746   4.094   7.620   2.289
18835WAT     H156747   4.187   7.639   2.257
18835WAT     H256748   4.081   7.521   2.296
18836WAT      O56749   0.683   1.686   8.994
18836WAT     H156750   0.721   1.722   8.908
18836WAT     H256751   0.746   1.618   9.032
18837WAT      O56752   7.453   8.380   5.420
18837WAT     H156753   7.385   8.313   5.391
18837WAT     H256754   7.510   8.340   5.493
18838WAT      O56755   1.171   7.733   2.530
18838WAT     H156756   1.154   7.801   2.459
18838WAT     H256757   1.196   7.780   2.615
18839WAT      O56758   3.780   3.575   0.690
18839WAT     H156759   3.797   3.496   0.632
18839WAT     H256760   3.814   3.658   0.646
18840WAT      O56761   6.365   9.059   0.727
18840WAT     H156762   6.307   9.115   0.666
18840WAT     H256763   6.459   9.091   0.721
18841WAT      O56764   3.465   4.837   3.858
18841WAT     H156765   3.563   4.849   3.865
18841WAT     H256766   3.445   4.753   3.807
18842WAT      O56767   0.111   6.447   5.732
18842WAT     H156768   0.204   6.410   5.739
18842WAT     H256769   0.061   6.429   5.816
18843WAT      O56770   8.001   8.016   4.067
18843WAT     H156771   7.950   8.070   4.135
18843WAT     H256772   8.096   8.046   4.065
18844WAT      O56773   3.067   9.435   1.469
18844WAT     H156774   3.020   9.515   1.433
18844WAT     H256775   3.076   9.444   1.569
18845WAT      O56776   8.249   0.297   9.055
18845WAT     H156777   8.246   0.269   9.152
18845WAT     H256778   8.163   0.341   9.031
18846WAT      O56779   0.100   5.094   4.807
18846WAT     H156780   0.127   5.061   4.717
18846WAT     H256781   0.026   5.037   4.843
18847WAT      O56782   6.121   1.273   8.300
18847WAT     H156783   6.181   1.273   8.220
18847WAT     H256784   6.053   1.200   8.291
18848WAT      O56785   7.105   9.718   8.640
18848WAT     H156786   7.088   9.664   8.557
18848WAT     H256787   7.187   9.683   8.685
18849WAT      O56788   7.807   7.601   5.666
18849WAT     H156789   7.812   7.556   5.755
18849WAT     H256790   7.890   7.581   5.614
18850WAT      O56791   8.812   0.330   0.475
18850WAT     H156792   8.826   0.380   0.389
18850WAT     H256793   8.761   0.388   0.539
18851WAT      O56794   0.443   7.193   8.996
18851WAT     H156795   0.435   7.194   8.897
18851WAT     H256796   0.388   7.268   9.034
18852WAT      O56797   5.904   2.891   5.463
18852WAT     H156798   5.984   2.876   5.522
18852WAT     H256799   5.905   2.825   5.388
18853WAT      O56800   1.806   3.555   4.697
18853WAT     H156801   1.768   3.565   4.605
18853WAT     H256802   1.734   3.528   4.761
18854WAT      O56803   0.056   4.019   3.280
18854WAT     H156804   0.106   3.986   3.201
18854WAT     H256805  -0.031   3.971   3.287
18855WAT      O56806   5.861   6.949   1.573
18855WAT     H156807   5.939   6.891   1.599
18855WAT     H256808   5.855   6.954   1.473
18856WAT      O56809   5.634   1.612   2.194
18856WAT     H156810   5.713   1.663   2.161
18856WAT     H256811   5.629   1.523   2.148
18857WAT      O56812   1.602   4.134   1.399
18857WAT     H156813   1.584   4.196   1.476
18857WAT     H256814   1.688   4.159   1.356
18858WAT      O56815   0.498   8.911   0.837
18858WAT     H156816   0.421   8.958   0.880
18858WAT     H256817   0.484   8.812   0.843
18859WAT      O56818   9.829   4.642   0.826
18859WAT     H156819   9.868   4.711   0.765
18859WAT     H256820   9.891   4.563   0.831
18860WAT      O56821   9.564   2.892   5.267
18860WAT     H156822   9.469   2.901   5.240
18860WAT     H256823   9.621   2.954   5.212
18861WAT      O56824   4.807   8.821   6.724
18861WAT     H156825   4.708   8.806   6.720
18861WAT     H256826   4.830   8.905   6.675
18862WAT      O56827   9.389   6.502   3.375
18862WAT     H156828   9.320   6.566   3.411
18862WAT     H256829   9.416   6.439   3.448
18863WAT      O56830   0.320   2.943   4.321
18863WAT     H156831   0.332   3.036   4.355
18863WAT     H256832   0.285   2.946   4.227
18864WAT      O56833   4.584   0.137   8.104
18864WAT     H156834   4.559   0.181   8.018
18864WAT     H256835   4.683   0.126   8.109
18865WAT      O56836   9.473   9.675   9.325
18865WAT     H156837   9.497   9.767   9.356
18865WAT     H256838   9.374   9.670   9.310
18866WAT      O56839   0.731   9.405   5.035
18866WAT     H156840   0.675   9.350   4.974
18866WAT     H256841   0.725   9.501   5.008
18867WAT      O56842   0.594   0.990   8.600
18867WAT     H156843   0.540   1.074   8.604
18867WAT     H256844   0.558   0.924   8.666
18868WAT      O56845   9.690   5.849   3.899
18868WAT     H156846   9.668   5.918   3.967
18868WAT     H256847   9.607   5.820   3.852
18869WAT      O56848   5.465   3.048   7.489
18869WAT     H156849   5.422   3.013   7.406
18869WAT     H256850   5.543   2.991   7.513
18870WAT      O56851   6.367   5.694   4.411
18870WAT     H156852   6.378   5.778   4.358
18870WAT     H256853   6.296   5.637   4.370
18871WAT      O56854   6.307   2.473   6.165
18871WAT     H156855   6.294   2.376   6.186
18871WAT     H256856   6.228   2.507   6.114
18872WAT      O56857   8.512   0.776   4.169
18872WAT     H156858   8.600   0.745   4.206
18872WAT     H256859   8.452   0.697   4.154
18873WAT      O56860   5.294   8.585   0.981
18873WAT     H156861   5.244   8.587   0.895
18873WAT     H256862   5.234   8.552   1.054
18874WAT      O56863   1.291   9.180   9.670
18874WAT     H156864   1.363   9.116   9.642
18874WAT     H256865   1.208   9.130   9.692
18875WAT      O56866   8.243   2.855   3.962
18875WAT     H156867   8.327   2.857   4.016
18875WAT     H256868   8.182   2.784   3.998
18876WAT      O56869   6.020   2.406   0.943
18876WAT     H156870   6.014   2.490   0.997
18876WAT     H256871   6.110   2.400   0.900
18877WAT      O56872   7.413   6.481   3.436
18877WAT     H156873   7.326   6.504   3.480
18877WAT     H256874   7.479   6.453   3.506
18878WAT      O56875   6.240   7.397   9.882
18878WAT     H156876   6.160   7.365   9.932
18878WAT     H256877   6.222   7.395   9.784
18879WAT      O56878   6.540   3.341   8.392
18879WAT     H156879   6.506   3.435   8.400
18879WAT     H256880   6.588   3.331   8.305
18880WAT      O56881   4.627   4.209   6.457
18880WAT     H156882   4.654   4.295   6.415
18880WAT     H256883   4.708   4.156   6.482
18881WAT      O56884   7.439   3.616   5.454
18881WAT     H156885   7.528   3.573   5.465
18881WAT     H256886   7.412   3.658   5.541
18882WAT      O56887   2.124   6.461   4.219
18882WAT     H156888   2.146   6.386   4.156
18882WAT     H256889   2.100   6.542   4.166
18883WAT      O56890   0.869   8.511   2.032
18883WAT     H156891   0.856   8.599   2.077
18883WAT     H256892   0.825   8.439   2.085
18884WAT      O56893   7.178   3.486   3.812
18884WAT     H156894   7.194   3.480   3.714
18884WAT     H256895   7.135   3.574   3.835
18885WAT      O56896   6.800   3.865   5.007
18885WAT     H156897   6.881   3.851   5.064
18885WAT     H256898   6.789   3.963   4.990
18886WAT      O56899   9.366   0.893   7.839
18886WAT     H156900   9.386   0.931   7.929
18886WAT     H256901   9.436   0.921   7.774
18887WAT      O56902   9.839   0.655   0.624
18887WAT     H156903   9.838   0.732   0.560
18887WAT     H256904   9.748   0.614   0.629
18888WAT      O56905   9.593   3.577   0.054
18888WAT     H156906   9.595   3.674   0.029
18888WAT     H256907   9.550   3.567   0.143
18889WAT      O56908   2.666   1.785   7.993
18889WAT     H156909   2.672   1.792   8.093
18889WAT     H256910   2.723   1.710   7.961
18890WAT      O56911   9.015   9.473   6.425
18890WAT     H156912   9.078   9.439   6.356
18890WAT     H256913   9.067   9.514   6.500
18891WAT      O56914   7.432   0.544   3.874
18891WAT     H156915   7.405   0.620   3.934
18891WAT     H256916   7.392   0.459   3.908
18892WAT      O56917   1.630   3.381   8.802
18892WAT     H156918   1.729   3.379   8.813
18892WAT     H256919   1.594   3.287   8.802
18893WAT      O56920   9.185   9.468   5.241
18893WAT     H156921   9.268   9.481   5.188
18893WAT     H256922   9.209   9.453   5.337
18894WAT      O56923   7.741   2.141   8.913
18894WAT     H156924   7.656   2.194   8.904
18894WAT     H256925   7.768   2.138   9.009
18895WAT      O56926   2.323   2.332   6.116
18895WAT     H156927   2.316   2.369   6.208
18895WAT     H256928   2.232   2.329   6.074
18896WAT      O56929   2.993   3.454   0.980
18896WAT     H156930   2.895   3.433   0.983
18896WAT     H256931   3.028   3.432   0.889
18897WAT      O56932   0.627   3.917   1.874
18897WAT     H156933   0.633   3.959   1.784
18897WAT     H256934   0.533   3.923   1.908
18898WAT      O56935   7.518   0.944   5.907
18898WAT     H156936   7.441   0.886   5.878
18898WAT     H256937   7.541   1.007   5.833
18899WAT      O56938   5.355   0.323   3.869
18899WAT     H156939   5.438   0.269   3.854
18899WAT     H256940   5.287   0.300   3.799
18900WAT      O56941   2.663   3.953   9.039
18900WAT     H156942   2.656   4.052   9.025
18900WAT     H256943   2.707   3.936   9.127
18901WAT      O56944   3.627   4.262   7.472
18901WAT     H156945   3.715   4.236   7.512
18901WAT     H256946   3.554   4.206   7.511
18902WAT      O56947   8.178   7.672   5.998
18902WAT     H156948   8.161   7.594   5.937
18902WAT     H256949   8.259   7.653   6.054
18903WAT      O56950   9.551   6.332   6.669
18903WAT     H156951   9.638   6.283   6.660
18903WAT     H256952   9.475   6.269   6.658
18904WAT      O56953   3.272   5.685   8.230
18904WAT     H156954   3.368   5.712   8.233
18904WAT     H256955   3.255   5.614   8.298
18905WAT      O56956   1.316   7.495   1.380
18905WAT     H156957   1.224   7.466   1.408
18905WAT     H256958   1.313   7.591   1.352
18906WAT      O56959   2.129   1.969   7.394
18906WAT     H156960   2.193   1.892   7.392
18906WAT     H256961   2.139   2.018   7.480
18907WAT      O56962   6.224   3.620   0.865
18907WAT     H156963   6.251   3.534   0.821
18907WAT     H256964   6.136   3.607   0.910
18908WAT      O56965   8.487   4.145   8.300
18908WAT     H156966   8.547   4.069   8.276
18908WAT     H256967   8.514   4.226   8.248
18909WAT      O56968   7.205   9.347   9.568
18909WAT     H156969   7.211   9.255   9.607
18909WAT     H256970   7.189   9.341   9.470
18910WAT      O56971   5.523   8.393   3.455
18910WAT     H156972   5.470   8.478   3.454
18910WAT     H256973   5.472   8.322   3.503
18911WAT      O56974   6.238   1.409   4.417
18911WAT     H156975   6.165   1.471   4.445
18911WAT     H256976   6.288   1.377   4.498
18912WAT      O56977   0.622   5.337   6.810
18912WAT     H156978   0.689   5.270   6.777
18912WAT     H256979   0.537   5.290   6.834
18913WAT      O56980   3.482   8.798   9.237
18913WAT     H156981   3.386   8.792   9.210
18913WAT     H256982   3.495   8.747   9.322
18914WAT      O56983   0.162   1.239   0.019
18914WAT     H156984   0.175   1.307   0.091
18914WAT     H256985   0.249   1.219  -0.025
18915WAT      O56986   6.902   8.074   3.762
18915WAT     H156987   6.844   8.088   3.843
18915WAT     H256988   6.881   7.984   3.722
18916WAT      O56989   2.539   0.856   9.260
18916WAT     H156990   2.539   0.767   9.307
18916WAT     H256991   2.469   0.856   9.189
18917WAT      O56992   6.376   5.090   6.927
18917WAT     H156993   6.306   5.050   6.987
18917WAT     H256994   6.456   5.115   6.981
18918WAT      O56995   5.077   5.302   7.732
18918WAT     H156996   5.159   5.266   7.776
18918WAT     H256997   5.041   5.234   7.668
18919WAT      O56998   7.713   9.779   4.181
18919WAT     H156999   7.775   9.781   4.259
18919WAT     H257000   7.620   9.800   4.211
18920WAT      O57001   3.465   2.631   4.333
18920WAT     H157002   3.379   2.580   4.339
18920WAT     H257003   3.542   2.567   4.328
18921WAT      O57004   5.361   1.881   5.145
18921WAT     H157005   5.292   1.812   5.123
18921WAT     H257006   5.421   1.846   5.217
18922WAT      O57007   9.453   8.838   4.818
18922WAT     H157008   9.467   8.798   4.727
18922WAT     H257009   9.355   8.843   4.838
18923WAT      O57010   9.257   4.458   8.128
18923WAT     H157011   9.349   4.467   8.164
18923WAT     H257012   9.247   4.369   8.083
18924WAT      O57013   9.029   4.521   7.721
18924WAT     H157014   9.084   4.552   7.799
18924WAT     H257015   8.977   4.440   7.747
18925WAT      O57016   0.089   2.789   5.146
18925WAT     H157017   0.093   2.852   5.223
18925WAT     H257018   0.026   2.824   5.077
18926WAT      O57019   7.167   9.364   9.287
18926WAT     H157020   7.247   9.315   9.251
18926WAT     H257021   7.173   9.460   9.259
18927WAT      O57022   0.603   3.414   8.020
18927WAT     H157023   0.695   3.447   8.040
18927WAT     H257024   0.597   3.387   7.924
18928WAT      O57025   7.121   1.022   7.458
18928WAT     H157026   7.137   1.041   7.361
18928WAT     H257027   7.129   0.924   7.474
18929WAT      O57028   8.708   6.433   5.592
18929WAT     H157029   8.623   6.455   5.544
18929WAT     H257030   8.786   6.447   5.531
18930WAT      O57031   3.893   8.729   5.052
18930WAT     H157032   3.805   8.696   5.086
18930WAT     H257033   3.949   8.762   5.128
18931WAT      O57034   5.336   8.426   7.369
18931WAT     H157035   5.308   8.366   7.444
18931WAT     H257036   5.381   8.372   7.298
18932WAT      O57037   4.404   1.151   6.541
18932WAT     H157038   4.327   1.172   6.601
18932WAT     H257039   4.374   1.090   6.468
18933WAT      O57040   9.520   3.851   9.869
18933WAT     H157041   9.478   3.881   9.783
18933WAT     H257042   9.454   3.863   9.943
18934WAT      O57043   1.696   8.244   2.820
18934WAT     H157044   1.744   8.288   2.896
18934WAT     H257045   1.644   8.165   2.855
18935WAT      O57046   8.232   4.909   5.292
18935WAT     H157047   8.197   4.817   5.309
18935WAT     H257048   8.279   4.943   5.374
18936WAT      O57049   5.908   5.742   5.747
18936WAT     H157050   5.992   5.724   5.798
18936WAT     H257051   5.899   5.841   5.732
18937WAT      O57052   4.064   0.164   2.340
18937WAT     H157053   4.148   0.187   2.291
18937WAT     H257054   4.082   0.161   2.438
18938WAT      O57055   3.920   9.439   5.699
18938WAT     H157056   3.926   9.447   5.799
18938WAT     H257057   3.930   9.344   5.672
18939WAT      O57058   0.168   2.191   2.410
18939WAT     H157059   0.157   2.144   2.323
18939WAT     H257060   0.249   2.156   2.457
18940WAT      O57061   1.992   7.705   5.842
18940WAT     H157062   1.899   7.697   5.877
18940WAT     H257063   2.054   7.731   5.916
18941WAT      O57064   4.788   0.864   9.092
18941WAT     H157065   4.856   0.904   9.153
18941WAT     H257066   4.735   0.936   9.048
18942WAT      O57067   8.098   7.560   2.471
18942WAT     H157068   8.080   7.512   2.557
18942WAT     H257069   8.195   7.555   2.450
18943WAT      O57070   5.316   0.071   6.765
18943WAT     H157071   5.280   0.020   6.843
18943WAT     H257072   5.416   0.070   6.768
18944WAT      O57073   4.584   6.611   9.863
18944WAT     H157074   4.644   6.683   9.899
18944WAT     H257075   4.631   6.523   9.868
18945WAT      O57076   4.450   0.861   4.346
18945WAT     H157077   4.456   0.795   4.420
18945WAT     H257078   4.358   0.898   4.342
18946WAT      O57079   2.575   6.526   7.856
18946WAT     H157080   2.646   6.456   7.842
18946WAT     H257081   2.546   6.562   7.767
18947WAT      O57082   0.459   5.500   2.433
18947WAT     H157083   0.540   5.513   2.491
18947WAT     H257084   0.487   5.462   2.345
18948WAT      O57085   2.593   8.966   1.141
18948WAT     H157086   2.616   8.925   1.052
18948WAT     H257087   2.568   9.062   1.128
18949WAT      O57088   8.532   0.523   9.286
18949WAT     H157089   8.490   0.462   9.218
18949WAT     H257090   8.485   0.512   9.373
18950WAT      O57091   8.070   6.114   5.990
18950WAT     H157092   7.975   6.096   5.962
18950WAT     H257093   8.119   6.027   5.998
18951WAT      O57094   2.352   3.110   1.860
18951WAT     H157095   2.424   3.045   1.835
18951WAT     H257096   2.277   3.102   1.795
18952WAT      O57097   1.539   9.837   1.412
18952WAT     H157098   1.461   9.778   1.394
18952WAT     H257099   1.612   9.816   1.347
18953WAT      O57100   7.268   4.908   8.084
18953WAT     H157101   7.361   4.872   8.082
18953WAT     H257102   7.238   4.927   7.990
18954WAT      O57103   8.130   7.701   0.289
18954WAT     H157104   8.104   7.710   0.385
18954WAT     H257105   8.225   7.668   0.283
18955WAT      O57106   5.612   3.643   4.919
18955WAT     H157107   5.605   3.605   5.012
18955WAT     H257108   5.621   3.569   4.853
18956WAT      O57109   1.998   9.044   0.730
18956WAT     H157110   1.900   9.065   0.721
18956WAT     H257111   2.010   8.966   0.791
18957WAT      O57112   8.956   3.429   5.209
18957WAT     H157113   8.969   3.524   5.182
18957WAT     H257114   9.024   3.372   5.161
18958WAT      O57115   2.628   3.525   2.361
18958WAT     H157116   2.554   3.484   2.306
18958WAT     H257117   2.706   3.463   2.364
18959WAT      O57118   8.451   7.117   9.653
18959WAT     H157119   8.523   7.062   9.696
18959WAT     H257120   8.484   7.152   9.565
18960WAT      O57121   0.536   8.373   0.288
18960WAT     H157122   0.582   8.462   0.295
18960WAT     H257123   0.520   8.336   0.380
18961WAT      O57124   0.264   9.668   8.657
18961WAT     H157125   0.295   9.619   8.575
18961WAT     H257126   0.335   9.731   8.686
18962WAT      O57127   5.943   1.743   3.562
18962WAT     H157128   5.968   1.667   3.502
18962WAT     H257129   5.905   1.707   3.647
18963WAT      O57130   3.291   0.839   6.642
18963WAT     H157131   3.276   0.938   6.634
18963WAT     H257132   3.351   0.821   6.720
18964WAT      O57133   6.783   1.333   3.973
18964WAT     H157134   6.785   1.394   3.894
18964WAT     H257135   6.746   1.382   4.052
18965WAT      O57136   9.280   2.524   4.505
18965WAT     H157137   9.317   2.490   4.419
18965WAT     H257138   9.197   2.577   4.487
18966WAT      O57139   7.631   0.820   1.511
18966WAT     H157140   7.533   0.807   1.497
18966WAT     H257141   7.648   0.914   1.543
18967WAT      O57142   3.741   5.288   6.090
18967WAT     H157143   3.684   5.368   6.073
18967WAT     H257144   3.744   5.231   6.008
18968WAT      O57145   2.992   2.641   7.789
18968WAT     H157146   3.022   2.619   7.696
18968WAT     H257147   3.006   2.738   7.807
18969WAT      O57148   9.269   2.298   9.381
18969WAT     H157149   9.252   2.275   9.477
18969WAT     H257150   9.303   2.216   9.334
18970WAT      O57151   5.832   6.024   5.646
18970WAT     H157152   5.808   6.093   5.715
18970WAT     H257153   5.865   6.070   5.563
18971WAT      O57154   3.721   2.537   5.122
18971WAT     H157155   3.698   2.516   5.217
18971WAT     H257156   3.637   2.542   5.068
18972WAT      O57157   2.829   4.020   2.364
18972WAT     H157158   2.902   3.967   2.408
18972WAT     H257159   2.867   4.073   2.288
18973WAT      O57160   6.267   7.620   2.983
18973WAT     H157161   6.324   7.547   2.944
18973WAT     H257162   6.217   7.585   3.062
18974WAT      O57163   1.146   0.534   9.161
18974WAT     H157164   1.144   0.630   9.188
18974WAT     H257165   1.060   0.490   9.189
18975WAT      O57166   8.225   4.100   2.652
18975WAT     H157167   8.252   4.034   2.583
18975WAT     H257168   8.163   4.057   2.717
18976WAT      O57169   3.084   2.712   5.244
18976WAT     H157170   3.167   2.766   5.233
18976WAT     H257171   3.021   2.759   5.305
18977WAT      O57172   4.358   1.331   8.617
18977WAT     H157173   4.432   1.344   8.683
18977WAT     H257174   4.270   1.350   8.661
18978WAT      O57175   3.056   8.717   4.576
18978WAT     H157176   3.039   8.752   4.484
18978WAT     H257177   3.145   8.673   4.580
18979WAT      O57178   8.719   1.844   9.437
18979WAT     H157179   8.803   1.849   9.382
18979WAT     H257180   8.646   1.894   9.391
18980WAT      O57181   3.065   7.326   5.113
18980WAT     H157182   3.051   7.230   5.137
18980WAT     H257183   3.118   7.371   5.184
18981WAT      O57184   9.044   1.521   9.833
18981WAT     H157185   9.139   1.527   9.865
18981WAT     H257186   9.023   1.600   9.776
18982WAT      O57187   2.656   6.838   8.536
18982WAT     H157188   2.663   6.829   8.437
18982WAT     H257189   2.561   6.860   8.561
18983WAT      O57190   2.961   3.502   3.173
18983WAT     H157191   2.912   3.431   3.222
18983WAT     H257192   3.047   3.522   3.221
18984WAT      O57193   3.333   7.751   8.480
18984WAT     H157194   3.256   7.813   8.467
18984WAT     H257195   3.345   7.694   8.398
18985WAT      O57196   5.615   0.279   7.020
18985WAT     H157197   5.555   0.348   7.060
18985WAT     H257198   5.651   0.220   7.092
18986WAT      O57199   7.065   1.614   7.719
18986WAT     H157200   7.052   1.589   7.623
18986WAT     H257201   6.980   1.596   7.770
18987WAT      O57202   6.594   5.195   0.110
18987WAT     H157203   6.614   5.201   0.207
18987WAT     H257204   6.575   5.286   0.074
18988WAT      O57205   4.131   7.508   8.065
18988WAT     H157206   4.204   7.576   8.076
18988WAT     H257207   4.083   7.524   7.979
18989WAT      O57208   8.014   0.435   2.038
18989WAT     H157209   8.016   0.340   2.071
18989WAT     H257210   8.090   0.485   2.078
18990WAT      O57211   7.922   2.653   3.203
18990WAT     H157212   7.935   2.556   3.220
18990WAT     H257213   7.824   2.672   3.191
18991WAT      O57214   0.251   3.704   0.948
18991WAT     H157215   0.232   3.712   1.046
18991WAT     H257216   0.167   3.715   0.896
18992WAT      O57217   3.449   1.280   2.426
18992WAT     H157218   3.380   1.219   2.388
18992WAT     H257219   3.512   1.227   2.483
18993WAT      O57220   2.568   4.955   3.042
18993WAT     H157221   2.577   4.916   2.951
18993WAT     H257222   2.612   4.896   3.110
18994WAT      O57223   6.166   8.407   2.950
18994WAT     H157224   6.251   8.367   2.915
18994WAT     H257225   6.187   8.481   3.013
18995WAT      O57226   8.737   1.126   9.136
18995WAT     H157227   8.761   1.047   9.192
18995WAT     H257228   8.807   1.197   9.146
18996WAT      O57229   3.448   2.030   1.852
18996WAT     H157230   3.409   1.986   1.771
18996WAT     H257231   3.466   1.960   1.922
18997WAT      O57232   7.725   4.572   6.765
18997WAT     H157233   7.718   4.486   6.815
18997WAT     H257234   7.819   4.585   6.734
18998WAT      O57235   0.760   0.802   9.609
18998WAT     H157236   0.725   0.889   9.643
18998WAT     H257237   0.684   0.741   9.589
18999WAT      O57238   4.324   7.622   7.796
18999WAT     H157239   4.346   7.669   7.882
18999WAT     H257240   4.226   7.602   7.793
19000WAT      O57241   1.765   2.834   9.249
19000WAT     H157242   1.685   2.887   9.220
19000WAT     H257243   1.820   2.889   9.312
19001WAT      O57244   6.010   8.624   3.986
19001WAT     H157245   6.104   8.609   3.954
19001WAT     H257246   6.007   8.707   4.042
19002WAT      O57247   3.773   3.399   4.072
19002WAT     H157248   3.745   3.304   4.057
19002WAT     H257249   3.830   3.404   4.155
19003WAT      O57250   3.486   1.005   3.112
19003WAT     H157251   3.525   0.956   3.033
19003WAT     H257252   3.526   0.969   3.196
19004WAT      O57253   8.850   2.416   8.022
19004WAT     H157254   8.786   2.340   8.034
19004WAT     H257255   8.926   2.405   8.086
19005WAT      O57256   3.289   1.835   7.370
19005WAT     H157257   3.341   1.823   7.285
19005WAT     H257258   3.217   1.766   7.374
19006WAT      O57259   4.422   8.860   9.491
19006WAT     H157260   4.398   8.820   9.579
19006WAT     H257261   4.338   8.882   9.440
19007WAT      O57262   1.167   4.677   9.806
19007WAT     H157263   1.252   4.682   9.755
19007WAT     H257264   1.124   4.588   9.790
19008WAT      O57265   1.203   1.859   5.631
19008WAT     H157266   1.274   1.886   5.697
19008WAT     H257267   1.114   1.861   5.676
19009WAT      O57268   0.144   7.320   7.874
19009WAT     H157269   0.204   7.311   7.795
19009WAT     H257270   0.108   7.231   7.899
19010WAT      O57271   5.472   8.841   7.536
19010WAT     H157272   5.464   8.874   7.442
19010WAT     H257273   5.515   8.911   7.593
19011WAT      O57274   2.668   2.322   1.099
19011WAT     H157275   2.654   2.224   1.109
19011WAT     H257276   2.652   2.348   1.003
19012WAT      O57277   3.544   3.340   8.067
19012WAT     H157278   3.587   3.250   8.057
19012WAT     H257279   3.547   3.368   8.163
19013WAT      O57280   7.226   8.025   0.955
19013WAT     H157281   7.273   8.074   1.027
19013WAT     H257282   7.230   8.078   0.870
19014WAT      O57283   9.315   7.094   2.544
19014WAT     H157284   9.224   7.094   2.504
19014WAT     H257285   9.346   7.000   2.558
19015WAT      O57286   7.892   8.239   5.905
19015WAT     H157287   7.820   8.303   5.933
19015WAT     H257288   7.967   8.245   5.970
19016WAT      O57289   0.595   9.099   6.349
19016WAT     H157290   0.579   9.120   6.445
19016WAT     H257291   0.522   9.040   6.315
19017WAT      O57292   6.903   8.953   2.419
19017WAT     H157293   6.952   8.890   2.359
19017WAT     H257294   6.968   9.018   2.460
19018WAT      O57295   2.169   1.737   5.070
19018WAT     H157296   2.140   1.719   4.976
19018WAT     H257297   2.091   1.725   5.132
19019WAT      O57298   2.451   0.597   8.612
19019WAT     H157299   2.441   0.571   8.708
19019WAT     H257300   2.546   0.589   8.584
19020WAT      O57301   6.586   8.590   8.768
19020WAT     H157302   6.598   8.534   8.850
19020WAT     H257303   6.492   8.582   8.735
19021WAT      O57304   4.967   5.973   1.193
19021WAT     H157305   5.015   5.916   1.259
19021WAT     H257306   4.868   5.956   1.199
19022WAT      O57307   1.959   7.954   8.551
19022WAT     H157308   1.870   7.980   8.588
19022WAT     H257309   2.031   8.004   8.599
19023WAT      O57310   8.329   3.335   4.894
19023WAT     H157311   8.341   3.248   4.845
19023WAT     H257312   8.243   3.333   4.944
19024WAT      O57313   3.187   3.486   2.713
19024WAT     H157314   3.171   3.467   2.617
19024WAT     H257315   3.122   3.434   2.769
19025WAT      O57316   2.982   2.489   4.673
19025WAT     H157317   2.914   2.556   4.640
19025WAT     H257318   3.074   2.526   4.659
19026WAT      O57319   3.807   0.067   2.725
19026WAT     H157320   3.797   0.057   2.824
19026WAT     H257321   3.801  -0.023   2.682
19027WAT      O57322   4.405   0.543   5.011
19027WAT     H157323   4.305   0.543   5.022
19027WAT     H257324   4.433   0.456   4.969
19028WAT      O57325   4.003   0.878   4.804
19028WAT     H157326   3.930   0.946   4.812
19028WAT     H257327   4.014   0.852   4.708
19029WAT      O57328   9.117   5.311   9.792
19029WAT     H157329   9.128   5.324   9.694
19029WAT     H257330   9.020   5.305   9.814
19030WAT      O57331   0.432   0.093   6.467
19030WAT     H157332   0.366   0.144   6.522
19030WAT     H257333   0.417  -0.005   6.479
19031WAT      O57334   2.644   3.329   4.176
19031WAT     H157335   2.681   3.421   4.162
19031WAT     H257336   2.714   3.270   4.216
19032WAT      O57337   3.558   2.485   7.102
19032WAT     H157338   3.627   2.555   7.120
19032WAT     H257339   3.514   2.501   7.014
19033WAT      O57340   3.001   1.283   6.425
19033WAT     H157341   2.967   1.375   6.406
19033WAT     H257342   3.064   1.255   6.352
19034WAT      O57343   2.954   9.273   6.273
19034WAT     H157344   2.923   9.215   6.198
19034WAT     H257345   2.919   9.238   6.359
19035WAT      O57346   1.476   0.878   2.333
19035WAT     H157347   1.429   0.944   2.273
19035WAT     H257348   1.416   0.857   2.411
19036WAT      O57349   5.387   0.013   4.416
19036WAT     H157350   5.294   0.047   4.429
19036WAT     H257351   5.441   0.082   4.368
19037WAT      O57352   6.393   1.555   2.135
19037WAT     H157353   6.480   1.603   2.143
19037WAT     H257354   6.393   1.499   2.053
19038WAT      O57355   6.578   4.728   5.786
19038WAT     H157356   6.533   4.672   5.855
19038WAT     H257357   6.509   4.767   5.725
19039WAT      O57358   5.298   2.007   3.378
19039WAT     H157359   5.385   2.009   3.328
19039WAT     H257360   5.279   1.913   3.406
19040WAT      O57361   9.302   2.969   4.498
19040WAT     H157362   9.299   2.898   4.428
19040WAT     H257363   9.328   2.928   4.586
19041WAT      O57364   4.940   5.973   3.174
19041WAT     H157365   4.965   5.920   3.093
19041WAT     H257366   5.012   6.040   3.194
19042WAT      O57367   5.595   6.353   1.647
19042WAT     H157368   5.565   6.316   1.560
19042WAT     H257369   5.585   6.284   1.718
19043WAT      O57370   3.320   1.260   9.183
19043WAT     H157371   3.375   1.342   9.201
19043WAT     H257372   3.324   1.239   9.086
19044WAT      O57373   5.506   2.546   9.223
19044WAT     H157374   5.470   2.620   9.281
19044WAT     H257375   5.531   2.469   9.281
19045WAT      O57376   0.702   9.340   2.863
19045WAT     H157377   0.778   9.294   2.910
19045WAT     H257378   0.628   9.358   2.928
19046WAT      O57379   3.758   0.269   6.391
19046WAT     H157380   3.743   0.174   6.364
19046WAT     H257381   3.760   0.275   6.491
19047WAT      O57382   0.880   5.498   0.927
19047WAT     H157383   0.836   5.579   0.965
19047WAT     H257384   0.973   5.491   0.964
19048WAT      O57385   9.165   0.460   3.743
19048WAT     H157386   9.251   0.469   3.794
19048WAT     H257387   9.177   0.394   3.669
19049WAT      O57388   4.147   6.578   0.183
19049WAT     H157389   4.154   6.569   0.083
19049WAT     H257390   4.236   6.603   0.220
19050WAT      O57391   9.631   9.770   7.947
19050WAT     H157392   9.561   9.763   7.876
19050WAT     H257393   9.707   9.826   7.914
19051WAT      O57394   2.467   3.049   4.611
19051WAT     H157395   2.424   3.139   4.599
19051WAT     H257396   2.456   3.020   4.706
19052WAT      O57397   4.815   3.934   0.670
19052WAT     H157398   4.875   4.000   0.715
19052WAT     H257399   4.866   3.851   0.648
19053WAT      O57400   4.301   5.436   2.335
19053WAT     H157401   4.359   5.445   2.416
19053WAT     H257402   4.357   5.443   2.252
19054WAT      O57403   1.889   1.086   2.176
19054WAT     H157404   1.970   1.094   2.118
19054WAT     H257405   1.814   1.138   2.136
19055WAT      O57406   6.420   6.519   1.992
19055WAT     H157407   6.333   6.561   1.965
19055WAT     H257408   6.487   6.533   1.920
19056WAT      O57409   2.643   5.145   0.356
19056WAT     H157410   2.615   5.241   0.361
19056WAT     H257411   2.741   5.140   0.339
19057WAT      O57412   9.882   5.647   2.393
19057WAT     H157413   9.880   5.742   2.361
19057WAT     H257414   9.799   5.600   2.364
19058WAT      O57415   4.164   6.127   7.602
19058WAT     H157416   4.173   6.031   7.627
19058WAT     H257417   4.232   6.149   7.532
19059WAT      O57418   5.089   9.147   4.014
19059WAT     H157419   5.170   9.131   4.072
19059WAT     H257420   5.008   9.157   4.072
19060WAT      O57421   1.302   2.299   7.240
19060WAT     H157422   1.287   2.388   7.283
19060WAT     H257423   1.265   2.299   7.148
19061WAT      O57424   8.011   3.317   1.869
19061WAT     H157425   7.953   3.240   1.893
19061WAT     H257426   7.985   3.351   1.778
19062WAT      O57427   0.046   4.021   6.297
19062WAT     H157428   0.107   3.947   6.324
19062WAT     H257429  -0.043   3.985   6.272
19063WAT      O57430   5.302   2.801   9.341
19063WAT     H157431   5.223   2.761   9.295
19063WAT     H257432   5.307   2.898   9.320
19064WAT      O57433   2.902   9.296   5.665
19064WAT     H157434   2.887   9.218   5.604
19064WAT     H257435   2.815   9.333   5.695
19065WAT      O57436   1.230   7.482   9.389
19065WAT     H157437   1.163   7.555   9.380
19065WAT     H257438   1.291   7.502   9.466
19066WAT      O57439   5.519   7.987   0.136
19066WAT     H157440   5.543   7.891   0.151
19066WAT     H257441   5.420   7.998   0.147
19067WAT      O57442   8.031   6.361   3.069
19067WAT     H157443   8.119   6.335   3.108
19067WAT     H257444   8.038   6.364   2.969
19068WAT      O57445   9.504   7.468   4.720
19068WAT     H157446   9.505   7.378   4.675
19068WAT     H257447   9.436   7.468   4.793
19069WAT      O57448   8.381   3.117   0.302
19069WAT     H157449   8.453   3.085   0.363
19069WAT     H257450   8.313   3.045   0.288
19070WAT      O57451   8.285   5.536   7.951
19070WAT     H157452   8.292   5.634   7.965
19070WAT     H257453   8.209   5.499   8.004
19071WAT      O57454   0.518   5.755   6.629
19071WAT     H157455   0.572   5.754   6.545
19071WAT     H257456   0.497   5.661   6.656
19072WAT      O57457   3.214   5.733   8.970
19072WAT     H157458   3.204   5.767   8.877
19072WAT     H257459   3.126   5.735   9.016
19073WAT      O57460   5.935   6.211   7.954
19073WAT     H157461   5.874   6.134   7.932
19073WAT     H257462   6.019   6.203   7.900
19074WAT      O57463   0.075   7.413   7.388
19074WAT     H157464   0.131   7.492   7.362
19074WAT     H257465   0.002   7.401   7.321
19075WAT      O57466   7.334   1.098   4.513
19075WAT     H157467   7.407   1.031   4.498
19075WAT     H257468   7.247   1.051   4.522
19076WAT      O57469   0.939   3.209   5.427
19076WAT     H157470   0.840   3.218   5.432
19076WAT     H257471   0.965   3.179   5.335
19077WAT      O57472   3.321   2.674   8.550
19077WAT     H157473   3.249   2.671   8.619
19077WAT     H257474   3.284   2.710   8.464
19078WAT      O57475   6.670   6.035   7.594
19078WAT     H157476   6.756   6.087   7.589
19078WAT     H257477   6.645   6.004   7.502
19079WAT      O57478   1.425   7.926   8.585
19079WAT     H157479   1.341   7.905   8.636
19079WAT     H257480   1.404   7.992   8.513
19080WAT      O57481   0.020   1.678   8.904
19080WAT     H157482  -0.043   1.604   8.928
19080WAT     H257483   0.114   1.648   8.915
19081WAT      O57484   9.465   4.244   7.813
19081WAT     H157485   9.443   4.338   7.788
19081WAT     H257486   9.563   4.228   7.799
19082WAT      O57487   4.180   4.630   6.958
19082WAT     H157488   4.246   4.704   6.941
19082WAT     H257489   4.142   4.600   6.871
19083WAT      O57490   7.616   0.974   8.738
19083WAT     H157491   7.675   0.955   8.817
19083WAT     H257492   7.667   1.029   8.672
19084WAT      O57493   6.566   6.542   9.841
19084WAT     H157494   6.631   6.551   9.766
19084WAT     H257495   6.504   6.466   9.823
19085WAT      O57496   3.895   0.546   4.972
19085WAT     H157497   3.972   0.555   5.036
19085WAT     H257498   3.929   0.551   4.878
19086WAT      O57499   0.656   0.071   1.586
19086WAT     H157500   0.598   0.021   1.522
19086WAT     H257501   0.749   0.077   1.549
19087WAT      O57502   4.259   8.272   2.187
19087WAT     H157503   4.215   8.321   2.263
19087WAT     H257504   4.196   8.267   2.110
19088WAT      O57505   9.082   1.671   5.833
19088WAT     H157506   9.032   1.585   5.822
19088WAT     H257507   9.159   1.674   5.769
19089WAT      O57508   7.172   8.183   7.686
19089WAT     H157509   7.141   8.188   7.591
19089WAT     H257510   7.093   8.165   7.745
19090WAT      O57511   7.902   4.775   1.673
19090WAT     H157512   7.823   4.784   1.733
19090WAT     H257513   7.974   4.837   1.705
19091WAT      O57514   0.281   0.769   7.898
19091WAT     H157515   0.288   0.864   7.868
19091WAT     H257516   0.248   0.766   7.993
19092WAT      O57517   0.867   8.399   5.313
19092WAT     H157518   0.867   8.497   5.293
19092WAT     H257519   0.777   8.372   5.347
19093WAT      O57520   4.723   6.900   7.785
19093WAT     H157521   4.662   6.823   7.807
19093WAT     H257522   4.812   6.885   7.829
19094WAT      O57523   6.104   1.591   6.561
19094WAT     H157524   6.180   1.656   6.561
19094WAT     H257525   6.031   1.624   6.621
19095WAT      O57526   3.025   7.463   5.744
19095WAT     H157527   3.052   7.543   5.691
19095WAT     H257528   3.093   7.446   5.816
19096WAT      O57529   5.896   9.095   4.169
19096WAT     H157530   5.843   9.061   4.247
19096WAT     H257531   5.946   9.178   4.196
19097WAT      O57532   9.171   2.766   6.473
19097WAT     H157533   9.156   2.688   6.412
19097WAT     H257534   9.183   2.849   6.419
19098WAT      O57535   5.565   1.389   7.850
19098WAT     H157536   5.658   1.360   7.828
19098WAT     H257537   5.556   1.403   7.948
19099WAT      O57538   8.563   7.979   7.092
19099WAT     H157539   8.522   7.900   7.048
19099WAT     H257540   8.595   8.044   7.022
19100WAT      O57541   0.531   4.879   6.936
19100WAT     H157542   0.522   4.894   7.034
19100WAT     H257543   0.442   4.894   6.892
19101WAT      O57544   8.680   7.821   1.095
19101WAT     H157545   8.736   7.881   1.038
19101WAT     H257546   8.584   7.829   1.068
19102WAT      O57547   2.483   0.679   5.790
19102WAT     H157548   2.426   0.737   5.732
19102WAT     H257549   2.561   0.731   5.823
19103WAT      O57550   1.545   7.097   7.550
19103WAT     H157551   1.449   7.120   7.563
19103WAT     H257552   1.561   7.002   7.579
19104WAT      O57553   5.941   3.021   5.830
19104WAT     H157554   5.887   3.048   5.751
19104WAT     H257555   5.982   3.102   5.871
19105WAT      O57556   8.976   3.925   1.648
19105WAT     H157557   8.941   3.933   1.555
19105WAT     H257558   8.989   3.829   1.671
19106WAT      O57559   9.307   8.561   5.321
19106WAT     H157560   9.354   8.645   5.293
19106WAT     H257561   9.209   8.571   5.305
19107WAT      O57562   1.418   1.681   3.310
19107WAT     H157563   1.481   1.724   3.375
19107WAT     H257564   1.385   1.749   3.246
19108WAT      O57565   7.286   6.808   4.256
19108WAT     H157566   7.226   6.827   4.334
19108WAT     H257567   7.334   6.891   4.230
19109WAT      O57568   5.578   5.860   0.538
19109WAT     H157569   5.532   5.799   0.473
19109WAT     H257570   5.537   5.848   0.628
19110WAT      O57571   8.603   3.407   2.252
19110WAT     H157572   8.545   3.483   2.281
19110WAT     H257573   8.691   3.443   2.219
19111WAT      O57574   5.749   3.172   8.905
19111WAT     H157575   5.677   3.223   8.952
19111WAT     H257576   5.815   3.236   8.865
19112WAT      O57577   4.598   3.724   9.744
19112WAT     H157578   4.660   3.731   9.822
19112WAT     H257579   4.535   3.803   9.744
19113WAT      O57580   4.882   5.900   1.892
19113WAT     H157581   4.958   5.837   1.874
19113WAT     H257582   4.799   5.863   1.851
19114WAT      O57583   8.341   2.007   0.796
19114WAT     H157584   8.244   2.009   0.772
19114WAT     H257585   8.376   1.914   0.783
19115WAT      O57586   5.069   6.363   9.002
19115WAT     H157587   5.131   6.321   9.068
19115WAT     H257588   4.993   6.407   9.051
19116WAT      O57589   7.751   0.757   0.845
19116WAT     H157590   7.760   0.673   0.792
19116WAT     H257591   7.711   0.829   0.787
19117WAT      O57592   8.265   1.339   4.160
19117WAT     H157593   8.317   1.423   4.175
19117WAT     H257594   8.322   1.272   4.114
19118WAT      O57595   7.658   7.199   4.809
19118WAT     H157596   7.748   7.190   4.851
19118WAT     H257597   7.643   7.123   4.746
19119WAT      O57598   0.106   9.545   9.134
19119WAT     H157599   0.129   9.507   9.044
19119WAT     H257600   0.051   9.479   9.184
19120WAT      O57601   1.900   8.408   4.895
19120WAT     H157602   1.837   8.339   4.859
19120WAT     H257603   1.952   8.370   4.971
19121WAT      O57604   5.914   9.080   6.919
19121WAT     H157605   5.909   8.989   6.878
19121WAT     H257606   5.822   9.121   6.921
19122WAT      O57607   4.027   7.241   3.979
19122WAT     H157608   4.009   7.157   4.030
19122WAT     H257609   3.947   7.266   3.926
19123WAT      O57610   6.770   1.226   2.088
19123WAT     H157611   6.786   1.324   2.103
19123WAT     H257612   6.837   1.173   2.139
19124WAT      O57613   8.205   3.988   9.171
19124WAT     H157614   8.125   3.939   9.205
19124WAT     H257615   8.183   4.084   9.158
19125WAT      O57616   9.023   9.652   5.660
19125WAT     H157617   9.039   9.657   5.759
19125WAT     H257618   8.995   9.559   5.635
19126WAT      O57619   1.553   2.308   2.845
19126WAT     H157620   1.615   2.244   2.800
19126WAT     H257621   1.461   2.268   2.849
19127WAT      O57622   1.416   2.562   6.772
19127WAT     H157623   1.327   2.549   6.815
19127WAT     H257624   1.480   2.491   6.804
19128WAT      O57625   2.918   7.432   6.843
19128WAT     H157626   2.954   7.415   6.751
19128WAT     H257627   2.844   7.499   6.838
19129WAT      O57628   7.588   2.771   6.320
19129WAT     H157629   7.543   2.682   6.326
19129WAT     H257630   7.661   2.767   6.251
19130WAT      O57631   3.086   0.080   3.216
19130WAT     H157632   3.086   0.180   3.213
19130WAT     H257633   3.053   0.049   3.305
19131WAT      O57634   8.095   8.545   8.078
19131WAT     H157635   8.053   8.617   8.134
19131WAT     H257636   8.101   8.461   8.131
19132WAT      O57637   3.760   9.653   2.596
19132WAT     H157638   3.749   9.567   2.645
19132WAT     H257639   3.694   9.658   2.521
19133WAT      O57640   5.907   4.921   3.374
19133WAT     H157641   5.883   5.009   3.332
19133WAT     H257642   5.921   4.853   3.303
19134WAT      O57643   8.155   3.568   7.642
19134WAT     H157644   8.116   3.602   7.556
19134WAT     H257645   8.242   3.523   7.623
19135WAT      O57646   7.209   0.552   2.762
19135WAT     H157647   7.144   0.561   2.838
19135WAT     H257648   7.213   0.637   2.711
19136WAT      O57649   3.651   5.667   7.872
19136WAT     H157650   3.610   5.752   7.839
19136WAT     H257651   3.590   5.623   7.937
19137WAT      O57652   9.296   6.187   8.358
19137WAT     H157653   9.284   6.136   8.443
19137WAT     H257654   9.231   6.263   8.356
19138WAT      O57655   2.412   1.963   0.198
19138WAT     H157656   2.412   1.901   0.119
19138WAT     H257657   2.469   2.043   0.177
19139WAT      O57658   8.824   2.041   0.745
19139WAT     H157659   8.749   2.027   0.809
19139WAT     H257660   8.862   1.952   0.719
19140WAT      O57661   4.932   2.044   3.346
19140WAT     H157662   4.938   1.952   3.307
19140WAT     H257663   4.999   2.103   3.301
19141WAT      O57664   1.613   2.204   2.493
19141WAT     H157665   1.681   2.277   2.482
19141WAT     H257666   1.658   2.122   2.527
19142WAT      O57667   2.248   3.185   5.940
19142WAT     H157668   2.297   3.220   5.860
19142WAT     H257669   2.309   3.127   5.993
19143WAT      O57670   3.502   2.250   2.432
19143WAT     H157671   3.498   2.312   2.353
19143WAT     H257672   3.529   2.159   2.401
19144WAT      O57673   3.994   5.208   4.628
19144WAT     H157674   3.973   5.283   4.565
19144WAT     H257675   4.046   5.244   4.706
19145WAT      O57676   2.267   9.525   1.626
19145WAT     H157677   2.189   9.588   1.627
19145WAT     H257678   2.275   9.480   1.715
19146WAT      O57679   7.086   6.447   4.890
19146WAT     H157680   7.096   6.433   4.792
19146WAT     H257681   6.991   6.430   4.917
19147WAT      O57682   4.650   5.843   4.632
19147WAT     H157683   4.598   5.868   4.550
19147WAT     H257684   4.690   5.752   4.619
19148WAT      O57685   3.666   6.181   7.084
19148WAT     H157686   3.663   6.155   7.181
19148WAT     H257687   3.614   6.115   7.030
19149WAT      O57688   4.506   5.490   4.100
19149WAT     H157689   4.513   5.578   4.147
19149WAT     H257690   4.497   5.506   4.002
19150WAT      O57691   9.618   6.810   6.348
19150WAT     H157692   9.700   6.848   6.391
19150WAT     H257693   9.643   6.761   6.264
19151WAT      O57694   2.854   6.480   0.842
19151WAT     H157695   2.798   6.518   0.769
19151WAT     H257696   2.840   6.381   0.848
19152WAT      O57697   8.675   0.472   4.492
19152WAT     H157698   8.585   0.444   4.527
19152WAT     H257699   8.726   0.392   4.463
19153WAT      O57700   3.897   2.668   9.620
19153WAT     H157701   3.914   2.671   9.521
19153WAT     H257702   3.961   2.604   9.662
19154WAT      O57703   8.449   1.093   2.637
19154WAT     H157704   8.407   1.005   2.616
19154WAT     H257705   8.548   1.086   2.624
19155WAT      O57706   7.617   9.598   6.130
19155WAT     H157707   7.663   9.677   6.171
19155WAT     H257708   7.573   9.544   6.203
19156WAT      O57709   1.171   6.907   3.276
19156WAT     H157710   1.192   6.815   3.307
19156WAT     H257711   1.071   6.919   3.271
19157WAT      O57712   8.749   4.373   1.084
19157WAT     H157713   8.849   4.374   1.087
19157WAT     H257714   8.716   4.461   1.048
19158WAT      O57715   3.042   6.761   8.390
19158WAT     H157716   3.136   6.729   8.393
19158WAT     H257717   2.980   6.683   8.385
19159WAT      O57718   6.305   7.866   6.531
19159WAT     H157719   6.293   7.963   6.510
19159WAT     H257720   6.372   7.857   6.605
19160WAT      O57721   5.820   6.842   0.717
19160WAT     H157722   5.887   6.781   0.760
19160WAT     H257723   5.868   6.913   0.665
19161WAT      O57724   4.023   6.566   5.623
19161WAT     H157725   3.986   6.531   5.709
19161WAT     H257726   3.952   6.564   5.552
19162WAT      O57727   7.664   1.545   3.173
19162WAT     H157728   7.585   1.594   3.211
19162WAT     H257729   7.736   1.611   3.150
19163WAT      O57730   0.419   6.632   8.180
19163WAT     H157731   0.387   6.683   8.100
19163WAT     H257732   0.451   6.542   8.151
19164WAT      O57733   6.997   6.987   5.987
19164WAT     H157734   6.916   6.928   5.989
19164WAT     H257735   7.050   6.974   6.071
19165WAT      O57736   5.050   8.681   7.715
19165WAT     H157737   4.974   8.629   7.754
19165WAT     H257738   5.083   8.635   7.633
19166WAT      O57739   4.165   9.469   6.468
19166WAT     H157740   4.138   9.393   6.410
19166WAT     H257741   4.120   9.553   6.436
19167WAT      O57742   2.635   5.708   6.278
19167WAT     H157743   2.610   5.805   6.276
19167WAT     H257744   2.706   5.690   6.210
19168WAT      O57745   8.049   1.633   5.764
19168WAT     H157746   8.000   1.549   5.743
19168WAT     H257747   8.043   1.652   5.862
19169WAT      O57748   8.394   1.090   9.467
19169WAT     H157749   8.336   1.082   9.548
19169WAT     H257750   8.427   1.000   9.439
19170WAT      O57751   3.589   4.473   9.153
19170WAT     H157752   3.668   4.413   9.145
19170WAT     H257753   3.535   4.470   9.069
19171WAT      O57754   6.153   5.830   4.803
19171WAT     H157755   6.140   5.927   4.822
19171WAT     H257756   6.239   5.818   4.752
19172WAT      O57757   3.622   6.724   8.180
19172WAT     H157758   3.623   6.823   8.187
19172WAT     H257759   3.646   6.683   8.268
19173WAT      O57760   2.497   6.811   3.382
19173WAT     H157761   2.485   6.904   3.350
19173WAT     H257762   2.442   6.797   3.465
19174WAT      O57763   2.586   5.571   4.993
19174WAT     H157764   2.604   5.478   5.025
19174WAT     H257765   2.536   5.567   4.907
19175WAT      O57766   1.904   7.048   8.255
19175WAT     H157767   1.982   7.076   8.199
19175WAT     H257768   1.916   7.084   8.348
19176WAT      O57769   5.148   1.149   0.929
19176WAT     H157770   5.090   1.183   0.856
19176WAT     H257771   5.126   1.053   0.947
19177WAT      O57772   8.922   9.243   2.585
19177WAT     H157773   8.871   9.157   2.589
19177WAT     H257774   8.882   9.302   2.515
19178WAT      O57775   5.252   3.666   3.462
19178WAT     H157776   5.252   3.570   3.434
19178WAT     H257777   5.252   3.672   3.562
19179WAT      O57778   1.606   7.868   2.704
19179WAT     H157779   1.569   7.805   2.772
19179WAT     H257780   1.536   7.935   2.679
19180WAT      O57781   2.482   7.635   2.534
19180WAT     H157782   2.564   7.587   2.506
19180WAT     H257783   2.410   7.569   2.556
19181WAT      O57784   4.903   9.409   0.705
19181WAT     H157785   4.809   9.424   0.675
19181WAT     H257786   4.946   9.496   0.728
19182WAT      O57787   1.106   4.034   0.604
19182WAT     H157788   1.179   4.091   0.566
19182WAT     H257789   1.025   4.090   0.619
19183WAT      O57790   9.198   1.385   8.145
19183WAT     H157791   9.237   1.403   8.235
19183WAT     H257792   9.186   1.471   8.096
19184WAT      O57793   2.413   7.126   1.787
19184WAT     H157794   2.342   7.191   1.816
19184WAT     H257795   2.503   7.166   1.806
19185WAT      O57796   7.679   2.379   1.118
19185WAT     H157797   7.598   2.415   1.165
19185WAT     H257798   7.651   2.334   1.033
19186WAT      O57799   7.603   5.686   5.170
19186WAT     H157800   7.684   5.630   5.155
19186WAT     H257801   7.627   5.782   5.162
19187WAT      O57802   4.124   2.467   0.921
19187WAT     H157803   4.086   2.430   1.006
19187WAT     H257804   4.122   2.396   0.850
19188WAT      O57805   6.583   1.893   0.520
19188WAT     H157806   6.588   1.977   0.574
19188WAT     H257807   6.563   1.917   0.424
19189WAT      O57808   3.853   9.485   3.226
19189WAT     H157809   3.793   9.465   3.303
19189WAT     H257810   3.910   9.405   3.207
19190WAT      O57811   2.885   5.293   7.273
19190WAT     H157812   2.894   5.379   7.223
19190WAT     H257813   2.830   5.308   7.355
19191WAT      O57814   8.114   6.176   9.064
19191WAT     H157815   8.017   6.161   9.086
19191WAT     H257816   8.169   6.106   9.109
19192WAT      O57817   6.014   3.299   1.628
19192WAT     H157818   6.080   3.360   1.672
19192WAT     H257819   6.060   3.215   1.600
19193WAT      O57820   0.595   0.902   0.338
19193WAT     H157821   0.546   0.843   0.403
19193WAT     H257822   0.593   0.859   0.247
19194WAT      O57823   9.598   6.272   6.334
19194WAT     H157824   9.635   6.363   6.353
19194WAT     H257825   9.669   6.203   6.349
19195WAT      O57826   3.571   9.689   7.186
19195WAT     H157827   3.580   9.591   7.166
19195WAT     H257828   3.599   9.742   7.106
19196WAT      O57829   1.403   8.502   6.761
19196WAT     H157830   1.479   8.550   6.804
19196WAT     H257831   1.352   8.564   6.702
19197WAT      O57832   6.176   5.129   1.583
19197WAT     H157833   6.273   5.115   1.601
19197WAT     H257834   6.156   5.104   1.488
19198WAT      O57835   3.622   0.559   3.371
19198WAT     H157836   3.548   0.621   3.347
19198WAT     H257837   3.586   0.483   3.425
19199WAT      O57838   1.803   6.329   4.765
19199WAT     H157839   1.861   6.338   4.846
19199WAT     H257840   1.857   6.347   4.683
19200WAT      O57841   5.974   5.923   8.288
19200WAT     H157842   5.997   5.997   8.225
19200WAT     H257843   5.941   5.844   8.237
19201WAT      O57844   5.250   4.236   0.482
19201WAT     H157845   5.167   4.263   0.531
19201WAT     H257846   5.318   4.308   0.489
19202WAT      O57847   0.510   6.002   7.605
19202WAT     H157848   0.465   6.049   7.681
19202WAT     H257849   0.580   6.061   7.565
19203WAT      O57850   6.527   5.388   1.563
19203WAT     H157851   6.579   5.420   1.643
19203WAT     H257852   6.429   5.396   1.582
19204WAT      O57853   0.454   0.706   4.542
19204WAT     H157854   0.450   0.758   4.457
19204WAT     H257855   0.541   0.658   4.548
19205WAT      O57856   7.245   6.999   6.648
19205WAT     H157857   7.251   7.099   6.647
19205WAT     H257858   7.150   6.972   6.662
19206WAT      O57859   9.819   5.868   3.237
19206WAT     H157860   9.797   5.962   3.264
19206WAT     H257861   9.836   5.813   3.319
19207WAT      O57862   8.091   4.738   4.041
19207WAT     H157863   8.001   4.701   4.064
19207WAT     H257864   8.162   4.683   4.085
19208WAT      O57865   0.543   9.735   6.665
19208WAT     H157866   0.563   9.660   6.728
19208WAT     H257867   0.601   9.814   6.688
19209WAT      O57868   5.030   6.297   6.154
19209WAT     H157869   4.993   6.250   6.073
19209WAT     H257870   4.999   6.392   6.155
19210WAT      O57871   1.537   8.322   1.614
19210WAT     H157872   1.623   8.301   1.566
19210WAT     H257873   1.510   8.244   1.669
19211WAT      O57874   1.062   0.276   5.574
19211WAT     H157875   1.118   0.262   5.656
19211WAT     H257876   1.006   0.358   5.586
19212WAT      O57877   1.439   1.378   2.394
19212WAT     H157878   1.492   1.326   2.461
19212WAT     H257879   1.350   1.334   2.381
19213WAT      O57880   9.062   8.798   9.200
19213WAT     H157881   9.008   8.816   9.282
19213WAT     H257882   9.152   8.841   9.209
19214WAT      O57883   8.556   3.409   1.683
19214WAT     H157884   8.589   3.422   1.776
19214WAT     H257885   8.541   3.312   1.666
19215WAT      O57886   3.273   5.630   2.879
19215WAT     H157887   3.344   5.666   2.940
19215WAT     H257888   3.312   5.562   2.818
19216WAT      O57889   2.191   6.468   1.174
19216WAT     H157890   2.144   6.495   1.257
19216WAT     H257891   2.136   6.492   1.094
19217WAT      O57892   6.780   8.809   7.173
19217WAT     H157893   6.831   8.894   7.184
19217WAT     H257894   6.718   8.797   7.250
19218WAT      O57895   5.815   2.276   1.115
19218WAT     H157896   5.904   2.296   1.077
19218WAT     H257897   5.748   2.343   1.082
19219WAT      O57898   1.719   0.677   8.510
19219WAT     H157899   1.788   0.612   8.542
19219WAT     H257900   1.659   0.701   8.587
19220WAT      O57901   5.418   8.249   6.028
19220WAT     H157902   5.407   8.323   5.962
19220WAT     H257903   5.448   8.286   6.116
19221WAT      O57904   0.414   1.847   0.203
19221WAT     H157905   0.355   1.782   0.251
19221WAT     H257906   0.418   1.933   0.254
19222WAT      O57907   3.293   7.318   2.583
19222WAT     H157908   3.392   7.302   2.589
19222WAT     H257909   3.267   7.327   2.487
19223WAT      O57910   3.305   1.980   5.408
19223WAT     H157911   3.303   1.960   5.310
19223WAT     H257912   3.340   2.073   5.422
19224WAT      O57913   0.069   7.943   3.077
19224WAT     H157914   0.022   7.985   3.155
19224WAT     H257915   0.041   7.847   3.070
19225WAT      O57916   8.372   4.596   9.729
19225WAT     H157917   8.375   4.667   9.799
19225WAT     H257918   8.454   4.603   9.671
19226WAT      O57919   6.905   9.714   8.005
19226WAT     H157920   6.824   9.771   8.014
19226WAT     H257921   6.930   9.679   8.095
19227WAT      O57922   4.817   9.782   2.114
19227WAT     H157923   4.867   9.738   2.040
19227WAT     H257924   4.856   9.873   2.130
19228WAT      O57925   5.288   5.438   5.834
19228WAT     H157926   5.217   5.487   5.783
19228WAT     H257927   5.285   5.466   5.930
19229WAT      O57928   3.997   1.911   5.582
19229WAT     H157929   3.998   1.862   5.495
19229WAT     H257930   3.906   1.903   5.624
19230WAT      O57931   5.076   2.990   2.912
19230WAT     H157932   5.007   2.917   2.909
19230WAT     H257933   5.048   3.064   2.850
19231WAT      O57934   1.364   7.469   3.154
19231WAT     H157935   1.402   7.538   3.093
19231WAT     H257936   1.348   7.509   3.245
19232WAT      O57937   5.998   6.560   6.363
19232WAT     H157938   6.048   6.643   6.384
19232WAT     H257939   5.901   6.574   6.380
19233WAT      O57940   8.424   3.692   7.320
19233WAT     H157941   8.388   3.761   7.383
19233WAT     H257942   8.482   3.628   7.371
19234WAT      O57943   3.420   5.410   9.471
19234WAT     H157944   3.334   5.359   9.463
19234WAT     H257945   3.401   5.502   9.505
19235WAT      O57946   9.436   0.565   2.448
19235WAT     H157947   9.398   0.655   2.426
19235WAT     H257948   9.376   0.494   2.411
19236WAT      O57949   2.105   9.333   1.446
19236WAT     H157950   2.169   9.402   1.481
19236WAT     H257951   2.011   9.364   1.461
19237WAT      O57952   6.648   0.517   0.042
19237WAT     H157953   6.553   0.533   0.017
19237WAT     H257954   6.704   0.594   0.012
19238WAT      O57955   1.537   9.379   9.487
19238WAT     H157956   1.543   9.456   9.422
19238WAT     H257957   1.456   9.390   9.543
19239WAT      O57958   8.266   7.794   6.296
19239WAT     H157959   8.237   7.721   6.358
19239WAT     H257960   8.353   7.768   6.253
19240WAT      O57961   4.809   5.544   9.330
19240WAT     H157962   4.771   5.512   9.417
19240WAT     H257963   4.734   5.558   9.264
19241WAT      O57964   0.242   5.481   4.352
19241WAT     H157965   0.303   5.537   4.296
19241WAT     H257966   0.161   5.534   4.375
19242WAT      O57967   2.926   7.130   8.958
19242WAT     H157968   2.876   7.125   9.045
19242WAT     H257969   2.886   7.066   8.893
19243WAT      O57970   6.280   8.077   9.223
19243WAT     H157971   6.186   8.093   9.192
19243WAT     H257972   6.340   8.149   9.186
19244WAT      O57973   8.370   2.604   1.966
19244WAT     H157974   8.416   2.517   1.982
19244WAT     H257975   8.437   2.679   1.970
19245WAT      O57976   6.619   3.705   1.420
19245WAT     H157977   6.557   3.738   1.350
19245WAT     H257978   6.710   3.746   1.407
19246WAT      O57979   7.628   4.995   4.241
19246WAT     H157980   7.648   5.050   4.160
19246WAT     H257981   7.600   4.903   4.213
19247WAT      O57982   8.123   1.271   5.608
19247WAT     H157983   8.216   1.306   5.613
19247WAT     H257984   8.062   1.342   5.573
19248WAT      O57985   0.297   2.961   1.714
19248WAT     H157986   0.318   3.042   1.769
19248WAT     H257987   0.381   2.928   1.671
19249WAT      O57988   3.248   0.488   9.064
19249WAT     H157989   3.289   0.430   9.135
19249WAT     H257990   3.318   0.549   9.027
19250WAT      O57991   4.849   9.474   1.287
19250WAT     H157992   4.777   9.413   1.253
19250WAT     H257993   4.819   9.518   1.371
19251WAT      O57994   1.530   3.877   8.345
19251WAT     H157995   1.517   3.975   8.326
19251WAT     H257996   1.559   3.830   8.262
19252WAT      O57997   1.179   4.375   7.223
19252WAT     H157998   1.151   4.280   7.208
19252WAT     H257999   1.257   4.397   7.164
19253WAT      O58000   6.702   2.968   9.310
19253WAT     H158001   6.603   2.979   9.317
19253WAT     H258002   6.723   2.883   9.262
19254WAT      O58003   9.170   6.237   4.694
19254WAT     H158004   9.229   6.186   4.756
19254WAT     H258005   9.082   6.189   4.686
19255WAT      O58006   6.735   0.188   2.244
19255WAT     H158007   6.658   0.172   2.306
19255WAT     H258008   6.703   0.234   2.161
19256WAT      O58009   8.745   5.779   1.329
19256WAT     H158010   8.802   5.836   1.270
19256WAT     H258011   8.659   5.760   1.283
19257WAT      O58012   4.997   0.826   2.187
19257WAT     H158013   5.042   0.905   2.144
19257WAT     H258014   4.899   0.830   2.168
19258WAT      O58015   0.328   6.736   1.032
19258WAT     H158016   0.348   6.639   1.016
19258WAT     H258017   0.231   6.753   1.013
19259WAT      O58018   2.102   6.188   9.079
19259WAT     H158019   2.112   6.106   9.136
19259WAT     H258020   2.015   6.232   9.100
19260WAT      O58021   8.280   0.184   6.619
19260WAT     H158022   8.304   0.272   6.578
19260WAT     H258023   8.270   0.116   6.547
19261WAT      O58024   2.437   2.010   6.341
19261WAT     H158025   2.380   1.928   6.355
19261WAT     H258026   2.379   2.091   6.346
19262WAT      O58027   8.395   6.793   8.764
19262WAT     H158028   8.338   6.858   8.715
19262WAT     H258029   8.368   6.789   8.860
19263WAT      O58030   4.343   8.904   1.341
19263WAT     H158031   4.384   8.846   1.412
19263WAT     H258032   4.314   8.846   1.264
19264WAT      O58033   4.199   4.016   2.277
19264WAT     H158034   4.296   4.022   2.303
19264WAT     H258035   4.188   3.942   2.211
19265WAT      O58036   0.194   9.835   5.904
19265WAT     H158037   0.271   9.897   5.887
19265WAT     H258038   0.196   9.803   5.998
19266WAT      O58039   5.294   4.984   5.964
19266WAT     H158040   5.196   4.969   5.954
19266WAT     H258041   5.328   5.038   5.886
19267WAT      O58042   8.335   5.076   2.362
19267WAT     H158043   8.365   5.141   2.292
19267WAT     H258044   8.411   5.015   2.386
19268WAT      O58045   1.886   2.147   1.679
19268WAT     H158046   1.820   2.119   1.749
19268WAT     H258047   1.957   2.078   1.670
19269WAT      O58048   1.777   5.429   6.924
19269WAT     H158049   1.835   5.480   6.860
19269WAT     H258050   1.829   5.353   6.963
19270WAT      O58051   8.611   1.260   4.080
19270WAT     H158052   8.592   1.347   4.034
19270WAT     H258053   8.628   1.277   4.177
19271WAT      O58054   8.821   5.778   2.776
19271WAT     H158055   8.920   5.767   2.782
19271WAT     H258056   8.779   5.751   2.862
19272WAT      O58057   5.675   3.829   9.697
19272WAT     H158058   5.610   3.869   9.632
19272WAT     H258059   5.758   3.803   9.649
19273WAT      O58060   4.021   8.073   8.623
19273WAT     H158061   3.993   8.169   8.631
19273WAT     H258062   3.940   8.015   8.621
19274WAT      O58063   7.673   2.940   0.492
19274WAT     H158064   7.709   2.886   0.568
19274WAT     H258065   7.656   3.033   0.523
19275WAT      O58066   0.561   2.529   6.623
19275WAT     H158067   0.510   2.613   6.608
19275WAT     H258068   0.513   2.471   6.689
19276WAT      O58069   2.757   5.579   1.940
19276WAT     H158070   2.806   5.631   1.870
19276WAT     H258071   2.710   5.502   1.898
19277WAT      O58072   7.562   7.549   1.089
19277WAT     H158073   7.621   7.470   1.072
19277WAT     H258074   7.554   7.604   1.006
19278WAT      O58075   8.344   3.903   3.130
19278WAT     H158076   8.245   3.898   3.126
19278WAT     H258077   8.372   3.951   3.213
19279WAT      O58078   8.251   3.326   6.017
19279WAT     H158079   8.205   3.238   6.025
19279WAT     H258080   8.336   3.325   6.070
19280WAT      O58081   9.620   6.067   3.690
19280WAT     H158082   9.531   6.057   3.734
19280WAT     H258083   9.638   5.989   3.631
19281WAT      O58084   6.459   7.695   7.677
19281WAT     H158085   6.430   7.613   7.629
19281WAT     H258086   6.496   7.761   7.612
19282WAT      O58087   7.420   9.679   2.660
19282WAT     H158088   7.369   9.593   2.667
19282WAT     H258089   7.510   9.667   2.704
19283WAT      O58090   3.860   9.283   7.375
19283WAT     H158091   3.825   9.357   7.433
19283WAT     H258092   3.851   9.196   7.423
19284WAT      O58093   2.528   9.506   0.110
19284WAT     H158094   2.522   9.577   0.180
19284WAT     H258095   2.535   9.549   0.020
19285WAT      O58096   3.110   6.923   9.508
19285WAT     H158097   3.025   6.904   9.458
19285WAT     H258098   3.091   6.984   9.585
19286WAT      O58099   2.828   0.297   7.896
19286WAT     H158100   2.808   0.395   7.893
19286WAT     H258101   2.835   0.267   7.991
19287WAT      O58102   0.085   5.306   2.984
19287WAT     H158103   0.156   5.262   3.039
19287WAT     H258104   0.000   5.312   3.037
19288WAT      O58105   7.119   7.518   8.780
19288WAT     H158106   7.157   7.580   8.848
19288WAT     H258107   7.025   7.546   8.758
19289WAT      O58108   7.706   7.743   6.658
19289WAT     H158109   7.675   7.672   6.721
19289WAT     H258110   7.787   7.712   6.609
19290WAT      O58111   8.099   8.127   6.638
19290WAT     H158112   8.128   8.189   6.566
19290WAT     H258113   8.005   8.096   6.620
19291WAT      O58114   1.371   4.136   3.298
19291WAT     H158115   1.382   4.048   3.344
19291WAT     H258116   1.329   4.202   3.360
19292WAT      O58117   6.725   9.474   8.081
19292WAT     H158118   6.818   9.507   8.095
19292WAT     H258119   6.725   9.402   8.010
19293WAT      O58120   8.341   3.870   3.575
19293WAT     H158121   8.261   3.912   3.619
19293WAT     H258122   8.372   3.928   3.500
19294WAT      O58123   7.473   8.019   9.473
19294WAT     H158124   7.566   8.051   9.456
19294WAT     H258125   7.455   8.019   9.572
19295WAT      O58126   7.076   6.489   4.246
19295WAT     H158127   7.152   6.490   4.311
19295WAT     H258128   6.990   6.503   4.295
19296WAT      O58129   6.937   0.551   1.560
19296WAT     H158130   6.863   0.602   1.602
19296WAT     H258131   6.990   0.612   1.500
19297WAT      O58132   8.232   3.176   3.331
19297WAT     H158133   8.154   3.222   3.290
19297WAT     H258134   8.285   3.131   3.259
19298WAT      O58135   5.486   4.898   1.717
19298WAT     H158136   5.390   4.906   1.689
19298WAT     H258137   5.536   4.978   1.685
19299WAT      O58138   3.056   7.391   7.880
19299WAT     H158139   2.988   7.334   7.926
19299WAT     H258140   3.034   7.396   7.782
19300WAT      O58141   0.246   7.949   9.726
19300WAT     H158142   0.326   7.890   9.716
19300WAT     H258143   0.164   7.898   9.701
19301WAT      O58144   1.346   0.526   2.632
19301WAT     H158145   1.392   0.532   2.544
19301WAT     H258146   1.395   0.583   2.699
19302WAT      O58147   4.296   5.693   2.055
19302WAT     H158148   4.337   5.731   1.972
19302WAT     H258149   4.305   5.593   2.054
19303WAT      O58150   2.298   6.697   3.872
19303WAT     H158151   2.376   6.721   3.930
19303WAT     H258152   2.213   6.713   3.923
19304WAT      O58153   6.779   6.946   3.039
19304WAT     H158154   6.780   6.873   3.108
19304WAT     H258155   6.832   6.916   2.959
19305WAT      O58156   7.625   7.384   5.294
19305WAT     H158157   7.552   7.369   5.227
19305WAT     H258158   7.625   7.309   5.360
19306WAT      O58159   2.121   0.900   0.818
19306WAT     H158160   2.213   0.890   0.856
19306WAT     H258161   2.104   0.996   0.794
19307WAT      O58162   0.104   9.235   1.104
19307WAT     H158163   0.060   9.169   1.166
19307WAT     H258164   0.143   9.309   1.158
19308WAT      O58165   2.695   4.090   5.175
19308WAT     H158166   2.708   4.189   5.164
19308WAT     H258167   2.784   4.047   5.193
19309WAT      O58168   4.487   3.826   7.155
19309WAT     H158169   4.394   3.791   7.159
19309WAT     H258170   4.516   3.854   7.246
19310WAT      O58171   4.540   7.949   3.806
19310WAT     H158172   4.561   7.885   3.880
19310WAT     H258173   4.624   7.994   3.775
19311WAT      O58174   3.394   6.386   6.885
19311WAT     H158175   3.365   6.299   6.924
19311WAT     H258176   3.467   6.370   6.818
19312WAT      O58177   3.507   9.689   8.609
19312WAT     H158178   3.565   9.613   8.638
19312WAT     H258179   3.470   9.735   8.690
19313WAT      O58180   5.085   9.452   5.324
19313WAT     H158181   5.131   9.402   5.250
19313WAT     H258182   5.147   9.459   5.403
19314WAT      O58183   1.392   8.054   2.654
19314WAT     H158184   1.421   8.064   2.559
19314WAT     H258185   1.315   8.115   2.672
19315WAT      O58186   7.784   2.509   2.881
19315WAT     H158187   7.859   2.573   2.860
19315WAT     H258188   7.697   2.556   2.869
19316WAT      O58189   1.515   7.391   3.555
19316WAT     H158190   1.451   7.436   3.494
19316WAT     H258191   1.485   7.297   3.572
19317WAT      O58192   1.416   2.325   7.783
19317WAT     H158193   1.318   2.346   7.790
19317WAT     H258194   1.437   2.299   7.688
19318WAT      O58195   5.145   1.740   5.051
19318WAT     H158196   5.088   1.658   5.055
19318WAT     H258197   5.088   1.821   5.068
19319WAT      O58198   3.641   3.153   3.296
19319WAT     H158199   3.680   3.073   3.342
19319WAT     H258200   3.548   3.170   3.330
19320WAT      O58201   8.276   4.928   1.476
19320WAT     H158202   8.256   4.836   1.442
19320WAT     H258203   8.203   4.991   1.447
19321WAT      O58204   4.512   1.425   7.321
19321WAT     H158205   4.490   1.380   7.408
19321WAT     H258206   4.501   1.524   7.331
19322WAT      O58207   2.379   2.252   8.274
19322WAT     H158208   2.287   2.214   8.261
19322WAT     H258209   2.447   2.187   8.239
19323WAT      O58210   1.371   6.355   9.374
19323WAT     H158211   1.442   6.285   9.383
19323WAT     H258212   1.388   6.428   9.441
19324WAT      O58213   6.080   3.565   3.366
19324WAT     H158214   6.025   3.628   3.312
19324WAT     H258215   6.058   3.577   3.463
19325WAT      O58216   0.164   0.411   7.547
19325WAT     H158217   0.111   0.335   7.585
19325WAT     H258218   0.250   0.376   7.510
19326WAT      O58219   1.869   5.711   4.104
19326WAT     H158220   1.772   5.736   4.096
19326WAT     H258221   1.925   5.793   4.098
19327WAT      O58222   1.026   8.916   3.902
19327WAT     H158223   1.007   8.869   3.987
19327WAT     H258224   0.970   8.999   3.895
19328WAT      O58225   3.279   1.985   5.107
19328WAT     H158226   3.184   2.015   5.115
19328WAT     H258227   3.338   2.065   5.094
19329WAT      O58228   0.473   8.350   4.440
19329WAT     H158229   0.494   8.411   4.364
19329WAT     H258230   0.548   8.285   4.453
19330WAT      O58231   7.601   6.827   8.101
19330WAT     H158232   7.673   6.891   8.130
19330WAT     H258233   7.512   6.865   8.125
19331WAT      O58234   5.736   8.689   3.307
19331WAT     H158235   5.739   8.647   3.397
19331WAT     H258236   5.667   8.642   3.251
19332WAT      O58237   7.777   0.645   7.588
19332WAT     H158238   7.795   0.699   7.506
19332WAT     H258239   7.704   0.579   7.568
19333WAT      O58240   5.221   4.777   2.252
19333WAT     H158241   5.174   4.856   2.215
19333WAT     H258242   5.271   4.730   2.179
19334WAT      O58243   4.603   7.018   4.573
19334WAT     H158244   4.697   7.032   4.542
19334WAT     H258245   4.601   6.943   4.639
19335WAT      O58246   7.939   7.458   6.538
19335WAT     H158247   7.895   7.456   6.628
19335WAT     H258248   7.890   7.522   6.479
19336WAT      O58249   3.631   3.767   8.316
19336WAT     H158250   3.620   3.839   8.385
19336WAT     H258251   3.595   3.681   8.351
19337WAT      O58252   1.460   4.244   2.817
19337WAT     H158253   1.430   4.254   2.722
19337WAT     H258254   1.551   4.284   2.827
19338WAT      O58255   0.912   3.498   0.536
19338WAT     H158256   0.938   3.569   0.602
19338WAT     H258257   0.867   3.423   0.583
19339WAT      O58258   6.887   2.284   1.102
19339WAT     H158259   6.868   2.304   1.198
19339WAT     H258260   6.802   2.266   1.054
19340WAT      O58261   4.782   3.031   2.504
19340WAT     H158262   4.716   3.080   2.447
19340WAT     H258263   4.762   3.048   2.600
19341WAT      O58264   9.295   4.682   0.333
19341WAT     H158265   9.199   4.697   0.357
19341WAT     H258266   9.338   4.769   0.312
19342WAT      O58267   8.677   6.029   3.432
19342WAT     H158268   8.684   5.981   3.519
19342WAT     H258269   8.731   5.981   3.363
19343WAT      O58270   9.034   4.885   5.654
19343WAT     H158271   9.050   4.802   5.601
19343WAT     H258272   9.113   4.902   5.713
19344WAT      O58273   5.971   0.255   9.185
19344WAT     H158274   5.916   0.324   9.233
19344WAT     H258275   5.918   0.217   9.110
19345WAT      O58276   0.246   7.927   1.689
19345WAT     H158277   0.288   8.001   1.741
19345WAT     H258278   0.227   7.958   1.596
19346WAT      O58279   4.819   2.831   0.650
19346WAT     H158280   4.863   2.843   0.561
19346WAT     H258281   4.719   2.836   0.639
19347WAT      O58282   0.341   7.235   3.850
19347WAT     H158283   0.418   7.208   3.794
19347WAT     H258284   0.299   7.154   3.891
19348WAT      O58285   9.360   2.891   9.285
19348WAT     H158286   9.402   2.944   9.359
19348WAT     H258287   9.275   2.936   9.257
19349WAT      O58288   1.015   6.352   3.694
19349WAT     H158289   1.015   6.253   3.707
19349WAT     H258290   0.924   6.383   3.666
19350WAT      O58291   8.255   9.609   9.277
19350WAT     H158292   8.253   9.686   9.341
19350WAT     H258293   8.296   9.529   9.321
19351WAT      O58294   3.404   5.519   2.686
19351WAT     H158295   3.486   5.529   2.629
19351WAT     H258296   3.340   5.458   2.640
19352WAT      O58297   5.461   6.372   6.779
19352WAT     H158298   5.547   6.382   6.728
19352WAT     H258299   5.409   6.296   6.741
19353WAT      O58300   6.589   5.963   8.220
19353WAT     H158301   6.651   5.904   8.168
19353WAT     H258302   6.589   6.054   8.180
19354WAT      O58303   6.113   4.045   0.061
19354WAT     H158304   6.189   3.979   0.061
19354WAT     H258305   6.055   4.030  -0.018
19355WAT      O58306   1.118   8.220   3.019
19355WAT     H158307   1.198   8.241   3.075
19355WAT     H258308   1.103   8.295   2.954
19356WAT      O58309   1.208   1.610   3.724
19356WAT     H158310   1.231   1.525   3.771
19356WAT     H258311   1.202   1.594   3.626
19357WAT      O58312   7.697   4.566   4.641
19357WAT     H158313   7.674   4.520   4.727
19357WAT     H258314   7.795   4.586   4.640
19358WAT      O58315   7.315   4.559   8.789
19358WAT     H158316   7.398   4.587   8.741
19358WAT     H258317   7.251   4.636   8.793
19359WAT      O58318   4.825   6.479   9.162
19359WAT     H158319   4.782   6.528   9.086
19359WAT     H258320   4.758   6.463   9.234
19360WAT      O58321   6.507   0.035   6.328
19360WAT     H158322   6.503   0.133   6.349
19360WAT     H258323   6.601   0.009   6.308
19361WAT      O58324   8.863   8.022   4.497
19361WAT     H158325   8.894   8.026   4.402
19361WAT     H258326   8.913   7.950   4.545
19362WAT      O58327   4.702   1.873   3.829
19362WAT     H158328   4.696   1.968   3.799
19362WAT     H258329   4.768   1.866   3.904
19363WAT      O58330   0.108   7.259   0.868
19363WAT     H158331   0.182   7.205   0.908
19363WAT     H258332   0.106   7.349   0.912
19364WAT      O58333   6.924   1.821   6.414
19364WAT     H158334   6.916   1.920   6.425
19364WAT     H258335   6.897   1.775   6.498
19365WAT      O58336   4.042   7.540   8.553
19365WAT     H158337   4.062   7.610   8.485
19365WAT     H258338   4.103   7.551   8.631
19366WAT      O58339   4.389   5.760   7.758
19366WAT     H158340   4.418   5.855   7.756
19366WAT     H258341   4.334   5.740   7.677
19367WAT      O58342   9.722   7.538   5.316
19367WAT     H158343   9.624   7.523   5.309
19367WAT     H258344   9.761   7.552   5.225
19368WAT      O58345   9.195   4.331   5.063
19368WAT     H158346   9.174   4.240   5.028
19368WAT     H258347   9.218   4.392   4.987
19369WAT      O58348   9.796   4.504   4.694
19369WAT     H158349   9.721   4.544   4.746
19369WAT     H258350   9.817   4.563   4.616
19370WAT      O58351   7.543   1.337   8.277
19370WAT     H158352   7.478   1.309   8.348
19370WAT     H258353   7.595   1.258   8.246
19371WAT      O58354   4.002   3.305   4.202
19371WAT     H158355   4.044   3.274   4.116
19371WAT     H258356   4.033   3.246   4.277
19372WAT      O58357   8.424   9.473   8.948
19372WAT     H158358   8.486   9.425   8.886
19372WAT     H258359   8.373   9.542   8.897
19373WAT      O58360   8.175   0.515   1.016
19373WAT     H158361   8.161   0.540   1.112
19373WAT     H258362   8.254   0.565   0.980
19374WAT      O58363   8.679   0.868   4.802
19374WAT     H158364   8.680   0.946   4.739
19374WAT     H258365   8.670   0.784   4.750
19375WAT      O58366   2.017   3.163   8.377
19375WAT     H158367   1.987   3.071   8.354
19375WAT     H258368   2.116   3.172   8.361
19376WAT      O58369   7.724   2.542   4.195
19376WAT     H158370   7.807   2.489   4.177
19376WAT     H258371   7.698   2.531   4.292
19377WAT      O58372   3.096   2.657   6.819
19377WAT     H158373   3.150   2.630   6.739
19377WAT     H258374   3.131   2.743   6.855
19378WAT      O58375   6.754   5.776   6.217
19378WAT     H158376   6.662   5.742   6.237
19378WAT     H258377   6.752   5.875   6.206
19379WAT      O58378   1.645   6.737   0.079
19379WAT     H158379   1.569   6.794   0.050
19379WAT     H258380   1.709   6.725   0.003
19380WAT      O58381   9.731   6.281   7.996
19380WAT     H158382   9.691   6.357   7.944
19380WAT     H258383   9.730   6.198   7.940
19381WAT      O58384   3.082   2.939   3.056
19381WAT     H158385   3.020   2.863   3.034
19381WAT     H258386   3.031   3.025   3.057
19382WAT      O58387   7.920   5.829   1.503
19382WAT     H158388   7.867   5.771   1.564
19382WAT     H258389   7.982   5.886   1.557
19383WAT      O58390   6.697   3.958   1.739
19383WAT     H158391   6.688   4.041   1.793
19383WAT     H258392   6.747   3.889   1.792
19384WAT      O58393   5.750   5.584   1.095
19384WAT     H158394   5.804   5.571   1.178
19384WAT     H258395   5.689   5.506   1.082
19385WAT      O58396   0.161   2.531   7.809
19385WAT     H158397   0.183   2.556   7.714
19385WAT     H258398   0.182   2.607   7.869
19386WAT      O58399   6.909   5.053   0.041
19386WAT     H158400   7.004   5.022   0.041
19386WAT     H258401   6.850   4.981   0.078
19387WAT      O58402   6.603   2.076   3.644
19387WAT     H158403   6.507   2.105   3.640
19387WAT     H258404   6.634   2.049   3.553
19388WAT      O58405   0.497   4.369   2.069
19388WAT     H158406   0.555   4.375   1.988
19388WAT     H258407   0.481   4.273   2.093
19389WAT      O58408   2.384   6.434   6.263
19389WAT     H158409   2.380   6.527   6.298
19389WAT     H258410   2.385   6.370   6.340
19390WAT      O58411   5.054   6.863   1.281
19390WAT     H158412   5.031   6.951   1.322
19390WAT     H258413   4.988   6.794   1.310
19391WAT      O58414   8.242   4.066   6.921
19391WAT     H158415   8.230   4.147   6.977
19391WAT     H258416   8.202   3.987   6.967
19392WAT      O58417   2.658   5.489   8.947
19392WAT     H158418   2.614   5.559   8.890
19392WAT     H258419   2.752   5.518   8.967
19393WAT      O58420   6.337   8.760   9.040
19393WAT     H158421   6.323   8.820   9.119
19393WAT     H258422   6.344   8.815   8.957
19394WAT      O58423   7.127   1.837   2.285
19394WAT     H158424   7.180   1.771   2.339
19394WAT     H258425   7.162   1.840   2.192
19395WAT      O58426   1.491   8.673   3.531
19395WAT     H158427   1.413   8.732   3.550
19395WAT     H258428   1.467   8.578   3.554
19396WAT      O58429   5.695   7.144   2.366
19396WAT     H158430   5.679   7.045   2.366
19396WAT     H258431   5.610   7.192   2.387
19397WAT      O58432   3.767   7.373   1.867
19397WAT     H158433   3.810   7.420   1.943
19397WAT     H258434   3.716   7.294   1.901
19398WAT      O58435   5.866   0.154   4.629
19398WAT     H158436   5.887   0.077   4.690
19398WAT     H258437   5.932   0.227   4.646
19399WAT      O58438   4.350   8.282   5.087
19399WAT     H158439   4.344   8.200   5.030
19399WAT     H258440   4.336   8.258   5.183
19400WAT      O58441   0.234   8.995   8.533
19400WAT     H158442   0.152   8.995   8.591
19400WAT     H258443   0.257   9.089   8.508
19401WAT      O58444   3.010   0.729   0.671
19401WAT     H158445   2.979   0.683   0.754
19401WAT     H258446   3.062   0.664   0.614
19402WAT      O58447   7.874   1.219   0.924
19402WAT     H158448   7.916   1.188   1.009
19402WAT     H258449   7.813   1.148   0.890
19403WAT      O58450   8.705   2.156   1.946
19403WAT     H158451   8.747   2.141   2.036
19403WAT     H258452   8.775   2.187   1.882
19404WAT      O58453   4.049   4.924   2.831
19404WAT     H158454   4.076   4.994   2.766
19404WAT     H258455   3.988   4.858   2.786
19405WAT      O58456   8.025   8.568   7.032
19405WAT     H158457   8.038   8.577   6.933
19405WAT     H258458   8.075   8.640   7.079
19406WAT      O58459   0.165   4.907   9.027
19406WAT     H158460   0.110   4.838   8.980
19406WAT     H258461   0.123   4.997   9.016
19407WAT      O58462   6.403   9.096   9.695
19407WAT     H158463   6.450   9.080   9.782
19407WAT     H258464   6.469   9.094   9.620
19408WAT      O58465   6.083   3.250   3.729
19408WAT     H158466   6.123   3.329   3.683
19408WAT     H258467   5.987   3.241   3.701
19409WAT      O58468   2.558   4.100   8.124
19409WAT     H158469   2.553   4.174   8.056
19409WAT     H258470   2.589   4.137   8.211
19410WAT      O58471   0.749   9.502   8.010
19410WAT     H158472   0.796   9.543   8.087
19410WAT     H258473   0.698   9.421   8.040
19411WAT      O58474   6.437   2.054   1.184
19411WAT     H158475   6.502   2.070   1.258
19411WAT     H258476   6.352   2.104   1.203
19412WAT      O58477   2.397   4.839   9.692
19412WAT     H158478   2.472   4.883   9.641
19412WAT     H258479   2.368   4.899   9.766
19413WAT      O58480   3.053   8.433   9.286
19413WAT     H158481   2.998   8.419   9.204
19413WAT     H258482   3.000   8.485   9.353
19414WAT      O58483   5.446   1.735   0.374
19414WAT     H158484   5.538   1.724   0.413
19414WAT     H258485   5.452   1.782   0.286
19415WAT      O58486   2.315   5.191   5.284
19415WAT     H158487   2.235   5.162   5.337
19415WAT     H258488   2.380   5.115   5.277
19416WAT      O58489   4.561   6.141   7.158
19416WAT     H158490   4.589   6.049   7.131
19416WAT     H258491   4.643   6.197   7.173
19417WAT      O58492   8.834   1.812   1.446
19417WAT     H158493   8.798   1.775   1.532
19417WAT     H258494   8.770   1.879   1.408
19418WAT      O58495   3.370   0.920   7.647
19418WAT     H158496   3.276   0.884   7.649
19418WAT     H258497   3.415   0.891   7.563
19419WAT      O58498   6.830   4.475   4.794
19419WAT     H158499   6.864   4.543   4.728
19419WAT     H258500   6.816   4.388   4.748
19420WAT      O58501   7.538   6.665   5.359
19420WAT     H158502   7.633   6.669   5.389
19420WAT     H258503   7.534   6.636   5.264
19421WAT      O58504   1.745   5.545   8.372
19421WAT     H158505   1.822   5.500   8.418
19421WAT     H258506   1.776   5.630   8.330
19422WAT      O58507   0.206   0.712   1.530
19422WAT     H158508   0.191   0.613   1.533
19422WAT     H258509   0.135   0.754   1.474
19423WAT      O58510   2.000   7.282   0.466
19423WAT     H158511   2.005   7.185   0.490
19423WAT     H258512   1.906   7.315   0.476
19424WAT      O58513   8.778   9.168   1.242
19424WAT     H158514   8.828   9.217   1.170
19424WAT     H258515   8.838   9.156   1.321
19425WAT      O58516   1.766   6.270   5.631
19425WAT     H158517   1.765   6.361   5.674
19425WAT     H258518   1.678   6.225   5.647
19426WAT      O58519   3.725   6.374   2.521
19426WAT     H158520   3.798   6.328   2.573
19426WAT     H258521   3.637   6.355   2.565
19427WAT      O58522   5.112   7.253   6.813
19427WAT     H158523   5.087   7.197   6.892
19427WAT     H258524   5.060   7.223   6.733
19428WAT      O58525   8.022   4.456   9.590
19428WAT     H158526   7.929   4.422   9.602
19428WAT     H258527   8.077   4.435   9.671
19429WAT      O58528   6.728   6.851   9.802
19429WAT     H158529   6.645   6.816   9.845
19429WAT     H258530   6.711   6.864   9.704
19430WAT      O58531   2.916   2.219   0.678
19430WAT     H158532   2.943   2.141   0.622
19430WAT     H258533   2.931   2.198   0.775
19431WAT      O58534   0.435   5.422   9.425
19431WAT     H158535   0.414   5.500   9.367
19431WAT     H258536   0.534   5.411   9.433
19432WAT      O58537   9.195   0.015   4.324
19432WAT     H158538   9.192   0.084   4.397
19432WAT     H258539   9.113  -0.042   4.330
19433WAT      O58540   0.237   5.923   7.992
19433WAT     H158541   0.210   5.986   7.920
19433WAT     H258542   0.299   5.853   7.954
19434WAT      O58543   1.654   8.249   6.840
19434WAT     H158544   1.607   8.298   6.914
19434WAT     H258545   1.597   8.173   6.809
19435WAT      O58546   5.892   1.582   1.901
19435WAT     H158547   5.796   1.578   1.872
19435WAT     H258548   5.925   1.676   1.897
19436WAT      O58549   5.359   3.205   3.264
19436WAT     H158550   5.298   3.129   3.244
19436WAT     H258551   5.424   3.216   3.189
19437WAT      O58552   1.939   2.083   2.278
19437WAT     H158553   1.884   2.000   2.291
19437WAT     H258554   1.894   2.143   2.212
19438WAT      O58555   7.379   5.173   4.931
19438WAT     H158556   7.317   5.112   4.981
19438WAT     H258557   7.461   5.123   4.904
19439WAT      O58558   3.973   8.816   1.490
19439WAT     H158559   3.956   8.749   1.563
19439WAT     H258560   3.992   8.768   1.404
19440WAT      O58561   9.148   3.989   9.635
19440WAT     H158562   9.108   3.926   9.568
19440WAT     H258563   9.178   4.072   9.589
19441WAT      O58564   3.266   1.060   2.386
19441WAT     H158565   3.213   0.992   2.437
19441WAT     H258566   3.309   1.016   2.307
19442WAT      O58567   1.701   7.158   7.903
19442WAT     H158568   1.757   7.097   7.847
19442WAT     H258569   1.679   7.241   7.851
19443WAT      O58570   3.390   6.132   1.256
19443WAT     H158571   3.383   6.032   1.256
19443WAT     H258572   3.401   6.164   1.161
19444WAT      O58573   1.190   4.413   4.873
19444WAT     H158574   1.274   4.435   4.825
19444WAT     H258575   1.174   4.314   4.869
19445WAT      O58576   2.391   6.704   7.997
19445WAT     H158577   2.370   6.749   7.910
19445WAT     H258578   2.462   6.635   7.983
19446WAT      O58579   9.206   6.342   7.299
19446WAT     H158580   9.195   6.311   7.394
19446WAT     H258581   9.159   6.430   7.288
19447WAT      O58582   8.579   7.435   0.153
19447WAT     H158583   8.598   7.357   0.094
19447WAT     H258584   8.498   7.416   0.209
19448WAT      O58585   2.020   6.310   7.877
19448WAT     H158586   1.998   6.371   7.953
19448WAT     H258587   1.996   6.353   7.791
19449WAT      O58588   7.273   5.387   3.866
19449WAT     H158589   7.176   5.410   3.858
19449WAT     H258590   7.282   5.298   3.911
19450WAT      O58591   1.688   2.445   5.476
19450WAT     H158592   1.614   2.397   5.524
19450WAT     H258593   1.753   2.378   5.440
19451WAT      O58594   3.984   8.726   5.320
19451WAT     H158595   3.908   8.698   5.379
19451WAT     H258596   4.035   8.644   5.291
19452WAT      O58597   0.554   4.798   9.219
19452WAT     H158598   0.593   4.813   9.310
19452WAT     H258599   0.456   4.780   9.228
19453WAT      O58600   7.820   9.687   6.822
19453WAT     H158601   7.850   9.771   6.867
19453WAT     H258602   7.838   9.693   6.724
19454WAT      O58603   3.444   6.184   0.987
19454WAT     H158604   3.473   6.089   0.974
19454WAT     H258605   3.369   6.205   0.924
19455WAT      O58606   4.548   2.567   9.244
19455WAT     H158607   4.514   2.650   9.288
19455WAT     H258608   4.623   2.529   9.297
19456WAT      O58609   0.007   8.033   0.942
19456WAT     H158610   0.014   7.986   1.030
19456WAT     H258611  -0.043   7.975   0.878
19457WAT      O58612   2.207   9.576   2.427
19457WAT     H158613   2.111   9.562   2.402
19457WAT     H258614   2.257   9.491   2.415
19458WAT      O58615   6.050   8.933   2.197
19458WAT     H158616   6.035   9.028   2.224
19458WAT     H258617   6.045   8.875   2.278
19459WAT      O58618   0.574   3.578   9.810
19459WAT     H158619   0.540   3.620   9.894
19459WAT     H258620   0.634   3.642   9.762
19460WAT      O58621   2.404   9.273   2.670
19460WAT     H158622   2.450   9.361   2.682
19460WAT     H258623   2.455   9.217   2.605
19461WAT      O58624   6.394   8.815   6.327
19461WAT     H158625   6.315   8.860   6.285
19461WAT     H258626   6.369   8.721   6.352
19462WAT      O58627   2.218   4.535   0.169
19462WAT     H158628   2.289   4.604   0.187
19462WAT     H258629   2.203   4.528   0.070
19463WAT      O58630   2.043   1.076   0.572
19463WAT     H158631   2.111   1.132   0.619
19463WAT     H258632   1.960   1.069   0.628
19464WAT      O58633   3.114   9.734   8.884
19464WAT     H158634   3.058   9.691   8.955
19464WAT     H258635   3.180   9.668   8.849
19465WAT      O58636   0.030   4.667   3.969
19465WAT     H158637  -0.040   4.670   4.039
19465WAT     H258638   0.081   4.581   3.976
19466WAT      O58639   0.605   9.378   0.990
19466WAT     H158640   0.560   9.392   1.078
19466WAT     H258641   0.675   9.308   0.999
19467WAT      O58642   0.365   1.937   7.968
19467WAT     H158643   0.312   2.016   7.939
19467WAT     H258644   0.367   1.869   7.895
19468WAT      O58645   2.388   0.542   3.546
19468WAT     H158646   2.371   0.591   3.461
19468WAT     H258647   2.388   0.606   3.623
19469WAT      O58648   1.552   4.726   1.642
19469WAT     H158649   1.580   4.706   1.548
19469WAT     H258650   1.528   4.823   1.650
19470WAT      O58651   8.601   5.776   8.714
19470WAT     H158652   8.592   5.819   8.804
19470WAT     H258653   8.682   5.811   8.668
19471WAT      O58654   5.119   2.060   8.348
19471WAT     H158655   5.182   2.096   8.416
19471WAT     H258656   5.161   1.983   8.301
19472WAT      O58657   3.622   9.320   0.314
19472WAT     H158658   3.705   9.375   0.307
19472WAT     H258659   3.576   9.318   0.225
19473WAT      O58660   3.880   6.078   2.331
19473WAT     H158661   3.799   6.069   2.388
19473WAT     H258662   3.852   6.097   2.237
19474WAT      O58663   2.570   8.910   8.344
19474WAT     H158664   2.591   8.813   8.330
19474WAT     H258665   2.495   8.919   8.410
19475WAT      O58666   3.419   6.183   0.180
19475WAT     H158667   3.491   6.201   0.248
19475WAT     H258668   3.455   6.201   0.089
19476WAT      O58669   7.749   8.412   1.181
19476WAT     H158670   7.790   8.452   1.099
19476WAT     H258671   7.720   8.485   1.243
19477WAT      O58672   0.276   8.313   3.194
19477WAT     H158673   0.194   8.323   3.137
19477WAT     H258674   0.357   8.306   3.135
19478WAT      O58675   9.470   7.411   6.583
19478WAT     H158676   9.450   7.397   6.680
19478WAT     H258677   9.565   7.440   6.573
19479WAT      O58678   4.416   4.148   5.210
19479WAT     H158679   4.481   4.099   5.267
19479WAT     H258680   4.449   4.241   5.193
19480WAT      O58681   4.922   8.711   7.383
19480WAT     H158682   4.887   8.779   7.447
19480WAT     H258683   5.009   8.674   7.418
19481WAT      O58684   2.970   8.668   8.388
19481WAT     H158685   2.952   8.695   8.293
19481WAT     H258686   3.058   8.622   8.393
19482WAT      O58687   0.624   8.392   7.332
19482WAT     H158688   0.699   8.356   7.387
19482WAT     H258689   0.624   8.492   7.336
19483WAT      O58690   2.183   8.847   0.107
19483WAT     H158691   2.275   8.813   0.088
19483WAT     H258692   2.168   8.850   0.206
19484WAT      O58693   9.465   3.016   6.157
19484WAT     H158694   9.563   2.999   6.156
19484WAT     H258695   9.434   3.042   6.065
19485WAT      O58696   0.377   0.739   6.556
19485WAT     H158697   0.285   0.763   6.524
19485WAT     H258698   0.378   0.740   6.656
19486WAT      O58699   2.857   1.401   6.027
19486WAT     H158700   2.788   1.414   6.098
19486WAT     H258701   2.867   1.304   6.008
19487WAT      O58702   7.754   7.402   4.387
19487WAT     H158703   7.815   7.353   4.325
19487WAT     H258704   7.802   7.420   4.473
19488WAT      O58705   3.292   9.497   8.957
19488WAT     H158706   3.362   9.553   9.002
19488WAT     H258707   3.332   9.449   8.879
19489WAT      O58708   3.538   9.376   7.446
19489WAT     H158709   3.520   9.445   7.517
19489WAT     H258710   3.610   9.315   7.477
19490WAT      O58711   9.216   3.975   1.930
19490WAT     H158712   9.271   3.971   1.847
19490WAT     H258713   9.276   3.997   2.008
19491WAT      O58714   2.020   4.252   0.466
19491WAT     H158715   2.092   4.201   0.421
19491WAT     H258716   2.043   4.350   0.466
19492WAT      O58717   8.966   2.502   9.700
19492WAT     H158718   8.928   2.411   9.718
19492WAT     H258719   9.026   2.528   9.776
19493WAT      O58720   6.615   8.634   0.555
19493WAT     H158721   6.636   8.538   0.532
19493WAT     H258722   6.520   8.653   0.533
19494WAT      O58723   3.657   9.481   8.617
19494WAT     H158724   3.638   9.430   8.534
19494WAT     H258725   3.709   9.424   8.680
19495WAT      O58726   4.627   1.779   0.744
19495WAT     H158727   4.714   1.829   0.739
19495WAT     H258728   4.645   1.684   0.767
19496WAT      O58729   8.633   1.149   8.888
19496WAT     H158730   8.546   1.101   8.886
19496WAT     H258731   8.668   1.151   8.982
19497WAT      O58732   6.552   8.967   5.433
19497WAT     H158733   6.475   8.993   5.374
19497WAT     H258734   6.536   9.002   5.525
19498WAT      O58735   0.578   9.282   3.577
19498WAT     H158736   0.497   9.335   3.602
19498WAT     H258737   0.589   9.284   3.477
19499WAT      O58738   7.094   2.592   3.238
19499WAT     H158739   7.164   2.552   3.297
19499WAT     H258740   7.058   2.675   3.280
19500WAT      O58741   4.221   8.987   8.699
19500WAT     H158742   4.215   9.059   8.630
19500WAT     H258743   4.248   9.027   8.786
19501WAT      O58744   0.492   7.225   8.265
19501WAT     H158745   0.569   7.165   8.286
19501WAT     H258746   0.515   7.319   8.291
19502WAT      O58747   4.914   8.291   5.183
19502WAT     H158748   4.881   8.375   5.225
19502WAT     H258749   4.991   8.312   5.122
19503WAT      O58750   7.575   8.327   1.495
19503WAT     H158751   7.555   8.245   1.548
19503WAT     H258752   7.639   8.305   1.421
19504WAT      O58753   4.462   6.592   8.514
19504WAT     H158754   4.509   6.591   8.426
19504WAT     H258755   4.370   6.631   8.503
19505WAT      O58756   2.690   2.659   8.682
19505WAT     H158757   2.769   2.686   8.737
19505WAT     H258758   2.656   2.739   8.632
19506WAT      O58759   8.395   5.423   3.069
19506WAT     H158760   8.391   5.503   3.009
19506WAT     H258761   8.372   5.341   3.017
19507WAT      O58762   6.840   8.392   9.774
19507WAT     H158763   6.788   8.313   9.807
19507WAT     H258764   6.777   8.465   9.748
19508WAT      O58765   2.263   0.431   6.478
19508WAT     H158766   2.165   0.453   6.477
19508WAT     H258767   2.316   0.515   6.466
19509WAT      O58768   8.893   3.883   8.663
19509WAT     H158769   8.803   3.917   8.636
19509WAT     H258770   8.962   3.953   8.645
19510WAT      O58771   4.981   8.829   2.204
19510WAT     H158772   4.894   8.817   2.252
19510WAT     H258773   5.029   8.742   2.199
19511WAT      O58774   0.729   0.895   0.886
19511WAT     H158775   0.646   0.855   0.848
19511WAT     H258776   0.764   0.965   0.823
19512WAT      O58777   1.202   1.269   2.263
19512WAT     H158778   1.240   1.305   2.179
19512WAT     H258779   1.102   1.270   2.258
19513WAT      O58780   1.318   8.287   3.173
19513WAT     H158781   1.262   8.323   3.247
19513WAT     H258782   1.364   8.362   3.127
19514WAT      O58783   6.577   3.441   2.582
19514WAT     H158784   6.671   3.439   2.615
19514WAT     H258785   6.540   3.533   2.594
19515WAT      O58786   9.160   6.589   1.722
19515WAT     H158787   9.197   6.664   1.667
19515WAT     H258788   9.072   6.617   1.762
19516WAT      O58789   9.037   7.633   0.649
19516WAT     H158790   9.060   7.580   0.731
19516WAT     H258791   9.121   7.672   0.611
19517WAT      O58792   0.904   9.385   3.740
19517WAT     H158793   0.947   9.401   3.651
19517WAT     H258794   0.906   9.288   3.761
19518WAT      O58795   8.014   3.360   5.553
19518WAT     H158796   7.941   3.337   5.619
19518WAT     H258797   8.091   3.298   5.566
19519WAT      O58798   5.522   6.320   2.644
19519WAT     H158799   5.614   6.358   2.652
19519WAT     H258800   5.527   6.221   2.637
19520WAT      O58801   7.554   9.016   9.701
19520WAT     H158802   7.465   9.033   9.744
19520WAT     H258803   7.548   9.037   9.604
19521WAT      O58804   2.061   2.061   8.750
19521WAT     H158805   2.139   2.094   8.803
19521WAT     H258806   2.068   2.093   8.656
19522WAT      O58807   9.068   2.220   9.807
19522WAT     H158808   8.976   2.193   9.777
19522WAT     H258809   9.093   2.170   9.889
19523WAT      O58810   5.239   3.011   8.873
19523WAT     H158811   5.280   2.961   8.796
19523WAT     H258812   5.296   3.000   8.954
19524WAT      O58813   7.192   8.976   1.723
19524WAT     H158814   7.137   8.995   1.805
19524WAT     H258815   7.144   9.011   1.643
19525WAT      O58816   8.518   2.336   6.405
19525WAT     H158817   8.610   2.299   6.391
19525WAT     H258818   8.451   2.277   6.359
19526WAT      O58819   4.035   7.275   6.359
19526WAT     H158820   3.963   7.337   6.330
19526WAT     H258821   4.039   7.196   6.297
19527WAT      O58822   1.165   9.181   4.130
19527WAT     H158823   1.214   9.122   4.195
19527WAT     H258824   1.231   9.222   4.067
19528WAT      O58825   5.639   9.796   9.209
19528WAT     H158826   5.641   9.706   9.166
19528WAT     H258827   5.696   9.859   9.157
19529WAT      O58828   0.178   6.394   7.546
19529WAT     H158829   0.078   6.387   7.538
19529WAT     H258830   0.208   6.346   7.627
19530WAT      O58831   7.526   4.730   1.629
19530WAT     H158832   7.580   4.667   1.573
19530WAT     H258833   7.486   4.800   1.570
19531WAT      O58834   4.855   8.827   7.005
19531WAT     H158835   4.850   8.823   6.905
19531WAT     H258836   4.839   8.735   7.043
19532WAT      O58837   4.504   7.722   3.363
19532WAT     H158838   4.544   7.811   3.385
19532WAT     H258839   4.434   7.699   3.431
19533WAT      O58840   0.028   2.008   7.501
19533WAT     H158841   0.049   2.089   7.445
19533WAT     H258842  -0.052   1.961   7.462
19534WAT      O58843   9.843   2.684   5.529
19534WAT     H158844   9.905   2.615   5.494
19534WAT     H258845   9.833   2.674   5.628
19535WAT      O58846   0.885   0.005   2.744
19535WAT     H158847   0.972   0.039   2.779
19535WAT     H258848   0.810   0.046   2.796
19536WAT      O58849   1.748   7.233   8.151
19536WAT     H158850   1.796   7.155   8.193
19536WAT     H258851   1.738   7.218   8.053
19537WAT      O58852   7.130   1.415   6.408
19537WAT     H158853   7.090   1.390   6.320
19537WAT     H258854   7.182   1.499   6.398
19538WAT      O58855   2.932   4.925   8.095
19538WAT     H158856   3.019   4.890   8.060
19538WAT     H258857   2.862   4.855   8.083
19539WAT      O58858   0.346   0.449   5.113
19539WAT     H158859   0.413   0.376   5.129
19539WAT     H258860   0.392   0.531   5.080
19540WAT      O58861   8.999   3.406   6.538
19540WAT     H158862   8.944   3.460   6.474
19540WAT     H258863   9.039   3.466   6.607
19541WAT      O58864   1.031   9.379   2.748
19541WAT     H158865   0.947   9.390   2.696
19541WAT     H258866   1.009   9.364   2.845
19542WAT      O58867   5.228   4.866   0.020
19542WAT     H158868   5.300   4.914   0.069
19542WAT     H258869   5.223   4.901  -0.074
19543WAT      O58870   6.513   4.213   2.679
19543WAT     H158871   6.513   4.192   2.776
19543WAT     H258872   6.582   4.283   2.660
19544WAT      O58873   0.231   9.670   0.433
19544WAT     H158874   0.194   9.676   0.526
19544WAT     H258875   0.169   9.717   0.370
19545WAT      O58876   9.291   3.383   0.033
19545WAT     H158877   9.204   3.430   0.046
19545WAT     H258878   9.290   3.297   0.083
19546WAT      O58879   4.290   8.282   6.693
19546WAT     H158880   4.218   8.263   6.626
19546WAT     H258881   4.259   8.353   6.756
19547WAT      O58882   4.084   6.991   2.988
19547WAT     H158883   4.165   6.988   3.046
19547WAT     H258884   4.071   6.903   2.943
19548WAT      O58885   5.025   2.713   7.044
19548WAT     H158886   4.975   2.693   7.129
19548WAT     H258887   4.960   2.719   6.968
19549WAT      O58888   9.759   4.095   9.033
19549WAT     H158889   9.824   4.170   9.022
19549WAT     H258890   9.752   4.071   9.130
19550WAT      O58891   7.650   6.857   8.743
19550WAT     H158892   7.645   6.854   8.843
19550WAT     H258893   7.604   6.777   8.705
19551WAT      O58894   5.443   4.253   7.775
19551WAT     H158895   5.451   4.352   7.764
19551WAT     H258896   5.416   4.231   7.868
19552WAT      O58897   7.468   6.051   0.722
19552WAT     H158898   7.484   6.006   0.635
19552WAT     H258899   7.374   6.085   0.725
19553WAT      O58900   4.801   4.440   8.810
19553WAT     H158901   4.788   4.342   8.794
19553WAT     H258902   4.827   4.485   8.725
19554WAT      O58903   5.790   3.618   0.853
19554WAT     H158904   5.858   3.556   0.892
19554WAT     H258905   5.817   3.713   0.872
19555WAT      O58906   1.453   4.830   0.087
19555WAT     H158907   1.461   4.857  -0.009
19555WAT     H258908   1.412   4.904   0.139
19556WAT      O58909   9.187   7.720   0.044
19556WAT     H158910   9.261   7.664   0.008
19556WAT     H258911   9.107   7.714  -0.016
19557WAT      O58912   8.487   0.591   5.088
19557WAT     H158913   8.440   0.505   5.105
19557WAT     H258914   8.516   0.595   4.992
19558WAT      O58915   9.803   9.147   4.519
19558WAT     H158916   9.813   9.199   4.603
19558WAT     H258917   9.851   9.195   4.445
19559WAT      O58918   5.728   4.965   1.356
19559WAT     H158919   5.792   4.888   1.347
19559WAT     H258920   5.753   5.038   1.293
19560WAT      O58921   7.409   1.327   8.533
19560WAT     H158922   7.406   1.227   8.539
19560WAT     H258923   7.374   1.366   8.618
19561WAT      O58924   4.510   0.320   4.890
19561WAT     H158925   4.523   0.298   4.987
19561WAT     H258926   4.595   0.303   4.840
19562WAT      O58927   6.348   6.230   6.234
19562WAT     H158928   6.399   6.145   6.243
19562WAT     H258929   6.353   6.262   6.139
19563WAT      O58930   0.804   9.502   6.656
19563WAT     H158931   0.732   9.479   6.721
19563WAT     H258932   0.841   9.592   6.676
19564WAT      O58933   4.262   2.688   9.473
19564WAT     H158934   4.296   2.628   9.545
19564WAT     H258935   4.340   2.726   9.422
19565WAT      O58936   9.401   1.269   5.523
19565WAT     H158937   9.331   1.341   5.526
19565WAT     H258938   9.490   1.311   5.504
19566WAT      O58939   9.074   8.543   3.399
19566WAT     H158940   9.172   8.534   3.416
19566WAT     H258941   9.060   8.599   3.317
19567WAT      O58942   1.324   8.248   9.832
19567WAT     H158943   1.332   8.214   9.926
19567WAT     H258944   1.255   8.195   9.783
19568WAT      O58945   3.093   4.678  -0.000
19568WAT     H158946   3.052   4.587   0.005
19568WAT     H258947   3.169   4.684   0.065
19569WAT      O58948   9.699   8.295   9.204
19569WAT     H158949   9.664   8.202   9.202
19569WAT     H258950   9.639   8.353   9.260
19570WAT      O58951   2.927   1.596   0.756
19570WAT     H158952   2.917   1.559   0.664
19570WAT     H258953   3.025   1.609   0.776
19571WAT      O58954   1.407   4.548   7.754
19571WAT     H158955   1.447   4.535   7.845
19571WAT     H258956   1.469   4.604   7.699
19572WAT      O58957   0.380   8.624   1.883
19572WAT     H158958   0.346   8.714   1.911
19572WAT     H258959   0.399   8.624   1.785
19573WAT      O58960   8.938   5.952   5.680
19573WAT     H158961   8.844   5.954   5.711
19573WAT     H258962   8.968   6.044   5.655
19574WAT      O58963   6.684   5.141   2.808
19574WAT     H158964   6.780   5.135   2.836
19574WAT     H258965   6.629   5.175   2.884
19575WAT      O58966   0.952   8.803   6.189
19575WAT     H158967   0.977   8.772   6.097
19575WAT     H258968   0.929   8.900   6.186
19576WAT      O58969   5.818   8.453   0.519
19576WAT     H158970   5.790   8.398   0.441
19576WAT     H258971   5.738   8.497   0.561
19577WAT      O58972   0.231   0.832   0.352
19577WAT     H158973   0.222   0.747   0.301
19577WAT     H258974   0.212   0.910   0.291
19578WAT      O58975   5.385   8.592   4.125
19578WAT     H158976   5.481   8.573   4.147
19578WAT     H258977   5.373   8.689   4.105
19579WAT      O58978   7.650   2.219   0.905
19579WAT     H158979   7.561   2.197   0.946
19579WAT     H258980   7.688   2.136   0.865
19580WAT      O58981   5.352   4.678   8.771
19580WAT     H158982   5.297   4.605   8.812
19580WAT     H258983   5.412   4.717   8.840
19581WAT      O58984   9.519   8.975   8.348
19581WAT     H158985   9.606   8.929   8.369
19581WAT     H258986   9.530   9.035   8.270
19582WAT      O58987   1.453   5.229   3.636
19582WAT     H158988   1.426   5.266   3.547
19582WAT     H258989   1.375   5.233   3.699
19583WAT      O58990   2.038   4.912   3.483
19583WAT     H158991   2.063   4.824   3.525
19583WAT     H258992   2.059   4.986   3.546
19584WAT      O58993   4.152   4.418   9.639
19584WAT     H158994   4.183   4.512   9.624
19584WAT     H258995   4.128   4.376   9.552
19585WAT      O58996   6.143   5.052   4.888
19585WAT     H158997   6.069   4.992   4.857
19585WAT     H258998   6.190   5.090   4.809
19586WAT      O58999   5.577   3.033   4.691
19586WAT     H159000   5.541   2.962   4.630
19586WAT     H259001   5.566   3.123   4.649
19587WAT      O59002   0.264   2.197   3.783
19587WAT     H159003   0.204   2.126   3.820
19587WAT     H259004   0.218   2.243   3.707
19588WAT      O59005   7.723   1.674   3.728
19588WAT     H159006   7.657   1.629   3.667
19588WAT     H259007   7.796   1.714   3.673
19589WAT      O59008   3.766   6.997   7.242
19589WAT     H159009   3.858   7.007   7.281
19589WAT     H259010   3.716   6.928   7.294
19590WAT      O59011   7.458   2.241   4.186
19590WAT     H159012   7.393   2.165   4.183
19590WAT     H259013   7.426   2.315   4.127
19591WAT      O59014   4.761   7.637   4.671
19591WAT     H159015   4.795   7.601   4.584
19591WAT     H259016   4.677   7.689   4.655
19592WAT      O59017   6.155   7.810   1.564
19592WAT     H159018   6.058   7.817   1.587
19592WAT     H259019   6.205   7.885   1.606
19593WAT      O59020   2.297   7.131   2.265
19593WAT     H159021   2.226   7.146   2.197
19593WAT     H259022   2.387   7.150   2.225
19594WAT      O59023   3.725   2.470   3.481
19594WAT     H159024   3.765   2.378   3.483
19594WAT     H259025   3.697   2.496   3.574
19595WAT      O59026   2.848   3.850   8.128
19595WAT     H159027   2.787   3.776   8.154
19595WAT     H259028   2.829   3.877   8.033
19596WAT      O59029   4.632   6.092   2.252
19596WAT     H159030   4.614   5.993   2.249
19596WAT     H259031   4.548   6.139   2.280
19597WAT      O59032   3.340   8.054   3.621
19597WAT     H159033   3.405   8.129   3.618
19597WAT     H259034   3.365   7.985   3.552
19598WAT      O59035   0.588   3.746   9.294
19598WAT     H159036   0.511   3.705   9.343
19598WAT     H259037   0.599   3.841   9.324
19599WAT      O59038   8.596   5.878   8.025
19599WAT     H159039   8.599   5.918   7.933
19599WAT     H259040   8.592   5.951   8.093
19600WAT      O59041   7.523   2.026   4.741
19600WAT     H159042   7.561   2.019   4.649
19600WAT     H259043   7.472   2.111   4.750
19601WAT      O59044   3.352   8.549   4.063
19601WAT     H159045   3.359   8.522   3.967
19601WAT     H259046   3.435   8.597   4.090
19602WAT      O59047   1.843   2.638   3.377
19602WAT     H159048   1.942   2.620   3.374
19602WAT     H259049   1.805   2.604   3.462
19603WAT      O59050   0.771   7.659   7.439
19603WAT     H159051   0.809   7.695   7.353
19603WAT     H259052   0.726   7.572   7.421
19604WAT      O59053   6.610   9.123   0.430
19604WAT     H159054   6.664   9.160   0.354
19604WAT     H259055   6.513   9.135   0.411
19605WAT      O59056   6.925   4.950   8.458
19605WAT     H159057   6.968   4.975   8.371
19605WAT     H259058   6.980   4.985   8.534
19606WAT      O59059   3.983   1.866   1.208
19606WAT     H159060   4.004   1.930   1.282
19606WAT     H259061   4.068   1.830   1.171
19607WAT      O59062   1.151   3.737   9.271
19607WAT     H159063   1.218   3.708   9.339
19607WAT     H259064   1.198   3.759   9.186
19608WAT      O59065   6.615   0.801   8.862
19608WAT     H159066   6.530   0.823   8.814
19608WAT     H259067   6.652   0.884   8.903
19609WAT      O59068   8.069   2.054   0.699
19609WAT     H159069   7.999   1.984   0.689
19609WAT     H259070   8.050   2.130   0.637
19610WAT      O59071   7.553   7.768   1.717
19610WAT     H159072   7.479   7.717   1.763
19610WAT     H259073   7.522   7.861   1.699
19611WAT      O59074   9.267   7.796   7.707
19611WAT     H159075   9.193   7.863   7.715
19611WAT     H259076   9.314   7.788   7.794
19612WAT      O59077   1.832   9.157   3.938
19612WAT     H159078   1.926   9.184   3.961
19612WAT     H259079   1.832   9.063   3.904
19613WAT      O59080   6.080   4.843   4.229
19613WAT     H159081   5.996   4.794   4.207
19613WAT     H259082   6.081   4.931   4.182
19614WAT      O59083   3.692   2.549   3.722
19614WAT     H159084   3.621   2.619   3.729
19614WAT     H259085   3.758   2.561   3.795
19615WAT      O59086   0.211   3.440   3.363
19615WAT     H159087   0.211   3.534   3.328
19615WAT     H259088   0.117   3.414   3.385
19616WAT      O59089   0.637   4.980   3.619
19616WAT     H159090   0.671   5.031   3.540
19616WAT     H259091   0.543   4.951   3.603
19617WAT      O59092   5.715   1.599   5.872
19617WAT     H159093   5.651   1.532   5.835
19617WAT     H259094   5.730   1.581   5.969
19618WAT      O59095   8.583   4.836   4.448
19618WAT     H159096   8.529   4.920   4.456
19618WAT     H259097   8.522   4.757   4.453
19619WAT      O59098   6.277   3.480   9.260
19619WAT     H159099   6.280   3.390   9.217
19619WAT     H259100   6.359   3.494   9.314
19620WAT      O59101   4.144   2.117   9.315
19620WAT     H159102   4.160   2.094   9.411
19620WAT     H259103   4.141   2.217   9.304
19621WAT      O59104   4.692   8.757   2.339
19621WAT     H159105   4.650   8.846   2.322
19621WAT     H259106   4.627   8.684   2.316
19622WAT      O59107   4.858   1.429   1.147
19622WAT     H159108   4.907   1.452   1.064
19622WAT     H259109   4.851   1.510   1.205
19623WAT      O59110   8.258   3.871   2.496
19623WAT     H159111   8.278   3.919   2.410
19623WAT     H259112   8.332   3.808   2.517
19624WAT      O59113   8.098   3.074   5.518
19624WAT     H159114   8.012   3.087   5.468
19624WAT     H259115   8.138   2.986   5.492
19625WAT      O59116   9.754   1.203   1.459
19625WAT     H159117   9.739   1.205   1.360
19625WAT     H259118   9.795   1.116   1.485
19626WAT      O59119   5.349   4.467   1.184
19626WAT     H159120   5.315   4.378   1.152
19626WAT     H259121   5.350   4.467   1.284
19627WAT      O59122   9.207   0.610   7.254
19627WAT     H159123   9.137   0.638   7.188
19627WAT     H259124   9.262   0.689   7.280
19628WAT      O59125   9.212   1.962   3.900
19628WAT     H159126   9.164   1.935   3.984
19628WAT     H259127   9.277   2.035   3.922
19629WAT      O59128   5.231   7.848   0.321
19629WAT     H159129   5.264   7.759   0.289
19629WAT     H259130   5.223   7.910   0.243
19630WAT      O59131   8.709   6.485   1.728
19630WAT     H159132   8.710   6.388   1.752
19630WAT     H259133   8.795   6.527   1.756
19631WAT      O59134   9.803   8.444   8.125
19631WAT     H159135   9.776   8.415   8.033
19631WAT     H259136   9.855   8.371   8.169
19632WAT      O59137   1.304   3.152   7.570
19632WAT     H159138   1.300   3.125   7.667
19632WAT     H259139   1.318   3.251   7.564
19633WAT      O59140   3.053   9.671   5.164
19633WAT     H159141   3.106   9.659   5.080
19633WAT     H259142   2.975   9.609   5.163
19634WAT      O59143   0.804   2.638   6.951
19634WAT     H159144   0.755   2.666   6.868
19634WAT     H259145   0.863   2.560   6.931
19635WAT      O59146   9.820   3.209   1.613
19635WAT     H159147   9.905   3.255   1.637
19635WAT     H259148   9.804   3.218   1.514
19636WAT      O59149   1.003   1.998   6.480
19636WAT     H159150   0.990   1.917   6.537
19636WAT     H259151   1.062   1.976   6.403
19637WAT      O59152   8.473   9.477   5.281
19637WAT     H159153   8.465   9.390   5.330
19637WAT     H259154   8.510   9.547   5.342
19638WAT      O59155   6.437   8.190   4.342
19638WAT     H159156   6.529   8.226   4.356
19638WAT     H259157   6.441   8.090   4.335
19639WAT      O59158   4.173   8.676   5.521
19639WAT     H159159   4.187   8.699   5.424
19639WAT     H259160   4.156   8.759   5.573
19640WAT      O59161   2.788   6.585   4.546
19640WAT     H159162   2.690   6.575   4.559
19640WAT     H259163   2.833   6.600   4.634
19641WAT      O59164   7.543   3.976   8.082
19641WAT     H159165   7.451   3.937   8.082
19641WAT     H259166   7.587   3.957   8.170
19642WAT      O59167   9.733   4.659   4.172
19642WAT     H159168   9.684   4.573   4.157
19642WAT     H259169   9.729   4.683   4.269
19643WAT      O59170   9.340   5.190   9.532
19643WAT     H159171   9.246   5.215   9.554
19643WAT     H259172   9.376   5.251   9.461
19644WAT      O59173   8.366   5.623   3.452
19644WAT     H159174   8.296   5.687   3.482
19644WAT     H259175   8.432   5.671   3.394
19645WAT      O59176   6.780   3.652   0.110
19645WAT     H159177   6.826   3.661   0.198
19645WAT     H259178   6.764   3.743   0.072
19646WAT      O59179   4.599   3.885   6.368
19646WAT     H159180   4.613   3.958   6.302
19646WAT     H259181   4.687   3.851   6.399
19647WAT      O59182   3.578   6.821   3.810
19647WAT     H159183   3.566   6.896   3.875
19647WAT     H259184   3.510   6.750   3.829
19648WAT      O59185   8.157   1.140   5.835
19648WAT     H159186   8.142   1.176   5.743
19648WAT     H259187   8.249   1.102   5.841
19649WAT      O59188   0.547   0.793   7.977
19649WAT     H159189   0.593   0.793   7.888
19649WAT     H259190   0.448   0.801   7.963
19650WAT      O59191   3.575   4.642   8.703
19650WAT     H159192   3.511   4.715   8.677
19650WAT     H259193   3.668   4.671   8.684
19651WAT      O59194   6.209   3.060   1.830
19651WAT     H159195   6.236   3.124   1.902
19651WAT     H259196   6.125   3.013   1.856
19652WAT      O59197   1.699   6.131   4.979
19652WAT     H159198   1.643   6.051   4.998
19652WAT     H259199   1.779   6.104   4.926
19653WAT      O59200   9.324   5.653   6.882
19653WAT     H159201   9.342   5.687   6.790
19653WAT     H259202   9.406   5.665   6.938
19654WAT      O59203   4.980   8.697   9.826
19654WAT     H159204   4.963   8.599   9.818
19654WAT     H259205   4.893   8.745   9.837
19655WAT      O59206   1.077   7.368   1.695
19655WAT     H159207   1.028   7.298   1.642
19655WAT     H259208   1.147   7.325   1.751
19656WAT      O59209   7.076   2.948   0.373
19656WAT     H159210   7.037   2.989   0.291
19656WAT     H259211   7.003   2.902   0.425
19657WAT      O59212   9.329   7.141   8.915
19657WAT     H159213   9.341   7.130   8.816
19657WAT     H259214   9.306   7.237   8.935
19658WAT      O59215   3.723   1.790   6.695
19658WAT     H159216   3.699   1.865   6.755
19658WAT     H259217   3.640   1.740   6.668
19659WAT      O59218   3.910   3.100   8.232
19659WAT     H159219   3.992   3.066   8.186
19659WAT     H259220   3.834   3.101   8.167
19660WAT      O59221   8.543   0.461   1.782
19660WAT     H159222   8.590   0.374   1.800
19660WAT     H259223   8.493   0.489   1.864
19661WAT      O59224   1.756   4.916   4.080
19661WAT     H159225   1.670   4.867   4.092
19661WAT     H259226   1.744   5.012   4.106
19662WAT      O59227   7.047   8.468   3.873
19662WAT     H159228   7.007   8.380   3.850
19662WAT     H259229   7.008   8.539   3.814
19663WAT      O59230   2.732   8.486   8.956
19663WAT     H159231   2.765   8.553   9.023
19663WAT     H259232   2.640   8.511   8.927
19664WAT      O59233   8.457   9.664   4.125
19664WAT     H159234   8.445   9.569   4.155
19664WAT     H259235   8.367   9.705   4.109
19665WAT      O59236   1.404   9.382   1.823
19665WAT     H159237   1.405   9.477   1.792
19665WAT     H259238   1.412   9.321   1.744
19666WAT      O59239   5.582   5.609   2.391
19666WAT     H159240   5.569   5.592   2.293
19666WAT     H259241   5.547   5.531   2.443
19667WAT      O59242   6.994   1.889   6.788
19667WAT     H159243   6.943   1.865   6.871
19667WAT     H259244   6.989   1.988   6.773
19668WAT      O59245   6.114   3.074   8.748
19668WAT     H159246   6.177   3.051   8.822
19668WAT     H259247   6.078   3.167   8.763
19669WAT      O59248   7.898   9.643   7.339
19669WAT     H159249   7.928   9.555   7.304
19669WAT     H259250   7.835   9.685   7.274
19670WAT      O59251   8.365   1.428   9.407
19670WAT     H159252   8.341   1.413   9.503
19670WAT     H259253   8.444   1.371   9.383
19671WAT      O59254   6.729   6.641   8.160
19671WAT     H159255   6.760   6.731   8.192
19671WAT     H259256   6.797   6.601   8.099
19672WAT      O59257   8.083   6.145   0.697
19672WAT     H159258   8.019   6.093   0.753
19672WAT     H259259   8.032   6.195   0.626
19673WAT      O59260   0.602   3.329   1.207
19673WAT     H159261   0.543   3.401   1.244
19673WAT     H259262   0.586   3.319   1.109
19674WAT      O59263   0.690   2.143   5.159
19674WAT     H159264   0.591   2.160   5.152
19674WAT     H259265   0.725   2.188   5.241
19675WAT      O59266   7.317   7.638   3.207
19675WAT     H159267   7.395   7.690   3.171
19675WAT     H259268   7.348   7.546   3.233
19676WAT      O59269   5.570   5.337   7.713
19676WAT     H159270   5.575   5.247   7.669
19676WAT     H259271   5.642   5.343   7.782
19677WAT      O59272   5.671   9.311   4.647
19677WAT     H159273   5.617   9.378   4.596
19677WAT     H259274   5.610   9.244   4.688
19678WAT      O59275   4.600   3.527   2.664
19678WAT     H159276   4.563   3.486   2.581
19678WAT     H259277   4.588   3.463   2.740
19679WAT      O59278   7.522   1.795   1.594
19679WAT     H159279   7.608   1.778   1.642
19679WAT     H259280   7.446   1.786   1.658
19680WAT      O59281   5.760   1.526   7.529
19680WAT     H159282   5.742   1.624   7.539
19680WAT     H259283   5.809   1.493   7.610
19681WAT      O59284   0.393   5.565   6.978
19681WAT     H159285   0.373   5.663   6.976
19681WAT     H259286   0.461   5.546   7.049
19682WAT      O59287   4.763   7.833   9.006
19682WAT     H159288   4.729   7.800   8.917
19682WAT     H259289   4.719   7.782   9.079
19683WAT      O59290   8.567   8.606   1.848
19683WAT     H159291   8.585   8.662   1.767
19683WAT     H259292   8.607   8.650   1.929
19684WAT      O59293   9.104   1.262   4.849
19684WAT     H159294   9.155   1.245   4.934
19684WAT     H259295   9.160   1.317   4.787
19685WAT      O59296   4.900   0.041   7.253
19685WAT     H159297   4.801   0.044   7.248
19685WAT     H259298   4.931   0.076   7.341
19686WAT      O59299   7.920   0.864   5.671
19686WAT     H159300   7.918   0.946   5.728
19686WAT     H259301   7.876   0.883   5.584
19687WAT      O59302   8.762   0.612   9.366
19687WAT     H159303   8.674   0.575   9.336
19687WAT     H259304   8.763   0.619   9.465
19688WAT      O59305   8.566   0.598   7.219
19688WAT     H159306   8.494   0.573   7.284
19688WAT     H259307   8.568   0.531   7.145
19689WAT      O59308   4.453   5.719   5.144
19689WAT     H159309   4.470   5.803   5.093
19689WAT     H259310   4.507   5.719   5.228
19690WAT      O59311   5.504   0.377   1.788
19690WAT     H159312   5.536   0.429   1.867
19690WAT     H259313   5.568   0.302   1.769
19691WAT      O59314   2.724   9.468   8.875
19691WAT     H159315   2.773   9.432   8.955
19691WAT     H259316   2.790   9.504   8.809
19692WAT      O59317   7.821   0.773   7.325
19692WAT     H159318   7.831   0.872   7.318
19692WAT     H259319   7.819   0.734   7.233
19693WAT      O59320   4.464   5.944   3.394
19693WAT     H159321   4.485   5.864   3.450
19693WAT     H259322   4.549   5.983   3.359
19694WAT      O59323   4.486   4.561   4.316
19694WAT     H159324   4.497   4.644   4.261
19694WAT     H259325   4.390   4.537   4.321
19695WAT      O59326   0.875   5.141   8.680
19695WAT     H159327   0.801   5.075   8.678
19695WAT     H259328   0.883   5.187   8.592
19696WAT      O59329   4.222   6.504   9.356
19696WAT     H159330   4.132   6.538   9.384
19696WAT     H259331   4.270   6.465   9.434
19697WAT      O59332   8.231   6.901   0.816
19697WAT     H159333   8.291   6.965   0.768
19697WAT     H259334   8.165   6.862   0.751
19698WAT      O59335   7.402   7.038   7.786
19698WAT     H159336   7.407   7.126   7.834
19698WAT     H259337   7.312   7.031   7.741
19699WAT      O59338   9.039   8.101   5.429
19699WAT     H159339   9.061   8.199   5.431
19699WAT     H259340   9.020   8.073   5.335
19700WAT      O59341   5.848   9.395   5.225
19700WAT     H159342   5.765   9.342   5.207
19700WAT     H259343   5.831   9.491   5.200
19701WAT      O59344   5.116   0.910   4.778
19701WAT     H159345   5.103   0.822   4.823
19701WAT     H259346   5.196   0.956   4.816
19702WAT      O59347   4.450   3.937   6.906
19702WAT     H159348   4.459   3.923   7.005
19702WAT     H259349   4.539   3.921   6.862
19703WAT      O59350   2.638   2.612   5.769
19703WAT     H159351   2.687   2.647   5.689
19703WAT     H259352   2.611   2.517   5.752
19704WAT      O59353   6.667   3.502   7.345
19704WAT     H159354   6.609   3.556   7.406
19704WAT     H259355   6.616   3.480   7.262
19705WAT      O59356   1.802   3.303   2.781
19705WAT     H159357   1.894   3.294   2.820
19705WAT     H259358   1.751   3.219   2.799
19706WAT      O59359   2.393   7.432   3.876
19706WAT     H159360   2.469   7.374   3.905
19706WAT     H259361   2.357   7.398   3.789
19707WAT      O59362   9.447   2.891   0.831
19707WAT     H159363   9.536   2.914   0.871
19707WAT     H259364   9.458   2.813   0.769
19708WAT      O59365   7.764   7.753   8.684
19708WAT     H159366   7.856   7.791   8.687
19708WAT     H259367   7.701   7.821   8.646
19709WAT      O59368   4.601   2.724   3.176
19709WAT     H159369   4.653   2.804   3.205
19709WAT     H259370   4.660   2.643   3.177
19710WAT      O59371   1.747   4.117   9.570
19710WAT     H159372   1.684   4.042   9.553
19710WAT     H259373   1.841   4.084   9.565
19711WAT      O59374   6.287   3.844   3.476
19711WAT     H159375   6.315   3.763   3.424
19711WAT     H259376   6.367   3.902   3.492
19712WAT      O59377   1.180   2.470   0.049
19712WAT     H159378   1.235   2.553   0.040
19712WAT     H259379   1.130   2.454  -0.036
19713WAT      O59380   5.515   2.084   1.124
19713WAT     H159381   5.574   2.077   1.204
19713WAT     H259382   5.434   2.138   1.146
19714WAT      O59383   2.756   5.624   5.222
19714WAT     H159384   2.843   5.582   5.195
19714WAT     H259385   2.698   5.637   5.142
19715WAT      O59386   1.012   6.202   4.910
19715WAT     H159387   0.940   6.151   4.956
19715WAT     H259388   1.102   6.166   4.937
19716WAT      O59389   9.248   8.221   0.446
19716WAT     H159390   9.231   8.253   0.353
19716WAT     H259391   9.324   8.273   0.485
19717WAT      O59392   5.446   9.252   0.182
19717WAT     H159393   5.503   9.196   0.122
19717WAT     H259394   5.438   9.344   0.144
19718WAT      O59395   2.476   3.969   7.721
19718WAT     H159396   2.467   3.944   7.817
19718WAT     H259397   2.549   3.915   7.679
19719WAT      O59398   9.572   2.309   1.273
19719WAT     H159399   9.559   2.342   1.367
19719WAT     H259400   9.494   2.338   1.217
19720WAT      O59401   0.581   9.542   6.837
19720WAT     H159402   0.498   9.487   6.841
19720WAT     H259403   0.629   9.537   6.925
19721WAT      O59404   8.434   0.763   5.781
19721WAT     H159405   8.526   0.760   5.742
19721WAT     H259406   8.435   0.728   5.874
19722WAT      O59407   0.618   7.784   7.965
19722WAT     H159408   0.577   7.692   7.971
19722WAT     H259409   0.705   7.784   8.014
19723WAT      O59410   2.117   9.277   0.946
19723WAT     H159411   2.209   9.259   0.911
19723WAT     H259412   2.105   9.376   0.957
19724WAT      O59413   8.964   9.349   4.173
19724WAT     H159414   8.904   9.420   4.209
19724WAT     H259415   8.910   9.282   4.123
19725WAT      O59416   6.076   0.707   2.745
19725WAT     H159417   6.002   0.732   2.808
19725WAT     H259418   6.036   0.681   2.657
19726WAT      O59419   5.959   1.991   3.228
19726WAT     H159420   6.054   1.994   3.257
19726WAT     H259421   5.901   1.963   3.304
19727WAT      O59422   7.675   1.819   8.554
19727WAT     H159423   7.595   1.797   8.498
19727WAT     H259424   7.753   1.836   8.494
19728WAT      O59425   5.062   3.308   6.309
19728WAT     H159426   5.011   3.385   6.349
19728WAT     H259427   5.007   3.268   6.235
19729WAT      O59428   1.365   8.853   5.969
19729WAT     H159429   1.459   8.828   5.946
19729WAT     H259430   1.365   8.914   6.049
19730WAT      O59431   8.070   2.363   3.977
19730WAT     H159432   8.085   2.411   3.891
19730WAT     H259433   8.138   2.392   4.044
19731WAT      O59434   4.877   5.305   5.582
19731WAT     H159435   4.946   5.330   5.513
19731WAT     H259436   4.786   5.311   5.541
19732WAT      O59437   8.885   3.099   2.512
19732WAT     H159438   8.859   3.018   2.459
19732WAT     H259439   8.982   3.093   2.535
19733WAT      O59440   3.424   6.347   7.687
19733WAT     H159441   3.420   6.447   7.689
19733WAT     H259442   3.434   6.312   7.780
19734WAT      O59443   8.978   7.614   0.255
19734WAT     H159444   9.039   7.549   0.299
19734WAT     H259445   9.019   7.644   0.168
19735WAT      O59446   0.512   6.780   2.106
19735WAT     H159447   0.451   6.754   2.032
19735WAT     H259448   0.479   6.740   2.192
19736WAT      O59449   1.932   6.496   2.670
19736WAT     H159450   1.910   6.405   2.634
19736WAT     H259451   1.882   6.565   2.617
19737WAT      O59452   1.461   9.384   7.986
19737WAT     H159453   1.419   9.302   8.026
19737WAT     H259454   1.456   9.378   7.887
19738WAT      O59455   9.532   2.224   8.513
19738WAT     H159456   9.598   2.149   8.515
19738WAT     H259457   9.533   2.268   8.423
19739WAT      O59458   1.977   3.116   5.864
19739WAT     H159459   1.973   3.162   5.776
19739WAT     H259460   2.060   3.145   5.913
19740WAT      O59461   3.274   8.675   5.183
19740WAT     H159462   3.264   8.655   5.086
19740WAT     H259463   3.227   8.760   5.205
19741WAT      O59464   1.635   8.739   7.385
19741WAT     H159465   1.622   8.641   7.373
19741WAT     H259466   1.728   8.764   7.357
19742WAT      O59467   9.785   2.602   0.079
19742WAT     H159468   9.693   2.609   0.039
19742WAT     H259469   9.783   2.639   0.172
19743WAT      O59470   8.266   1.666   3.974
19743WAT     H159471   8.261   1.763   3.949
19743WAT     H259472   8.177   1.623   3.958
19744WAT      O59473   8.576   7.923   5.455
19744WAT     H159474   8.483   7.932   5.491
19744WAT     H259475   8.614   8.014   5.438
19745WAT      O59476   1.700   6.617   4.556
19745WAT     H159477   1.725   6.572   4.471
19745WAT     H259478   1.600   6.624   4.562
19746WAT      O59479   4.448   2.859   2.704
19746WAT     H159480   4.434   2.801   2.785
19746WAT     H259481   4.544   2.852   2.675
19747WAT      O59482   8.859   4.987   8.340
19747WAT     H159483   8.803   5.069   8.333
19747WAT     H259484   8.938   5.005   8.398
19748WAT      O59485   5.323   4.239   8.007
19748WAT     H159486   5.240   4.294   8.023
19748WAT     H259487   5.356   4.203   8.095
19749WAT      O59488   2.494   4.859   6.081
19749WAT     H159489   2.410   4.864   6.027
19749WAT     H259490   2.573   4.867   6.021
19750WAT      O59491   6.278   5.838   2.548
19750WAT     H159492   6.271   5.820   2.450
19750WAT     H259493   6.209   5.784   2.596
19751WAT      O59494   5.992   7.020   7.646
19751WAT     H159495   5.977   6.958   7.569
19751WAT     H259496   5.904   7.039   7.691
19752WAT      O59497   4.645   5.686   7.187
19752WAT     H159498   4.592   5.609   7.221
19752WAT     H259499   4.681   5.739   7.264
19753WAT      O59500   0.062   6.660   7.816
19753WAT     H159501   0.050   6.698   7.907
19753WAT     H259502   0.132   6.589   7.818
19754WAT      O59503   4.138   0.538   3.879
19754WAT     H159504   4.064   0.482   3.917
19754WAT     H259505   4.101   0.626   3.851
19755WAT      O59506   1.710   0.536   7.623
19755WAT     H159507   1.710   0.555   7.525
19755WAT     H259508   1.776   0.463   7.643
19756WAT      O59509   9.234   8.831   2.449
19756WAT     H159510   9.255   8.903   2.515
19756WAT     H259511   9.316   8.775   2.434
19757WAT      O59512   6.826   4.261   5.974
19757WAT     H159513   6.898   4.202   6.011
19757WAT     H259514   6.828   4.255   5.874
19758WAT      O59515   7.583   7.400   1.701
19758WAT     H159516   7.539   7.345   1.630
19758WAT     H259517   7.613   7.487   1.662
19759WAT      O59518   7.976   0.637   3.076
19759WAT     H159519   7.930   0.719   3.042
19759WAT     H259520   7.908   0.572   3.108
19760WAT      O59521   3.521   0.653   4.956
19760WAT     H159522   3.424   0.650   4.980
19760WAT     H259523   3.565   0.729   5.003
19761WAT      O59524   1.201   3.547   2.752
19761WAT     H159525   1.261   3.627   2.757
19761WAT     H259526   1.135   3.560   2.679
19762WAT      O59527   1.613   0.033   7.970
19762WAT     H159528   1.655  -0.017   7.894
19762WAT     H259529   1.558  -0.029   8.026
19763WAT      O59530   4.022   2.721   0.873
19763WAT     H159531   4.062   2.632   0.894
19763WAT     H259532   3.985   2.719   0.780
19764WAT      O59533   6.282   5.544   6.618
19764WAT     H159534   6.292   5.455   6.662
19764WAT     H259535   6.224   5.535   6.537
19765WAT      O59536   6.193   4.760   3.178
19765WAT     H159537   6.129   4.763   3.101
19765WAT     H259538   6.189   4.845   3.229
19766WAT      O59539   4.484   3.333   3.544
19766WAT     H159540   4.578   3.352   3.514
19766WAT     H259541   4.474   3.361   3.640
19767WAT      O59542   8.912   8.337   2.343
19767WAT     H159543   8.988   8.351   2.281
19767WAT     H259544   8.843   8.279   2.300
19768WAT      O59545   8.494   1.574   8.302
19768WAT     H159546   8.416   1.613   8.351
19768WAT     H259547   8.534   1.501   8.357
19769WAT      O59548   6.845   4.718   7.506
19769WAT     H159549   6.823   4.732   7.409
19769WAT     H259550   6.761   4.699   7.557
19770WAT      O59551   4.207   6.305   4.671
19770WAT     H159552   4.278   6.295   4.741
19770WAT     H259553   4.249   6.338   4.586
19771WAT      O59554   1.609   2.557   1.415
19771WAT     H159555   1.562   2.645   1.406
19771WAT     H259556   1.625   2.538   1.512
19772WAT      O59557   3.286   9.124   1.149
19772WAT     H159558   3.237   9.098   1.065
19772WAT     H259559   3.249   9.210   1.183
19773WAT      O59560   3.849   5.062   1.096
19773WAT     H159561   3.906   5.144   1.095
19773WAT     H259562   3.838   5.028   1.003
19774WAT      O59563   7.420   8.391   8.245
19774WAT     H159564   7.434   8.408   8.147
19774WAT     H259565   7.358   8.461   8.282
19775WAT      O59566   7.184   5.517   4.808
19775WAT     H159567   7.208   5.511   4.905
19775WAT     H259568   7.248   5.579   4.762
19776WAT      O59569   2.500   0.813   6.675
19776WAT     H159570   2.600   0.822   6.679
19776WAT     H259571   2.457   0.888   6.724
19777WAT      O59572   3.180   5.314   3.874
19777WAT     H159573   3.144   5.249   3.940
19777WAT     H259574   3.234   5.384   3.921
19778WAT      O59575   4.951   7.306   2.257
19778WAT     H159576   4.957   7.307   2.356
19778WAT     H259577   5.028   7.254   2.219
19779WAT      O59578   1.912   5.892   2.582
19779WAT     H159579   1.848   5.816   2.573
19779WAT     H259580   1.876   5.960   2.645
19780WAT      O59581   1.781   9.338   4.581
19780WAT     H159582   1.752   9.421   4.534
19780WAT     H259583   1.701   9.283   4.605
19781WAT      O59584   4.398   5.234   8.645
19781WAT     H159585   4.485   5.266   8.608
19781WAT     H259586   4.325   5.294   8.614
19782WAT      O59587   6.303   5.258   8.825
19782WAT     H159588   6.401   5.258   8.845
19782WAT     H259589   6.253   5.303   8.899
19783WAT      O59590   4.721   8.914   7.253
19783WAT     H159591   4.737   8.902   7.156
19783WAT     H259592   4.623   8.901   7.272
19784WAT      O59593   1.873   9.112   8.549
19784WAT     H159594   1.804   9.062   8.496
19784WAT     H259595   1.913   9.051   8.618
19785WAT      O59596   0.800   2.151   4.233
19785WAT     H159597   0.885   2.166   4.183
19785WAT     H259598   0.733   2.107   4.173
19786WAT      O59599   8.819   7.320   6.169
19786WAT     H159600   8.838   7.237   6.222
19786WAT     H259601   8.721   7.328   6.153
19787WAT      O59602   6.629   8.136   7.038
19787WAT     H159603   6.688   8.171   6.966
19787WAT     H259604   6.641   8.037   7.047
19788WAT      O59605   8.245   4.240   0.553
19788WAT     H159606   8.182   4.244   0.631
19788WAT     H259607   8.192   4.239   0.468
19789WAT      O59608   6.330   6.215   7.615
19789WAT     H159609   6.370   6.166   7.537
19789WAT     H259610   6.237   6.243   7.592
19790WAT      O59611   2.032   2.158   4.549
19790WAT     H159612   2.038   2.150   4.649
19790WAT     H259613   2.013   2.253   4.524
19791WAT      O59614   1.688   5.364   0.519
19791WAT     H159615   1.715   5.268   0.523
19791WAT     H259616   1.764   5.421   0.551
19792WAT      O59617   2.639   8.388   0.934
19792WAT     H159618   2.681   8.477   0.918
19792WAT     H259619   2.709   8.323   0.963
19793WAT      O59620   3.597   0.768   0.522
19793WAT     H159621   3.665   0.710   0.478
19793WAT     H259622   3.644   0.839   0.576
19794WAT      O59623   5.956   0.695   0.950
19794WAT     H159624   5.865   0.673   0.986
19794WAT     H259625   5.946   0.741   0.862
19795WAT      O59626   4.917   6.510   0.316
19795WAT     H159627   4.859   6.431   0.336
19795WAT     H259628   4.946   6.553   0.402
19796WAT      O59629   7.195   9.595   0.032
19796WAT     H159630   7.111   9.632   0.073
19796WAT     H259631   7.215   9.507   0.075
19797WAT      O59632   0.743   8.017   6.112
19797WAT     H159633   0.822   8.078   6.125
19797WAT     H259634   0.660   8.072   6.103
19798WAT      O59635   7.251   1.947   0.931
19798WAT     H159636   7.242   1.851   0.957
19798WAT     H259637   7.184   2.002   0.981
19799WAT      O59638   5.143   7.056   9.848
19799WAT     H159639   5.226   7.008   9.821
19799WAT     H259640   5.084   7.070   9.768
19800WAT      O59641   4.458   8.033   6.420
19800WAT     H159642   4.487   8.113   6.472
19800WAT     H259643   4.536   7.996   6.369
19801WAT      O59644   8.817   1.068   1.002
19801WAT     H159645   8.916   1.066   1.020
19801WAT     H259646   8.776   1.143   1.052
19802WAT      O59647   9.871   9.019   1.992
19802WAT     H159648   9.809   9.015   1.914
19802WAT     H259649   9.945   9.084   1.973
19803WAT      O59650   7.021   3.186   0.940
19803WAT     H159651   7.050   3.160   0.848
19803WAT     H259652   7.047   3.115   1.005
19804WAT      O59653   2.634   7.127   8.453
19804WAT     H159654   2.591   7.039   8.469
19804WAT     H259655   2.665   7.165   8.540
19805WAT      O59656   8.347   6.538   8.710
19805WAT     H159657   8.250   6.528   8.685
19805WAT     H259658   8.360   6.626   8.756
19806WAT      O59659   8.813   3.254   6.894
19806WAT     H159660   8.776   3.340   6.858
19806WAT     H259661   8.774   3.236   6.985
19807WAT      O59662   3.526   2.691   0.212
19807WAT     H159663   3.513   2.789   0.231
19807WAT     H259664   3.609   2.678   0.160
19808WAT      O59665   4.166   9.460   3.588
19808WAT     H159666   4.085   9.438   3.642
19808WAT     H259667   4.229   9.382   3.590
19809WAT      O59668   7.160   4.400   6.100
19809WAT     H159669   7.093   4.468   6.071
19809WAT     H259670   7.239   4.403   6.039
19810WAT      O59671   6.836   5.227   7.417
19810WAT     H159672   6.742   5.206   7.442
19810WAT     H259673   6.842   5.239   7.318
19811WAT      O59674   5.018   7.525   5.204
19811WAT     H159675   5.024   7.498   5.300
19811WAT     H259676   4.924   7.514   5.172
19812WAT      O59677   6.974   6.750   1.157
19812WAT     H159678   6.959   6.688   1.080
19812WAT     H259679   6.886   6.775   1.198
19813WAT      O59680   2.149   1.821   4.315
19813WAT     H159681   2.187   1.754   4.379
19813WAT     H259682   2.062   1.856   4.351
19814WAT      O59683   5.459   2.153   3.526
19814WAT     H159684   5.536   2.100   3.564
19814WAT     H259685   5.387   2.091   3.497
19815WAT      O59686   8.968   1.158   4.242
19815WAT     H159687   8.885   1.126   4.198
19815WAT     H259688   9.009   1.083   4.294
19816WAT      O59689   4.843   0.106   5.438
19816WAT     H159690   4.770   0.056   5.391
19816WAT     H259691   4.849   0.199   5.401
19817WAT      O59692   0.017   7.072   1.193
19817WAT     H159693  -0.034   7.042   1.273
19817WAT     H259694   0.112   7.039   1.199
19818WAT      O59695   7.578   7.258   9.640
19818WAT     H159696   7.548   7.164   9.651
19818WAT     H259697   7.665   7.259   9.591
19819WAT      O59698   5.139   7.205   5.462
19819WAT     H159699   5.167   7.301   5.468
19819WAT     H259700   5.043   7.196   5.489
19820WAT      O59701   7.512   1.308   5.314
19820WAT     H159702   7.462   1.317   5.228
19820WAT     H259703   7.516   1.211   5.340
19821WAT      O59704   9.486   7.756   8.885
19821WAT     H159705   9.552   7.682   8.872
19821WAT     H259706   9.515   7.836   8.832
19822WAT      O59707   2.594   5.583   3.834
19822WAT     H159708   2.610   5.488   3.806
19822WAT     H259709   2.499   5.607   3.818
19823WAT      O59710   0.884   8.397   4.513
19823WAT     H159711   0.890   8.301   4.539
19823WAT     H259712   0.934   8.453   4.578
19824WAT      O59713   8.523   2.206   0.242
19824WAT     H159714   8.426   2.180   0.252
19824WAT     H259715   8.562   2.158   0.163
19825WAT      O59716   8.384   6.833   1.721
19825WAT     H159717   8.334   6.870   1.642
19825WAT     H259718   8.324   6.829   1.800
19826WAT      O59719   2.905   9.798   7.295
19826WAT     H159720   2.953   9.723   7.340
19826WAT     H259721   2.927   9.800   7.198
19827WAT      O59722   2.892   5.400   0.676
19827WAT     H159723   2.923   5.461   0.749
19827WAT     H259724   2.795   5.380   0.687
19828WAT      O59725   0.651   2.507   5.991
19828WAT     H159726   0.636   2.409   6.010
19828WAT     H259727   0.564   2.551   5.973
19829WAT      O59728   9.094   6.095   9.250
19829WAT     H159729   9.091   6.107   9.151
19829WAT     H259730   9.017   6.039   9.280
19830WAT      O59731   1.044   5.350   8.341
19830WAT     H159732   0.946   5.359   8.329
19830WAT     H259733   1.068   5.373   8.436
19831WAT      O59734   6.960   5.426   9.517
19831WAT     H159735   7.031   5.450   9.451
19831WAT     H259736   7.002   5.405   9.606
19832WAT      O59737   7.497   2.997   5.902
19832WAT     H159738   7.411   3.035   5.869
19832WAT     H259739   7.535   2.935   5.834
19833WAT      O59740   8.962   1.945   1.092
19833WAT     H159741   8.979   1.860   1.142
19833WAT     H259742   8.890   1.997   1.138
19834WAT      O59743   7.186   1.840   9.071
19834WAT     H159744   7.210   1.900   9.148
19834WAT     H259745   7.267   1.822   9.016
19835WAT      O59746   5.364   8.912   0.948
19835WAT     H159747   5.389   8.819   0.919
19835WAT     H259748   5.433   8.976   0.915
19836WAT      O59749   4.002   5.220   2.953
19836WAT     H159750   3.958   5.173   3.029
19836WAT     H259751   4.098   5.237   2.976
19837WAT      O59752   9.026   8.445   4.287
19837WAT     H159753   8.976   8.488   4.362
19837WAT     H259754   8.962   8.397   4.227
19838WAT      O59755   5.093   8.994   8.690
19838WAT     H159756   5.042   8.925   8.639
19838WAT     H259757   5.041   9.019   8.772
19839WAT      O59758   5.062   2.113   5.712
19839WAT     H159759   5.023   2.030   5.672
19839WAT     H259760   5.153   2.129   5.676
19840WAT      O59761   1.010   2.458   3.026
19840WAT     H159762   0.946   2.399   2.976
19840WAT     H259763   1.075   2.499   2.962
19841WAT      O59764   7.959   5.159   2.243
19841WAT     H159765   8.040   5.102   2.227
19841WAT     H259766   7.926   5.195   2.155
19842WAT      O59767   8.595   9.007   0.944
19842WAT     H159768   8.511   8.996   0.891
19842WAT     H259769   8.586   9.086   1.006
19843WAT      O59770   4.525   4.502   1.488
19843WAT     H159771   4.492   4.409   1.474
19843WAT     H259772   4.625   4.504   1.476
19844WAT      O59773   0.509   6.207   7.877
19844WAT     H159774   0.537   6.302   7.880
19844WAT     H259775   0.534   6.162   7.963
19845WAT      O59776   4.045   1.849   0.004
19845WAT     H159777   3.983   1.919   0.039
19845WAT     H259778   4.013   1.817  -0.085
19846WAT      O59779   3.678   3.911   3.781
19846WAT     H159780   3.748   3.884   3.846
19846WAT     H259781   3.654   4.007   3.795
19847WAT      O59782   4.673   9.015   5.741
19847WAT     H159783   4.617   9.096   5.725
19847WAT     H259784   4.684   8.964   5.656
19848WAT      O59785   0.043   5.092   4.008
19848WAT     H159786   0.007   5.134   3.924
19848WAT     H259787  -0.032   5.081   4.074
19849WAT      O59788   4.648   2.528   5.846
19849WAT     H159789   4.676   2.580   5.765
19849WAT     H259790   4.729   2.493   5.892
19850WAT      O59791   0.792   8.380   1.751
19850WAT     H159792   0.835   8.424   1.830
19850WAT     H259793   0.858   8.373   1.677
19851WAT      O59794   1.557   4.922   8.503
19851WAT     H159795   1.631   4.962   8.558
19851WAT     H259796   1.475   4.979   8.512
19852WAT      O59797   3.448   6.346   4.403
19852WAT     H159798   3.547   6.338   4.400
19852WAT     H259799   3.407   6.256   4.414
19853WAT      O59800   0.462   2.781   3.298
19853WAT     H159801   0.558   2.811   3.296
19853WAT     H259802   0.418   2.817   3.379
19854WAT      O59803   7.973   7.434   4.963
19854WAT     H159804   8.020   7.400   4.881
19854WAT     H259805   8.040   7.452   5.035
19855WAT      O59806   0.788   6.432   1.331
19855WAT     H159807   0.861   6.411   1.266
19855WAT     H259808   0.714   6.480   1.284
19856WAT      O59809   8.753   4.648   5.936
19856WAT     H159810   8.694   4.598   5.873
19856WAT     H259811   8.698   4.690   6.007
19857WAT      O59812   3.124   0.156   1.089
19857WAT     H159813   3.161   0.160   0.996
19857WAT     H259814   3.169   0.225   1.145
19858WAT      O59815   6.107   5.583   7.783
19858WAT     H159816   6.196   5.580   7.738
19858WAT     H259817   6.081   5.490   7.811
19859WAT      O59818   7.101   7.208   4.300
19859WAT     H159819   7.160   7.185   4.222
19859WAT     H259820   7.046   7.288   4.277
19860WAT      O59821   4.134   9.516   6.816
19860WAT     H159822   4.204   9.448   6.839
19860WAT     H259823   4.067   9.474   6.755
19861WAT      O59824   1.092   3.555   3.360
19861WAT     H159825   1.173   3.516   3.316
19861WAT     H259826   1.103   3.654   3.367
19862WAT      O59827   3.580   7.443   3.831
19862WAT     H159828   3.525   7.368   3.793
19862WAT     H259829   3.537   7.477   3.914
19863WAT      O59830   8.415   6.498   9.622
19863WAT     H159831   8.433   6.553   9.703
19863WAT     H259832   8.468   6.413   9.627
19864WAT      O59833   1.755   4.305   9.383
19864WAT     H159834   1.743   4.228   9.446
19864WAT     H259835   1.700   4.289   9.300
19865WAT      O59836   7.134   2.940   2.742
19865WAT     H159837   7.116   2.977   2.833
19865WAT     H259838   7.136   2.840   2.746
19866WAT      O59839   3.811   7.938   3.577
19866WAT     H159840   3.860   7.986   3.650
19866WAT     H259841   3.778   7.850   3.611
19867WAT      O59842   9.228   8.101   6.994
19867WAT     H159843   9.150   8.049   7.029
19867WAT     H259844   9.273   8.149   7.069
19868WAT      O59845   1.696   4.526   3.242
19868WAT     H159846   1.782   4.476   3.231
19868WAT     H259847   1.711   4.606   3.300
19869WAT      O59848   9.583   0.014   4.183
19869WAT     H159849   9.663   0.027   4.124
19869WAT     H259850   9.611  -0.036   4.265
19870WAT      O59851   8.102   6.190   6.251
19870WAT     H159852   8.182   6.157   6.302
19870WAT     H259853   8.106   6.156   6.157
19871WAT      O59854   8.214   2.334   4.778
19871WAT     H159855   8.136   2.363   4.834
19871WAT     H259856   8.222   2.234   4.783
19872WAT      O59857   7.242   6.626   9.713
19872WAT     H159858   7.238   6.541   9.660
19872WAT     H259859   7.164   6.631   9.774
19873WAT      O59860   7.646   5.144   9.004
19873WAT     H159861   7.684   5.100   8.923
19873WAT     H259862   7.548   5.129   9.007
19874WAT      O59863   1.628   7.670   9.209
19874WAT     H159864   1.675   7.625   9.285
19874WAT     H259865   1.529   7.662   9.221
19875WAT      O59866   1.486   9.778   9.541
19875WAT     H159867   1.541   9.824   9.471
19875WAT     H259868   1.401   9.744   9.499
19876WAT      O59869   2.282   6.166   6.140
19876WAT     H159870   2.343   6.227   6.191
19876WAT     H259871   2.263   6.204   6.050
19877WAT      O59872   5.158   6.005   1.017
19877WAT     H159873   5.087   6.030   1.083
19877WAT     H259874   5.123   6.020   0.924
19878WAT      O59875   0.360   5.983   1.783
19878WAT     H159876   0.437   6.042   1.761
19878WAT     H259877   0.274   6.033   1.769
19879WAT      O59878   1.323   5.723   5.976
19879WAT     H159879   1.421   5.702   5.974
19879WAT     H259880   1.305   5.807   5.925
19880WAT      O59881   0.099   5.734   1.843
19880WAT     H159882   0.077   5.760   1.937
19880WAT     H259883   0.158   5.653   1.843
19881WAT      O59884   9.487   1.692   0.051
19881WAT     H159885   9.439   1.771   0.012
19881WAT     H259886   9.574   1.680   0.004
19882WAT      O59887   5.961   6.711   6.697
19882WAT     H159888   5.989   6.649   6.769
19882WAT     H259889   5.980   6.806   6.725
19883WAT      O59890   2.662   5.608   9.387
19883WAT     H159891   2.665   5.510   9.369
19883WAT     H259892   2.604   5.653   9.319
19884WAT      O59893   2.819   7.481   9.700
19884WAT     H159894   2.742   7.470   9.636
19884WAT     H259895   2.831   7.397   9.753
19885WAT      O59896   6.068   8.611   7.644
19885WAT     H159897   5.969   8.626   7.643
19885WAT     H259898   6.093   8.562   7.727
19886WAT      O59899   4.207   0.174   3.287
19886WAT     H159900   4.133   0.238   3.307
19886WAT     H259901   4.286   0.224   3.252
19887WAT      O59902   8.640   9.605   4.522
19887WAT     H159903   8.703   9.678   4.546
19887WAT     H259904   8.592   9.575   4.605
19888WAT      O59905   3.912   2.658   3.191
19888WAT     H159906   3.848   2.581   3.181
19888WAT     H259907   3.878   2.736   3.137
19889WAT      O59908   6.215   5.060   1.034
19889WAT     H159909   6.177   5.037   0.944
19889WAT     H259910   6.307   5.097   1.021
19890WAT      O59911   4.047   3.477   9.768
19890WAT     H159912   4.055   3.426   9.682
19890WAT     H259913   3.950   3.490   9.790
19891WAT      O59914   5.094   4.634   0.714
19891WAT     H159915   5.084   4.542   0.678
19891WAT     H259916   5.060   4.637   0.808
19892WAT      O59917   0.464   4.708   0.014
19892WAT     H159918   0.380   4.684  -0.035
19892WAT     H259919   0.512   4.625   0.041
19893WAT      O59920   1.599   6.437   8.240
19893WAT     H159921   1.652   6.508   8.286
19893WAT     H259922   1.621   6.348   8.279
19894WAT      O59923   4.662   7.462   6.801
19894WAT     H159924   4.599   7.540   6.805
19894WAT     H259925   4.630   7.390   6.863
19895WAT      O59926   6.005   3.988   1.862
19895WAT     H159927   5.951   3.967   1.780
19895WAT     H259928   6.092   3.938   1.858
19896WAT      O59929   0.579   5.808   9.034
19896WAT     H159930   0.487   5.797   8.996
19896WAT     H259931   0.623   5.718   9.041
19897WAT      O59932   0.138   0.792   4.243
19897WAT     H159933   0.137   0.719   4.311
19897WAT     H259934   0.165   0.756   4.154
19898WAT      O59935   9.119   2.783   8.751
19898WAT     H159936   9.111   2.877   8.717
19898WAT     H259937   9.104   2.781   8.849
19899WAT      O59938   1.874   7.907   2.794
19899WAT     H159939   1.776   7.904   2.772
19899WAT     H259940   1.920   7.970   2.732
19900WAT      O59941   6.625   1.685   6.929
19900WAT     H159942   6.530   1.715   6.917
19900WAT     H259943   6.626   1.593   6.969
19901WAT      O59944   0.750   5.340   4.893
19901WAT     H159945   0.778   5.382   4.980
19901WAT     H259946   0.663   5.380   4.864
19902WAT      O59947   4.624   9.328   6.127
19902WAT     H159948   4.563   9.278   6.066
19902WAT     H259949   4.711   9.345   6.080
19903WAT      O59950   2.726   4.913   5.927
19903WAT     H159951   2.734   4.907   5.828
19903WAT     H259952   2.770   4.996   5.960
19904WAT      O59953   3.077   2.215   4.503
19904WAT     H159954   2.999   2.208   4.566
19904WAT     H259955   3.092   2.311   4.480
19905WAT      O59956   1.055   0.499   3.041
19905WAT     H159957   1.008   0.515   3.128
19905WAT     H259958   1.043   0.404   3.014
19906WAT      O59959   0.498   2.068   2.243
19906WAT     H159960   0.537   2.150   2.202
19906WAT     H259961   0.500   2.076   2.342
19907WAT      O59962   8.901   0.584   2.211
19907WAT     H159963   8.913   0.635   2.126
19907WAT     H259964   8.952   0.498   2.205
19908WAT      O59965   6.085   8.592   5.099
19908WAT     H159966   6.028   8.646   5.162
19908WAT     H259967   6.122   8.652   5.029
19909WAT      O59968   7.920   9.390   9.545
19909WAT     H159969   7.952   9.309   9.594
19909WAT     H259970   7.985   9.465   9.560
19910WAT      O59971   5.365   7.834   5.609
19910WAT     H159972   5.388   7.787   5.694
19910WAT     H259973   5.438   7.821   5.542
19911WAT      O59974   8.712   8.254   8.258
19911WAT     H159975   8.674   8.312   8.187
19911WAT     H259976   8.653   8.257   8.339
19912WAT      O59977   2.973   7.931   9.092
19912WAT     H159978   2.935   7.976   9.011
19912WAT     H259979   3.023   7.849   9.064
19913WAT      O59980   4.466   8.415   6.336
19913WAT     H159981   4.375   8.385   6.305
19913WAT     H259982   4.476   8.395   6.434
19914WAT      O59983   8.659   5.180   9.343
19914WAT     H159984   8.668   5.083   9.322
19914WAT     H259985   8.616   5.227   9.265
19915WAT      O59986   0.016   3.974   8.366
19915WAT     H159987  -0.065   3.943   8.318
19915WAT     H259988   0.066   4.039   8.308
19916WAT      O59989   3.522   7.424   4.961
19916WAT     H159990   3.555   7.333   4.986
19916WAT     H259991   3.518   7.432   4.862
19917WAT      O59992   2.999   4.035   3.603
19917WAT     H159993   2.979   4.091   3.523
19917WAT     H259994   3.091   4.057   3.636
19918WAT      O59995   6.205   8.639   1.844
19918WAT     H159996   6.116   8.607   1.876
19918WAT     H259997   6.242   8.707   1.908
19919WAT      O59998   5.608   7.382   9.048
19919WAT     H159999   5.558   7.299   9.021
19919WAT     H260000   5.617   7.385   9.148
19920WAT      O60001   6.980   3.530   7.406
19920WAT     H160002   7.033   3.498   7.485
19920WAT     H260003   6.885   3.546   7.434
19921WAT      O60004   8.318   2.028   8.481
19921WAT     H160005   8.408   1.983   8.484
19921WAT     H260006   8.276   2.012   8.392
19922WAT      O60007   0.553   3.990   9.423
19922WAT     H160008   0.531   3.949   9.511
19922WAT     H260009   0.519   4.084   9.420
19923WAT      O60010   0.065   0.545   6.739
19923WAT     H160011  -0.020   0.573   6.785
19923WAT     H260012   0.135   0.615   6.753
19924WAT      O60013   5.826   1.670   9.320
19924WAT     H160014   5.884   1.612   9.377
19924WAT     H260015   5.740   1.689   9.368
19925WAT      O60016   0.069   6.800   1.696
19925WAT     H160017  -0.015   6.792   1.642
19925WAT     H260018   0.095   6.710   1.731
19926WAT      O60019   9.731   5.798   1.444
19926WAT     H160020   9.762   5.854   1.367
19926WAT     H260021   9.800   5.798   1.515
19927WAT      O60022   3.047   2.815   3.478
19927WAT     H160023   2.994   2.767   3.548
19927WAT     H260024   2.985   2.864   3.417
19928WAT      O60025   0.725   7.383   3.170
19928WAT     H160026   0.816   7.424   3.179
19928WAT     H260027   0.658   7.441   3.216
19929WAT      O60028   7.806   3.279   0.487
19929WAT     H160029   7.737   3.334   0.535
19929WAT     H260030   7.893   3.284   0.536
19930WAT      O60031   7.790   8.160   5.636
19930WAT     H160032   7.835   8.211   5.709
19930WAT     H260033   7.838   8.074   5.620
19931WAT      O60034   9.087   1.099   1.029
19931WAT     H160035   9.164   1.057   0.980
19931WAT     H260036   9.118   1.131   1.118
19932WAT      O60037   3.213   9.376   1.270
19932WAT     H160038   3.309   9.386   1.295
19932WAT     H260039   3.156   9.401   1.348
19933WAT      O60040   9.525   8.266   2.016
19933WAT     H160041   9.508   8.214   2.100
19933WAT     H260042   9.612   8.314   2.024
19934WAT      O60043   2.694   1.174   7.751
19934WAT     H160044   2.683   1.076   7.762
19934WAT     H260045   2.712   1.196   7.655
19935WAT      O60046   5.136   6.572   0.594
19935WAT     H160047   5.184   6.574   0.682
19935WAT     H260048   5.140   6.662   0.551
19936WAT      O60049   8.014   9.524   5.368
19936WAT     H160050   7.926   9.509   5.413
19936WAT     H260051   8.078   9.567   5.432
19937WAT      O60052   8.122   7.526   4.164
19937WAT     H160053   8.086   7.591   4.097
19937WAT     H260054   8.049   7.461   4.189
19938WAT      O60055   1.798   8.336   4.215
19938WAT     H160056   1.878   8.298   4.260
19938WAT     H260057   1.720   8.334   4.278
19939WAT      O60058   6.835   1.066   1.179
19939WAT     H160059   6.787   0.982   1.153
19939WAT     H260060   6.933   1.056   1.162
19940WAT      O60061   7.063   2.085   5.019
19940WAT     H160062   7.016   2.067   5.105
19940WAT     H260063   7.162   2.072   5.032
19941WAT      O60064   9.759   1.368   8.288
19941WAT     H160065   9.674   1.323   8.261
19941WAT     H260066   9.737   1.453   8.337
19942WAT      O60067   0.485   0.263   2.497
19942WAT     H160068   0.498   0.306   2.408
19942WAT     H260069   0.390   0.234   2.507
19943WAT      O60070   8.509   5.513   8.108
19943WAT     H160071   8.577   5.508   8.035
19943WAT     H260072   8.419   5.529   8.068
19944WAT      O60073   7.490   3.246   7.371
19944WAT     H160074   7.554   3.190   7.422
19944WAT     H260075   7.402   3.199   7.365
19945WAT      O60076   4.610   2.851   9.689
19945WAT     H160077   4.510   2.858   9.685
19945WAT     H260078   4.635   2.781   9.756
19946WAT      O60079   1.494   5.844   7.062
19946WAT     H160080   1.568   5.906   7.037
19946WAT     H260081   1.505   5.816   7.158
19947WAT      O60082   6.870   5.362   0.076
19947WAT     H160083   6.880   5.265   0.053
19947WAT     H260084   6.835   5.412  -0.003
19948WAT      O60085   9.041   8.430   5.036
19948WAT     H160086   8.949   8.398   5.059
19948WAT     H260087   9.081   8.371   4.966
19949WAT      O60088   5.173   8.207   5.527
19949WAT     H160089   5.175   8.138   5.599
19949WAT     H260090   5.264   8.247   5.517
19950WAT      O60091   2.395   8.998   0.715
19950WAT     H160092   2.309   9.039   0.747
19950WAT     H260093   2.429   9.050   0.637
19951WAT      O60094   9.707   9.591   5.688
19951WAT     H160095   9.777   9.659   5.710
19951WAT     H260096   9.618   9.622   5.721
19952WAT      O60097   5.257   7.471   5.523
19952WAT     H160098   5.311   7.499   5.444
19952WAT     H260099   5.302   7.503   5.607
19953WAT      O60100   9.553   4.269   6.040
19953WAT     H160101   9.545   4.344   6.106
19953WAT     H260102   9.563   4.183   6.090
19954WAT      O60103   7.205   6.908   0.306
19954WAT     H160104   7.120   6.863   0.278
19954WAT     H260105   7.243   6.862   0.385
19955WAT      O60106   7.233   8.325   2.216
19955WAT     H160107   7.154   8.304   2.274
19955WAT     H260108   7.317   8.304   2.265
19956WAT      O60109   1.223   9.045   6.527
19956WAT     H160110   1.156   8.980   6.491
19956WAT     H260111   1.265   9.006   6.609
19957WAT      O60112   7.030   2.171   6.777
19957WAT     H160113   7.021   2.251   6.718
19957WAT     H260114   7.049   2.201   6.871
19958WAT      O60115   3.105   2.467   7.026
19958WAT     H160116   3.116   2.530   6.950
19958WAT     H260117   3.170   2.491   7.099
19959WAT      O60118   2.836   8.541   4.043
19959WAT     H160119   2.838   8.547   4.142
19959WAT     H260120   2.893   8.465   4.012
19960WAT      O60121   8.635   4.976   6.898
19960WAT     H160122   8.695   4.938   6.828
19960WAT     H260123   8.561   5.027   6.854
19961WAT      O60124   8.711   8.176   7.870
19961WAT     H160125   8.750   8.165   7.778
19961WAT     H260126   8.714   8.272   7.897
19962WAT      O60127   0.972   0.124   8.788
19962WAT     H160128   0.891   0.179   8.806
19962WAT     H260129   1.040   0.180   8.738
19963WAT      O60130   6.552   3.459   3.080
19963WAT     H160131   6.556   3.364   3.050
19963WAT     H260132   6.477   3.506   3.033
19964WAT      O60133   8.292   5.663   2.085
19964WAT     H160134   8.266   5.583   2.031
19964WAT     H260135   8.386   5.654   2.116
19965WAT      O60136   7.325   0.378   5.466
19965WAT     H160137   7.346   0.363   5.369
19965WAT     H260138   7.301   0.291   5.509
19966WAT      O60139   8.235   0.958   3.210
19966WAT     H160140   8.206   1.023   3.280
19966WAT     H260141   8.189   0.870   3.225
19967WAT      O60142   8.232   7.897   5.852
19967WAT     H160143   8.145   7.927   5.814
19967WAT     H260144   8.223   7.804   5.889
19968WAT      O60145   9.358   5.743   4.456
19968WAT     H160146   9.384   5.832   4.493
19968WAT     H260147   9.362   5.674   4.529
19969WAT      O60148   6.326   5.488   3.973
19969WAT     H160149   6.412   5.453   3.936
19969WAT     H260150   6.337   5.511   4.069
19970WAT      O60151   6.087   2.406   5.388
19970WAT     H160152   6.060   2.443   5.477
19970WAT     H260153   6.183   2.377   5.391
19971WAT      O60154   8.540   5.283   5.380
19971WAT     H160155   8.616   5.308   5.320
19971WAT     H260156   8.453   5.296   5.332
19972WAT      O60157   1.338   9.410   3.046
19972WAT     H160158   1.316   9.475   2.973
19972WAT     H260159   1.430   9.429   3.080
19973WAT      O60160   5.989   6.560   7.790
19973WAT     H160161   6.047   6.518   7.861
19973WAT     H260162   5.894   6.557   7.819
19974WAT      O60163   0.421   0.033   2.987
19974WAT     H160164   0.415  -0.043   2.923
19974WAT     H260165   0.384   0.006   3.076
19975WAT      O60166   2.790   6.186   6.720
19975WAT     H160167   2.762   6.121   6.791
19975WAT     H260168   2.870   6.151   6.672
19976WAT      O60169   9.255   3.092   8.897
19976WAT     H160170   9.314   3.021   8.857
19976WAT     H260171   9.183   3.116   8.832
19977WAT      O60172   1.937   6.172   8.654
19977WAT     H160173   1.885   6.257   8.647
19977WAT     H260174   1.876   6.097   8.680
19978WAT      O60175   5.284   0.206   3.596
19978WAT     H160176   5.345   0.176   3.522
19978WAT     H260177   5.262   0.127   3.654
19979WAT      O60178   4.891   0.369   8.408
19979WAT     H160179   4.970   0.307   8.407
19979WAT     H260180   4.807   0.315   8.398
19980WAT      O60181   8.400   8.892   8.245
19980WAT     H160182   8.386   8.926   8.152
19980WAT     H260183   8.442   8.963   8.301
19981WAT      O60184   0.737   9.094   2.176
19981WAT     H160185   0.793   9.072   2.096
19981WAT     H260186   0.735   9.193   2.189
19982WAT      O60187   3.211   3.207   1.261
19982WAT     H160188   3.124   3.173   1.296
19982WAT     H260189   3.210   3.205   1.161
19983WAT      O60190   8.175   9.311   1.180
19983WAT     H160191   8.227   9.239   1.224
19983WAT     H260192   8.111   9.271   1.114
19984WAT      O60193   6.738   1.567   8.960
19984WAT     H160194   6.728   1.657   8.918
19984WAT     H260195   6.810   1.516   8.913
19985WAT      O60196   6.910   0.303   8.696
19985WAT     H160197   6.909   0.269   8.790
19985WAT     H260198   6.990   0.267   8.648
19986WAT      O60199   3.212   0.285   1.408
19986WAT     H160200   3.200   0.296   1.506
19986WAT     H260201   3.309   0.271   1.387
19987WAT      O60202   5.072   0.296   2.859
19987WAT     H160203   5.106   0.277   2.952
19987WAT     H260204   5.147   0.329   2.802
19988WAT      O60205   5.336   5.988   0.315
19988WAT     H160206   5.245   5.955   0.341
19988WAT     H260207   5.344   5.988   0.216
19989WAT      O60208   8.262   9.036   4.912
19989WAT     H160209   8.165   9.045   4.888
19989WAT     H260210   8.318   9.061   4.833
19990WAT      O60211   9.439   1.598   7.393
19990WAT     H160212   9.383   1.570   7.315
19990WAT     H260213   9.379   1.634   7.465
19991WAT      O60214   0.864   7.258   5.901
19991WAT     H160215   0.918   7.333   5.864
19991WAT     H260216   0.856   7.267   6.000
19992WAT      O60217   1.194   1.016   7.530
19992WAT     H160218   1.110   0.992   7.481
19992WAT     H260219   1.177   1.094   7.590
19993WAT      O60220   4.013   7.959   9.395
19993WAT     H160221   3.998   7.908   9.310
19993WAT     H260222   4.059   7.901   9.462
19994WAT      O60223   9.278   3.122   0.078
19994WAT     H160224   9.360   3.067   0.065
19994WAT     H260225   9.243   3.107   0.171
19995WAT      O60226   8.059   3.088   3.566
19995WAT     H160227   7.967   3.052   3.552
19995WAT     H260228   8.097   3.119   3.479
19996WAT      O60229   0.029   5.500   0.239
19996WAT     H160230   0.033   5.503   0.339
19996WAT     H260231  -0.066   5.503   0.209
19997WAT      O60232   8.301   4.080   5.727
19997WAT     H160233   8.226   4.112   5.785
19997WAT     H260234   8.300   3.980   5.725
19998WAT      O60235   6.207   7.407   1.228
19998WAT     H160236   6.134   7.447   1.173
19998WAT     H260237   6.192   7.308   1.236
19999WAT      O60238   9.093   8.711   0.721
19999WAT     H160239   9.113   8.676   0.629
19999WAT     H260240   9.036   8.792   0.715
20000WAT      O60241   8.003   0.816   4.918
20000WAT     H160242   8.045   0.764   4.992
20000WAT     H260243   7.976   0.906   4.951
20001WAT      O60244   4.167   9.345   0.766
20001WAT     H160245   4.215   9.338   0.679
20001WAT     H260246   4.196   9.269   0.825
20002WAT      O60247   2.636   9.685   6.371
20002WAT     H160248   2.704   9.712   6.302
20002WAT     H260249   2.545   9.713   6.339
20003WAT      O60250   6.767   4.620   3.087
20003WAT     H160251   6.817   4.641   3.003
20003WAT     H260252   6.728   4.528   3.081
20004WAT      O60253   7.205   5.494   2.982
20004WAT     H160254   7.182   5.502   3.079
20004WAT     H260255   7.267   5.567   2.956
20005WAT      O60256   6.512   7.374   0.435
20005WAT     H160257   6.503   7.282   0.396
20005WAT     H260258   6.608   7.393   0.454
20006WAT      O60259   4.641   1.077   3.877
20006WAT     H160260   4.632   0.979   3.894
20006WAT     H260261   4.701   1.117   3.947
20007WAT      O60262   9.352   3.255   5.435
20007WAT     H160263   9.414   3.234   5.360
20007WAT     H260264   9.268   3.201   5.425
20008WAT      O60265   7.927   0.119   7.249
20008WAT     H160266   7.864   0.159   7.316
20008WAT     H260267   7.883   0.042   7.203
20009WAT      O60268   7.342   0.178   4.697
20009WAT     H160269   7.426   0.125   4.706
20009WAT     H260270   7.365   0.274   4.682
20010WAT      O60271   1.358   0.947   4.416
20010WAT     H160272   1.443   0.914   4.377
20010WAT     H260273   1.298   0.981   4.343
20011WAT      O60274   1.909   4.481   1.882
20011WAT     H160275   1.878   4.571   1.912
20011WAT     H260276   1.830   4.422   1.864
20012WAT      O60277   5.429   2.902   5.168
20012WAT     H160278   5.356   2.888   5.235
20012WAT     H260279   5.465   2.813   5.138
20013WAT      O60280   2.733   2.611   2.212
20013WAT     H160281   2.725   2.711   2.209
20013WAT     H260282   2.750   2.577   2.120
20014WAT      O60283   7.013   6.669   4.712
20014WAT     H160284   7.053   6.689   4.802
20014WAT     H260285   7.063   6.593   4.670
20015WAT      O60286   8.529   6.861   9.266
20015WAT     H160287   8.444   6.912   9.276
20015WAT     H260288   8.511   6.775   9.217
20016WAT      O60289   9.494   1.552   4.439
20016WAT     H160290   9.400   1.578   4.456
20016WAT     H260291   9.497   1.460   4.399
20017WAT      O60292   5.332   0.445   5.513
20017WAT     H160293   5.386   0.361   5.520
20017WAT     H260294   5.241   0.423   5.479
20018WAT      O60295   5.115   3.958   4.305
20018WAT     H160296   5.138   4.039   4.359
20018WAT     H260297   5.190   3.893   4.309
20019WAT      O60298   6.745   3.990   5.874
20019WAT     H160299   6.705   3.933   5.803
20019WAT     H260300   6.845   3.981   5.873
20020WAT      O60301   8.691   0.365   2.790
20020WAT     H160302   8.751   0.429   2.839
20020WAT     H260303   8.596   0.386   2.813
20021WAT      O60304   7.538   3.241   0.322
20021WAT     H160305   7.479   3.180   0.374
20021WAT     H260306   7.627   3.249   0.369
20022WAT      O60307   3.596   6.051   9.217
20022WAT     H160308   3.596   6.147   9.191
20022WAT     H260309   3.515   6.006   9.178
20023WAT      O60310   1.946   6.865   1.915
20023WAT     H160311   2.004   6.885   1.994
20023WAT     H260312   1.851   6.858   1.945
20024WAT      O60313   4.396   5.082   0.341
20024WAT     H160314   4.383   4.986   0.367
20024WAT     H260315   4.432   5.133   0.420
20025WAT      O60316   0.553   8.512   7.940
20025WAT     H160317   0.603   8.592   7.908
20025WAT     H260318   0.487   8.484   7.870
20026WAT      O60319   3.850   6.566   5.176
20026WAT     H160320   3.926   6.508   5.205
20026WAT     H260321   3.880   6.661   5.175
20027WAT      O60322   9.450   4.801   5.329
20027WAT     H160323   9.517   4.843   5.391
20027WAT     H260324   9.431   4.864   5.254
20028WAT      O60325   9.028   8.459   8.337
20028WAT     H160326   9.111   8.472   8.391
20028WAT     H260327   8.950   8.452   8.398
20029WAT      O60328   4.905   9.560   4.101
20029WAT     H160329   4.875   9.504   4.178
20029WAT     H260330   4.875   9.655   4.115
20030WAT      O60331   8.960   0.279   8.030
20030WAT     H160332   8.908   0.287   7.945
20030WAT     H260333   8.901   0.298   8.108
20031WAT      O60334   8.339   7.630   5.719
20031WAT     H160335   8.245   7.626   5.685
20031WAT     H260336   8.390   7.698   5.666
20032WAT      O60337   2.027   9.849   2.311
20032WAT     H160338   2.126   9.835   2.316
20032WAT     H260339   1.980   9.760   2.313
20033WAT      O60340   4.898   7.212   8.365
20033WAT     H160341   4.806   7.209   8.327
20033WAT     H260342   4.894   7.188   8.462
20034WAT      O60343   5.074   1.962   9.469
20034WAT     H160344   5.153   1.945   9.528
20034WAT     H260345   5.021   1.878   9.460
20035WAT      O60346   0.228   8.117   4.225
20035WAT     H160347   0.327   8.110   4.225
20035WAT     H260348   0.188   8.026   4.215
20036WAT      O60349   6.089   1.275   2.468
20036WAT     H160350   6.103   1.195   2.526
20036WAT     H260351   6.174   1.296   2.419
20037WAT      O60352   6.419   6.375   7.257
20037WAT     H160353   6.388   6.439   7.186
20037WAT     H260354   6.491   6.316   7.219
20038WAT      O60355   3.174   3.857   3.486
20038WAT     H160356   3.248   3.854   3.553
20038WAT     H260357   3.123   3.943   3.497
20039WAT      O60358   2.481   5.821   1.669
20039WAT     H160359   2.440   5.902   1.712
20039WAT     H260360   2.542   5.776   1.734
20040WAT      O60361   0.513   3.257   7.026
20040WAT     H160362   0.478   3.280   7.117
20040WAT     H260363   0.609   3.231   7.033
20041WAT      O60364   9.488   3.893   3.027
20041WAT     H160365   9.529   3.956   2.960
20041WAT     H260366   9.415   3.940   3.077
20042WAT      O60367   1.334   3.761   3.012
20042WAT     H160368   1.240   3.730   3.008
20042WAT     H260369   1.337   3.861   3.012
20043WAT      O60370   3.649   2.064   7.965
20043WAT     H160371   3.594   2.120   7.903
20043WAT     H260372   3.742   2.101   7.970
20044WAT      O60373   7.267   5.917   7.403
20044WAT     H160374   7.221   6.006   7.415
20044WAT     H260375   7.265   5.867   7.489
20045WAT      O60376   3.908   0.133   6.940
20045WAT     H160377   3.895   0.231   6.956
20045WAT     H260378   3.988   0.119   6.882
20046WAT      O60379   9.079   5.077   1.240
20046WAT     H160380   9.164   5.116   1.203
20046WAT     H260381   9.029   5.031   1.167
20047WAT      O60382   0.607   3.902   0.711
20047WAT     H160383   0.660   3.960   0.773
20047WAT     H260384   0.653   3.897   0.623
20048WAT      O60385   1.631   6.240   2.997
20048WAT     H160386   1.587   6.249   3.087
20048WAT     H260387   1.622   6.326   2.947
20049WAT      O60388   9.500   7.362   6.127
20049WAT     H160389   9.420   7.420   6.146
20049WAT     H260390   9.483   7.308   6.045
20050WAT      O60391   5.922   3.015   7.216
20050WAT     H160392   5.964   2.925   7.205
20050WAT     H260393   5.890   3.049   7.128
20051WAT      O60394   7.150   1.752   8.246
20051WAT     H160395   7.156   1.775   8.149
20051WAT     H260396   7.199   1.667   8.263
20052WAT      O60397   4.957   1.227   1.309
20052WAT     H160398   4.960   1.299   1.239
20052WAT     H260399   4.896   1.255   1.383
20053WAT      O60400   0.842   4.896   9.627
20053WAT     H160401   0.893   4.982   9.629
20053WAT     H260402   0.766   4.903   9.562
20054WAT      O60403   1.493   1.110   9.778
20054WAT     H160404   1.447   1.083   9.694
20054WAT     H260405   1.577   1.159   9.755
20055WAT      O60406   2.546   2.381   7.186
20055WAT     H160407   2.608   2.347   7.115
20055WAT     H260408   2.470   2.317   7.197
20056WAT      O60409   5.179   2.685   8.925
20056WAT     H160410   5.275   2.675   8.897
20056WAT     H260411   5.122   2.701   8.845
20057WAT      O60412   2.484   6.010   3.102
20057WAT     H160413   2.399   6.062   3.097
20057WAT     H260414   2.463   5.915   3.126
20058WAT      O60415   4.567   4.071   8.730
20058WAT     H160416   4.556   4.145   8.664
20058WAT     H260417   4.507   4.087   8.808
20059WAT      O60418   8.378   2.988   6.036
20059WAT     H160419   8.434   2.944   6.106
20059WAT     H260420   8.436   3.050   5.982
20060WAT      O60421   7.460   4.361   1.091
20060WAT     H160422   7.393   4.296   1.129
20060WAT     H260423   7.461   4.444   1.147
20061WAT      O60424   2.291   8.140   4.213
20061WAT     H160425   2.307   8.071   4.143
20061WAT     H260426   2.289   8.097   4.303
20062WAT      O60427   4.514   8.566   4.187
20062WAT     H160428   4.565   8.508   4.251
20062WAT     H260429   4.497   8.656   4.229
20063WAT      O60430   5.031   2.312   4.456
20063WAT     H160431   5.018   2.342   4.551
20063WAT     H260432   4.962   2.243   4.434
20064WAT      O60433   0.227   2.528   7.163
20064WAT     H160434   0.231   2.517   7.262
20064WAT     H260435   0.293   2.598   7.135
20065WAT      O60436   1.338   1.248   0.069
20065WAT     H160437   1.401   1.198   0.009
20065WAT     H260438   1.390   1.312   0.126
20066WAT      O60439   0.435   4.741   3.893
20066WAT     H160440   0.509   4.750   3.959
20066WAT     H260441   0.382   4.826   3.890
20067WAT      O60442   9.386   7.538   9.268
20067WAT     H160443   9.400   7.442   9.246
20067WAT     H260444   9.321   7.547   9.343
20068WAT      O60445   8.820   3.005   7.724
20068WAT     H160446   8.747   2.945   7.692
20068WAT     H260447   8.906   2.980   7.679
20069WAT      O60448   8.783   7.968   8.675
20069WAT     H160449   8.793   7.880   8.720
20069WAT     H260450   8.865   7.988   8.621
20070WAT      O60451   2.172   2.972   8.083
20070WAT     H160452   2.164   3.054   8.025
20070WAT     H260453   2.229   2.904   8.037
20071WAT      O60454   4.816   3.862   8.061
20071WAT     H160455   4.722   3.864   8.095
20071WAT     H260456   4.858   3.952   8.076
20072WAT      O60457   0.754   4.049   0.879
20072WAT     H160458   0.846   4.021   0.908
20072WAT     H260459   0.720   4.121   0.939
20073WAT      O60460   7.170   6.845   4.569
20073WAT     H160461   7.121   6.789   4.636
20073WAT     H260462   7.137   6.939   4.573
20074WAT      O60463   8.630   8.758   5.750
20074WAT     H160464   8.709   8.819   5.747
20074WAT     H260465   8.570   8.777   5.673
20075WAT      O60466   1.267   6.513   7.727
20075WAT     H160467   1.222   6.474   7.807
20075WAT     H260468   1.341   6.573   7.756
20076WAT      O60469   3.624   5.434   3.587
20076WAT     H160470   3.670   5.364   3.532
20076WAT     H260471   3.666   5.438   3.678
20077WAT      O60472   0.809   0.993   7.108
20077WAT     H160473   0.886   0.960   7.053
20077WAT     H260474   0.762   0.916   7.150
20078WAT      O60475   6.712   4.616   0.821
20078WAT     H160476   6.778   4.574   0.759
20078WAT     H260477   6.671   4.545   0.879
20079WAT      O60478   1.418   0.998   6.358
20079WAT     H160479   1.355   0.984   6.435
20079WAT     H260480   1.462   1.087   6.366
20080WAT      O60481   1.831   5.508   6.535
20080WAT     H160482   1.865   5.538   6.445
20080WAT     H260483   1.731   5.506   6.534
20081WAT      O60484   0.097   9.075   2.540
20081WAT     H160485   0.104   9.169   2.574
20081WAT     H260486   0.017   9.031   2.579
20082WAT      O60487   2.384   6.886   8.539
20082WAT     H160488   2.338   6.952   8.480
20082WAT     H260489   2.316   6.828   8.584
20083WAT      O60490   2.768   0.137   2.855
20083WAT     H160491   2.833   0.209   2.877
20083WAT     H260492   2.760   0.074   2.932
20084WAT      O60493   3.051   0.365   3.760
20084WAT     H160494   3.144   0.374   3.795
20084WAT     H260495   2.986   0.371   3.836
20085WAT      O60496   6.913   7.022   0.938
20085WAT     H160497   6.862   7.093   0.889
20085WAT     H260498   6.879   6.932   0.911
20086WAT      O60499   2.718   3.609   8.130
20086WAT     H160500   2.631   3.566   8.105
20086WAT     H260501   2.776   3.542   8.177
20087WAT      O60502   6.013   1.985   4.550
20087WAT     H160503   5.978   2.046   4.621
20087WAT     H260504   6.005   2.030   4.461
20088WAT      O60505   1.778   0.432   5.312
20088WAT     H160506   1.825   0.449   5.399
20088WAT     H260507   1.833   0.468   5.237
20089WAT      O60508   9.683   5.065   3.326
20089WAT     H160509   9.745   4.986   3.328
20089WAT     H260510   9.610   5.051   3.393
20090WAT      O60511   0.649   4.899   8.732
20090WAT     H160512   0.622   4.915   8.637
20090WAT     H260513   0.576   4.931   8.793
20091WAT      O60514   4.484   3.983   7.746
20091WAT     H160515   4.424   4.047   7.697
20091WAT     H260516   4.431   3.903   7.773
20092WAT      O60517   2.261   1.700   2.772
20092WAT     H160518   2.205   1.641   2.713
20092WAT     H260519   2.357   1.694   2.743
20093WAT      O60520   7.349   2.897   8.373
20093WAT     H160521   7.289   2.819   8.393
20093WAT     H260522   7.444   2.867   8.369
20094WAT      O60523   9.057   3.878   7.404
20094WAT     H160524   9.099   3.871   7.314
20094WAT     H260525   9.127   3.902   7.472
20095WAT      O60526   6.101   8.376   3.736
20095WAT     H160527   6.144   8.453   3.689
20095WAT     H260528   6.155   8.293   3.720
20096WAT      O60529   1.624   6.598   5.890
20096WAT     H160530   1.685   6.547   5.830
20096WAT     H260531   1.673   6.626   5.973
20097WAT      O60532   8.752   6.746   0.822
20097WAT     H160533   8.796   6.702   0.901
20097WAT     H260534   8.803   6.828   0.797
20098WAT      O60535   2.744   9.210   7.202
20098WAT     H160536   2.828   9.183   7.249
20098WAT     H260537   2.711   9.297   7.241
20099WAT      O60538   1.698   1.394   8.898
20099WAT     H160539   1.666   1.365   8.988
20099WAT     H260540   1.621   1.398   8.835
20100WAT      O60541   7.416   7.960   5.092
20100WAT     H160542   7.459   8.021   5.026
20100WAT     H260543   7.422   7.865   5.059
20101WAT      O60544   4.853   4.314   6.971
20101WAT     H160545   4.781   4.383   6.974
20101WAT     H260546   4.812   4.223   6.964
20102WAT      O60547   9.100   8.254   1.213
20102WAT     H160548   9.074   8.240   1.309
20102WAT     H260549   9.076   8.173   1.160
20103WAT      O60550   3.303   9.673   4.010
20103WAT     H160551   3.332   9.697   4.103
20103WAT     H260552   3.282   9.757   3.960
20104WAT      O60553   0.520   9.505   4.648
20104WAT     H160554   0.489   9.488   4.554
20104WAT     H260555   0.613   9.543   4.646
20105WAT      O60556   2.598   5.324   9.384
20105WAT     H160557   2.541   5.259   9.434
20105WAT     H260558   2.552   5.352   9.300
20106WAT      O60559   4.664   1.215   7.190
20106WAT     H160560   4.619   1.293   7.232
20106WAT     H260561   4.602   1.172   7.125
20107WAT      O60562   6.733   4.960   3.462
20107WAT     H160563   6.681   4.949   3.378
20107WAT     H260564   6.829   4.939   3.446
20108WAT      O60565   8.570   7.549   4.265
20108WAT     H160566   8.511   7.610   4.212
20108WAT     H260567   8.665   7.563   4.238
20109WAT      O60568   2.539   2.493   9.060
20109WAT     H160569   2.442   2.492   9.036
20109WAT     H260570   2.593   2.464   8.981
20110WAT      O60571   0.062   4.251   7.005
20110WAT     H160572   0.138   4.315   7.003
20110WAT     H260573  -0.016   4.289   6.955
20111WAT      O60574   7.565   9.619   6.896
20111WAT     H160575   7.571   9.660   6.987
20111WAT     H260576   7.633   9.661   6.836
20112WAT      O60577   2.844   6.580   8.323
20112WAT     H160578   2.849   6.515   8.248
20112WAT     H260579   2.762   6.637   8.313
20113WAT      O60580   6.273   0.910   8.947
20113WAT     H160581   6.183   0.882   8.912
20113WAT     H260582   6.274   1.009   8.960
20114WAT      O60583   5.967   1.249   6.836
20114WAT     H160584   6.062   1.264   6.862
20114WAT     H260585   5.958   1.158   6.794
20115WAT      O60586   2.994   9.505   4.205
20115WAT     H160587   3.013   9.428   4.145
20115WAT     H260588   2.897   9.506   4.230
20116WAT      O60589   0.682   9.689   2.518
20116WAT     H160590   0.679   9.782   2.481
20116WAT     H260591   0.776   9.658   2.523
20117WAT      O60592   0.665   4.577   5.385
20117WAT     H160593   0.667   4.671   5.421
20117WAT     H260594   0.574   4.558   5.348
20118WAT      O60595   2.530   4.960   7.586
20118WAT     H160596   2.520   5.013   7.670
20118WAT     H260597   2.495   5.012   7.509
20119WAT      O60598   7.961   3.095   7.898
20119WAT     H160599   7.967   3.100   7.998
20119WAT     H260600   7.983   3.184   7.859
20120WAT      O60601   6.617   4.576   8.601
20120WAT     H160602   6.668   4.660   8.622
20120WAT     H260603   6.605   4.569   8.502
20121WAT      O60604   6.732   9.402   7.610
20121WAT     H160605   6.764   9.478   7.666
20121WAT     H260606   6.634   9.389   7.624
20122WAT      O60607   2.447   4.702   4.432
20122WAT     H160608   2.420   4.670   4.342
20122WAT     H260609   2.545   4.687   4.445
20123WAT      O60610   6.789   4.958   6.640
20123WAT     H160611   6.718   5.029   6.639
20123WAT     H260612   6.859   4.982   6.707
20124WAT      O60613   4.894   6.217   5.913
20124WAT     H160614   4.857   6.143   5.856
20124WAT     H260615   4.836   6.298   5.905
20125WAT      O60616   1.348   6.733   1.623
20125WAT     H160617   1.281   6.679   1.573
20125WAT     H260618   1.376   6.684   1.706
20126WAT      O60619   1.311   2.244   2.070
20126WAT     H160620   1.294   2.304   1.992
20126WAT     H260621   1.228   2.191   2.090
20127WAT      O60622   8.501   5.096   9.559
20127WAT     H160623   8.568   5.115   9.487
20127WAT     H260624   8.431   5.034   9.524
20128WAT      O60625   1.476   0.187   1.599
20128WAT     H160626   1.536   0.260   1.633
20128WAT     H260627   1.530   0.120   1.549
20129WAT      O60628   1.578   4.140   8.221
20129WAT     H160629   1.571   4.217   8.158
20129WAT     H260630   1.604   4.173   8.312
20130WAT      O60631   2.214   5.418   7.948
20130WAT     H160632   2.214   5.404   7.849
20130WAT     H260633   2.230   5.330   7.994
20131WAT      O60634   5.568   6.094   8.860
20131WAT     H160635   5.651   6.148   8.845
20131WAT     H260636   5.592   5.998   8.874
20132WAT      O60637   2.380   0.745   3.751
20132WAT     H160638   2.312   0.808   3.789
20132WAT     H260639   2.462   0.797   3.725
20133WAT      O60640   6.316   5.101   8.401
20133WAT     H160641   6.389   5.046   8.439
20133WAT     H260642   6.300   5.181   8.458
20134WAT      O60643   7.891   3.382   6.647
20134WAT     H160644   7.819   3.429   6.596
20134WAT     H260645   7.879   3.284   6.638
20135WAT      O60646   4.912   6.161   1.838
20135WAT     H160647   4.963   6.183   1.921
20135WAT     H260648   4.887   6.064   1.839
20136WAT      O60649   1.292   3.415   0.405
20136WAT     H160650   1.270   3.320   0.431
20136WAT     H260651   1.305   3.469   0.488
20137WAT      O60652   5.845   8.529   4.360
20137WAT     H160653   5.844   8.446   4.415
20137WAT     H260654   5.919   8.589   4.390
20138WAT      O60655   8.485   4.207   9.869
20138WAT     H160656   8.511   4.177   9.960
20138WAT     H260657   8.435   4.133   9.823
20139WAT      O60658   2.315   7.099   4.249
20139WAT     H160659   2.403   7.146   4.256
20139WAT     H260660   2.313   7.021   4.312
20140WAT      O60661   4.085   0.735   8.940
20140WAT     H160662   4.094   0.663   9.009
20140WAT     H260663   4.173   0.749   8.896
20141WAT      O60664   3.270   7.952   2.731
20141WAT     H160665   3.349   8.000   2.693
20141WAT     H260666   3.237   8.001   2.812
20142WAT      O60667   3.011   3.994   4.784
20142WAT     H160668   3.078   4.037   4.845
20142WAT     H260669   2.992   3.901   4.816
20143WAT      O60670   8.181   3.592   5.209
20143WAT     H160671   8.246   3.554   5.274
20143WAT     H260672   8.230   3.628   5.129
20144WAT      O60673   0.006   8.873   3.127
20144WAT     H160674   0.072   8.806   3.095
20144WAT     H260675  -0.019   8.935   3.051
20145WAT      O60676   2.280   2.327   3.598
20145WAT     H160677   2.211   2.310   3.528
20145WAT     H260678   2.245   2.301   3.688
20146WAT      O60679   2.451   3.786   9.456
20146WAT     H160680   2.449   3.711   9.521
20146WAT     H260681   2.494   3.866   9.498
20147WAT      O60682   7.723   0.354   4.013
20147WAT     H160683   7.740   0.269   3.964
20147WAT     H260684   7.795   0.369   4.081
20148WAT      O60685   2.752   0.155   1.276
20148WAT     H160686   2.663   0.184   1.242
20148WAT     H260687   2.747   0.059   1.306
20149WAT      O60688   8.726   3.890   4.915
20149WAT     H160689   8.682   3.820   4.971
20149WAT     H260690   8.777   3.952   4.974
20150WAT      O60691   6.962   3.638   9.430
20150WAT     H160692   6.955   3.734   9.403
20150WAT     H260693   6.871   3.604   9.457
20151WAT      O60694   9.230   1.246   1.275
20151WAT     H160695   9.271   1.337   1.272
20151WAT     H260696   9.185   1.232   1.363
20152WAT      O60697   4.408   8.706   7.507
20152WAT     H160698   4.336   8.640   7.486
20152WAT     H260699   4.379   8.764   7.583
20153WAT      O60700   1.428   6.578   7.077
20153WAT     H160701   1.480   6.660   7.101
20153WAT     H260702   1.381   6.543   7.158
20154WAT      O60703   0.319   1.745   7.779
20154WAT     H160704   0.292   1.825   7.726
20154WAT     H260705   0.387   1.692   7.728
20155WAT      O60706   3.207   4.553   6.504
20155WAT     H160707   3.267   4.624   6.541
20155WAT     H260708   3.197   4.566   6.406
20156WAT      O60709   7.198   4.358   5.739
20156WAT     H160710   7.247   4.273   5.718
20156WAT     H260711   7.263   4.426   5.775
20157WAT      O60712   4.893   5.405   8.225
20157WAT     H160713   4.886   5.315   8.269
20157WAT     H260714   4.863   5.475   8.290
20158WAT      O60715   1.354   6.229   2.876
20158WAT     H160716   1.308   6.310   2.840
20158WAT     H260717   1.449   6.253   2.898
20159WAT      O60718   8.200   5.419   2.022
20159WAT     H160719   8.119   5.363   2.003
20159WAT     H260720   8.281   5.360   2.025
20160WAT      O60721   0.781   0.681   8.431
20160WAT     H160722   0.724   0.739   8.374
20160WAT     H260723   0.755   0.585   8.418
20161WAT      O60724   5.089   9.675   9.705
20161WAT     H160725   5.009   9.726   9.675
20161WAT     H260726   5.151   9.736   9.754
20162WAT      O60727   8.905   2.974   5.059
20162WAT     H160728   8.817   3.021   5.067
20162WAT     H260729   8.901   2.910   4.982
20163WAT      O60730   0.179   4.263   6.193
20163WAT     H160731   0.191   4.253   6.094
20163WAT     H260732   0.120   4.189   6.227
20164WAT      O60733   9.697   5.700   8.548
20164WAT     H160734   9.781   5.672   8.502
20164WAT     H260735   9.640   5.619   8.565
20165WAT      O60736   8.024   9.387   7.299
20165WAT     H160737   8.015   9.289   7.320
20165WAT     H260738   8.107   9.422   7.341
20166WAT      O60739   8.055   9.040   4.544
20166WAT     H160740   7.957   9.027   4.558
20166WAT     H260741   8.072   9.134   4.512
20167WAT      O60742   0.345   5.788   1.231
20167WAT     H160743   0.280   5.852   1.189
20167WAT     H260744   0.359   5.814   1.327
20168WAT      O60745   0.671   2.777   1.336
20168WAT     H160746   0.730   2.784   1.417
20168WAT     H260747   0.690   2.853   1.274
20169WAT      O60748   9.674   7.614   5.708
20169WAT     H160749   9.715   7.552   5.776
20169WAT     H260750   9.598   7.568   5.662
20170WAT      O60751   5.498   3.153   5.364
20170WAT     H160752   5.579   3.209   5.382
20170WAT     H260753   5.526   3.058   5.347
20171WAT      O60754   1.265   4.247   4.234
20171WAT     H160755   1.249   4.316   4.162
20171WAT     H260756   1.327   4.177   4.199
20172WAT      O60757   8.127   3.144   1.423
20172WAT     H160758   8.167   3.073   1.364
20172WAT     H260759   8.196   3.214   1.441
20173WAT      O60760   2.888   4.100   4.127
20173WAT     H160761   2.897   4.114   4.225
20173WAT     H260762   2.818   4.162   4.091
20174WAT      O60763   5.142   3.253   7.082
20174WAT     H160764   5.163   3.315   7.006
20174WAT     H260765   5.046   3.262   7.107
20175WAT      O60766   7.393   3.723   0.904
20175WAT     H160767   7.472   3.712   0.844
20175WAT     H260768   7.356   3.634   0.928
20176WAT      O60769   9.724   5.471   1.776
20176WAT     H160770   9.632   5.510   1.778
20176WAT     H260771   9.718   5.371   1.770
20177WAT      O60772   4.991   3.980   8.372
20177WAT     H160773   4.916   3.914   8.376
20177WAT     H260774   5.008   4.017   8.463
20178WAT      O60775   5.120   5.439   1.977
20178WAT     H160776   5.204   5.403   1.936
20178WAT     H260777   5.138   5.530   2.015
20179WAT      O60778   8.019   5.106   1.410
20179WAT     H160779   8.045   5.081   1.316
20179WAT     H260780   7.925   5.079   1.427
20180WAT      O60781   9.624   0.346   8.592
20180WAT     H160782   9.596   0.414   8.660
20180WAT     H260783   9.710   0.303   8.622
20181WAT      O60784   0.883   5.989   8.349
20181WAT     H160785   0.967   5.960   8.304
20181WAT     H260786   0.841   5.911   8.395
20182WAT      O60787   1.132   4.498   2.683
20182WAT     H160788   1.221   4.512   2.639
20182WAT     H260789   1.104   4.403   2.672
20183WAT      O60790   1.866   5.515   0.873
20183WAT     H160791   1.782   5.504   0.926
20183WAT     H260792   1.916   5.595   0.904
20184WAT      O60793   4.454   0.644   5.766
20184WAT     H160794   4.447   0.545   5.782
20184WAT     H260795   4.542   0.665   5.724
20185WAT      O60796   5.000   5.666   7.513
20185WAT     H160797   4.979   5.571   7.489
20185WAT     H260798   4.945   5.728   7.457
20186WAT      O60799   9.475   1.554   9.651
20186WAT     H160800   9.377   1.542   9.667
20186WAT     H260801   9.490   1.635   9.596
20187WAT      O60802   7.725   5.456   3.898
20187WAT     H160803   7.782   5.537   3.883
20187WAT     H260804   7.636   5.469   3.855
20188WAT      O60805   9.605   9.570   9.572
20188WAT     H160806   9.555   9.573   9.486
20188WAT     H260807   9.700   9.546   9.555
20189WAT      O60808   6.676   4.146   0.344
20189WAT     H160809   6.594   4.193   0.312
20189WAT     H260810   6.721   4.201   0.414
20190WAT      O60811   6.815   1.794   5.326
20190WAT     H160812   6.759   1.816   5.246
20190WAT     H260813   6.793   1.857   5.401
20191WAT      O60814   2.049   8.167   3.995
20191WAT     H160815   2.083   8.240   4.054
20191WAT     H260816   2.120   8.141   3.930
20192WAT      O60817   9.430   9.499   0.539
20192WAT     H160818   9.449   9.458   0.450
20192WAT     H260819   9.488   9.456   0.608
20193WAT      O60820   3.652   3.264   6.865
20193WAT     H160821   3.687   3.358   6.854
20193WAT     H260822   3.556   3.268   6.893
20194WAT      O60823   9.371   8.102   7.837
20194WAT     H160824   9.453   8.126   7.786
20194WAT     H260825   9.303   8.174   7.828
20195WAT      O60826   7.447   2.587   6.956
20195WAT     H160827   7.364   2.593   6.902
20195WAT     H260828   7.525   2.567   6.896
20196WAT      O60829   9.089   3.302   9.010
20196WAT     H160830   9.090   3.211   9.052
20196WAT     H260831   9.086   3.371   9.082
20197WAT      O60832   0.327   4.338   6.865
20197WAT     H160833   0.426   4.331   6.853
20197WAT     H260834   0.307   4.400   6.941
20198WAT      O60835   9.877   2.770   1.480
20198WAT     H160836   9.833   2.712   1.411
20198WAT     H260837   9.819   2.850   1.498
20199WAT      O60838   9.817   7.388   1.954
20199WAT     H160839   9.825   7.414   1.858
20199WAT     H260840   9.774   7.462   2.005
20200WAT      O60841   6.184   7.949   8.262
20200WAT     H160842   6.086   7.968   8.265
20200WAT     H260843   6.231   8.023   8.213
20201WAT      O60844   8.253   3.790   0.772
20201WAT     H160845   8.288   3.748   0.687
20201WAT     H260846   8.290   3.741   0.851
20202WAT      O60847   9.354   2.626   8.737
20202WAT     H160848   9.268   2.675   8.731
20202WAT     H260849   9.417   2.675   8.797
20203WAT      O60850   7.694   0.112   2.821
20203WAT     H160851   7.743   0.198   2.810
20203WAT     H260852   7.638   0.115   2.904
20204WAT      O60853   4.083   4.643   8.603
20204WAT     H160854   4.109   4.555   8.562
20204WAT     H260855   4.152   4.670   8.670
20205WAT      O60856   5.214   2.515   6.961
20205WAT     H160857   5.301   2.528   6.912
20205WAT     H260858   5.166   2.602   6.969
20206WAT      O60859   9.813   2.674   9.019
20206WAT     H160860   9.835   2.688   8.922
20206WAT     H260861   9.867   2.736   9.075
20207WAT      O60862   2.061   9.557   5.824
20207WAT     H160863   1.982   9.606   5.788
20207WAT     H260864   2.107   9.508   5.749
20208WAT      O60865   8.377   4.009   1.789
20208WAT     H160866   8.432   3.926   1.796
20208WAT     H260867   8.281   3.984   1.782
20209WAT      O60868   0.611   9.736   8.320
20209WAT     H160869   0.691   9.689   8.284
20209WAT     H260870   0.566   9.787   8.246
20210WAT      O60871   6.629   6.425   7.488
20210WAT     H160872   6.584   6.431   7.577
20210WAT     H260873   6.611   6.508   7.435
20211WAT      O60874   1.330   8.556   5.246
20211WAT     H160875   1.280   8.470   5.261
20211WAT     H260876   1.268   8.633   5.261
20212WAT      O60877   4.153   4.663   2.321
20212WAT     H160878   4.154   4.747   2.375
20212WAT     H260879   4.198   4.590   2.372
20213WAT      O60880   1.708   4.746   3.421
20213WAT     H160881   1.754   4.816   3.368
20213WAT     H260882   1.645   4.789   3.486
20214WAT      O60883   0.521   3.232   0.524
20214WAT     H160884   0.454   3.177   0.574
20214WAT     H260885   0.510   3.328   0.548
20215WAT      O60886   1.889   3.715   7.536
20215WAT     H160887   1.824   3.773   7.586
20215WAT     H260888   1.861   3.619   7.547
20216WAT      O60889   1.060   8.286   5.121
20216WAT     H160890   0.979   8.309   5.176
20216WAT     H260891   1.140   8.279   5.181
20217WAT      O60892   0.249   3.733   1.203
20217WAT     H160893   0.268   3.831   1.195
20217WAT     H260894   0.165   3.720   1.256
20218WAT      O60895   6.722   7.848   0.350
20218WAT     H160896   6.737   7.812   0.258
20218WAT     H260897   6.755   7.942   0.355
20219WAT      O60898   4.742   9.562   5.137
20219WAT     H160899   4.830   9.549   5.091
20219WAT     H260900   4.673   9.504   5.093
20220WAT      O60901   0.982   0.471   6.770
20220WAT     H160902   0.916   0.504   6.703
20220WAT     H260903   0.975   0.372   6.778
20221WAT      O60904   1.842   6.267   3.508
20221WAT     H160905   1.760   6.320   3.527
20221WAT     H260906   1.825   6.205   3.431
20222WAT      O60907   6.885   6.219   8.148
20222WAT     H160908   6.937   6.146   8.105
20222WAT     H260909   6.787   6.204   8.131
20223WAT      O60910   4.044   9.149   5.645
20223WAT     H160911   4.074   9.063   5.687
20223WAT     H260912   4.043   9.138   5.545
20224WAT      O60913   0.608   3.335   8.860
20224WAT     H160914   0.703   3.363   8.845
20224WAT     H260915   0.592   3.324   8.958
20225WAT      O60916   0.256   4.092   3.945
20225WAT     H160917   0.296   4.018   3.891
20225WAT     H260918   0.310   4.176   3.931
20226WAT      O60919   6.758   5.700   8.915
20226WAT     H160920   6.773   5.714   9.013
20226WAT     H260921   6.845   5.712   8.866
20227WAT      O60922   1.987   5.947   6.259
20227WAT     H160923   1.981   6.046   6.274
20227WAT     H260924   1.998   5.901   6.347
20228WAT      O60925   1.522   7.799   2.087
20228WAT     H160926   1.582   7.819   2.010
20228WAT     H260927   1.427   7.802   2.058
20229WAT      O60928   9.273   2.472   5.974
20229WAT     H160929   9.364   2.431   5.982
20229WAT     H260930   9.278   2.553   5.916
20230WAT      O60931   8.151   1.601   9.410
20230WAT     H160932   8.126   1.636   9.319
20230WAT     H260933   8.217   1.526   9.399
20231WAT      O60934   9.352   7.992   1.952
20231WAT     H160935   9.348   7.898   1.986
20231WAT     H260936   9.420   7.998   1.879
20232WAT      O60937   7.228   7.310   1.393
20232WAT     H160938   7.255   7.305   1.297
20232WAT     H260939   7.132   7.282   1.402
20233WAT      O60940   6.960   0.084   0.777
20233WAT     H160941   6.912   0.170   0.794
20233WAT     H260942   7.057   0.095   0.796
20234WAT      O60943   6.670   2.340   9.036
20234WAT     H160944   6.700   2.374   9.126
20234WAT     H260945   6.570   2.346   9.030
20235WAT      O60946   9.599   3.028   7.581
20235WAT     H160947   9.660   3.092   7.629
20235WAT     H260948   9.568   3.070   7.496
20236WAT      O60949   8.463   3.207   0.912
20236WAT     H160950   8.534   3.145   0.879
20236WAT     H260951   8.386   3.154   0.946
20237WAT      O60952   6.905   1.075   6.249
20237WAT     H160953   6.979   1.008   6.259
20237WAT     H260954   6.929   1.140   6.177
20238WAT      O60955   2.384   7.478   7.891
20238WAT     H160956   2.331   7.562   7.883
20238WAT     H260957   2.402   7.441   7.800
20239WAT      O60958   3.218   0.915   5.341
20239WAT     H160959   3.234   0.921   5.242
20239WAT     H260960   3.299   0.876   5.385
20240WAT      O60961   3.461   1.476   3.408
20240WAT     H160962   3.489   1.528   3.488
20240WAT     H260963   3.537   1.472   3.342
20241WAT      O60964   5.288   6.831   9.745
20241WAT     H160965   5.349   6.752   9.738
20241WAT     H260966   5.195   6.805   9.719
20242WAT      O60967   6.000   5.252   6.208
20242WAT     H160968   6.032   5.302   6.128
20242WAT     H260969   6.046   5.164   6.214
20243WAT      O60970   2.530   3.617   4.589
20243WAT     H160971   2.464   3.555   4.631
20243WAT     H260972   2.482   3.697   4.552
20244WAT      O60973   5.666   5.045   6.014
20244WAT     H160974   5.743   4.980   6.012
20244WAT     H260975   5.596   5.011   6.077
20245WAT      O60976   0.742   5.189   7.049
20245WAT     H160977   0.660   5.187   7.107
20245WAT     H260978   0.812   5.246   7.092
20246WAT      O60979   4.791   7.324   4.117
20246WAT     H160980   4.823   7.301   4.209
20246WAT     H260981   4.717   7.391   4.123
20247WAT      O60982   4.581   4.763   6.599
20247WAT     H160983   4.524   4.823   6.543
20247WAT     H260984   4.675   4.797   6.599
20248WAT      O60985   7.816   6.719   5.003
20248WAT     H160986   7.804   6.663   4.921
20248WAT     H260987   7.879   6.794   4.983
20249WAT      O60988   9.543   8.652   4.631
20249WAT     H160989   9.634   8.685   4.603
20249WAT     H260990   9.516   8.575   4.572
20250WAT      O60991   2.247   3.469   4.116
20250WAT     H160992   2.232   3.410   4.036
20250WAT     H260993   2.246   3.565   4.088
20251WAT      O60994   0.202   7.597   2.187
20251WAT     H160995   0.213   7.504   2.151
20251WAT     H260996   0.153   7.593   2.274
20252WAT      O60997   1.432   0.287   8.841
20252WAT     H160998   1.504   0.218   8.836
20252WAT     H260999   1.435   0.343   8.758
20253WAT      O61000   1.908   5.039   7.274
20253WAT     H161001   1.863   4.951   7.259
20253WAT     H261002   1.906   5.061   7.371
20254WAT      O61003   0.327   5.977   5.119
20254WAT     H161004   0.231   5.998   5.101
20254WAT     H261005   0.346   5.883   5.091
20255WAT      O61006   0.897   7.109   2.732
20255WAT     H161007   0.945   7.152   2.809
20255WAT     H261008   0.892   7.173   2.656
20256WAT      O61009   6.705   2.732   6.430
20256WAT     H161010   6.617   2.694   6.401
20256WAT     H261011   6.715   2.825   6.393
20257WAT      O61012   8.811   8.701   6.906
20257WAT     H161013   8.834   8.728   6.812
20257WAT     H261014   8.777   8.780   6.956
20258WAT      O61015   4.962   4.297   9.704
20258WAT     H161016   4.916   4.291   9.793
20258WAT     H261017   4.896   4.325   9.634
20259WAT      O61018   0.464   6.036   0.472
20259WAT     H161019   0.497   6.129   0.488
20259WAT     H261020   0.404   6.008   0.548
20260WAT      O61021   6.852   4.025   0.601
20260WAT     H161022   6.924   4.047   0.535
20260WAT     H261023   6.825   3.929   0.591
20261WAT      O61024   0.904   4.334   5.237
20261WAT     H161025   0.851   4.249   5.235
20261WAT     H261026   0.904   4.372   5.329
20262WAT      O61027   1.559   3.300   1.086
20262WAT     H161028   1.648   3.345   1.099
20262WAT     H261029   1.559   3.250   1.000
20263WAT      O61030   7.751   1.334   2.146
20263WAT     H161031   7.758   1.269   2.223
20263WAT     H261032   7.750   1.283   2.060
20264WAT      O61033   4.403   1.129   2.453
20264WAT     H161034   4.479   1.137   2.518
20264WAT     H261035   4.429   1.068   2.378
20265WAT      O61036   1.775   6.657   7.149
20265WAT     H161037   1.737   6.570   7.119
20265WAT     H261038   1.708   6.730   7.134
20266WAT      O61039   8.563   2.169   5.526
20266WAT     H161040   8.568   2.253   5.472
20266WAT     H261041   8.642   2.111   5.506
20267WAT      O61042   9.264   1.743   3.738
20267WAT     H161043   9.212   1.824   3.766
20267WAT     H261044   9.201   1.670   3.711
20268WAT      O61045   4.503   3.344   0.310
20268WAT     H161046   4.474   3.383   0.222
20268WAT     H261047   4.422   3.319   0.363
20269WAT      O61048   6.840   1.685   6.666
20269WAT     H161049   6.867   1.775   6.701
20269WAT     H261050   6.914   1.619   6.683
20270WAT      O61051   7.537   0.246   3.736
20270WAT     H161052   7.475   0.224   3.660
20270WAT     H261053   7.559   0.343   3.734
20271WAT      O61054   9.706   6.046   6.407
20271WAT     H161055   9.671   5.961   6.446
20271WAT     H261056   9.783   6.025   6.346
20272WAT      O61057   1.051   3.807   4.580
20272WAT     H161058   1.140   3.779   4.544
20272WAT     H261059   0.981   3.793   4.510
20273WAT      O61060   7.975   6.225   1.318
20273WAT     H161061   8.063   6.270   1.332
20273WAT     H261062   7.970   6.189   1.225
20274WAT      O61063   1.866   5.259   6.634
20274WAT     H161064   1.858   5.357   6.616
20274WAT     H261065   1.958   5.238   6.666
20275WAT      O61066   9.858   9.068   0.516
20275WAT     H161067   9.819   9.158   0.495
20275WAT     H261068   9.882   9.064   0.613
20276WAT      O61069   1.926   8.396   1.552
20276WAT     H161070   1.837   8.351   1.552
20276WAT     H261071   1.951   8.424   1.645
20277WAT      O61072   4.028   3.178   1.125
20277WAT     H161073   4.114   3.159   1.172
20277WAT     H261074   4.000   3.098   1.072
20278WAT      O61075   0.876   4.271   7.517
20278WAT     H161076   0.943   4.216   7.469
20278WAT     H261077   0.881   4.252   7.616
20279WAT      O61078   9.217   2.836   8.498
20279WAT     H161079   9.149   2.894   8.454
20279WAT     H261080   9.173   2.779   8.567
20280WAT      O61081   9.688   4.920   1.017
20280WAT     H161082   9.710   4.913   1.114
20280WAT     H261083   9.765   4.887   0.963
20281WAT      O61084   9.585   4.930   7.523
20281WAT     H161085   9.524   4.907   7.447
20281WAT     H261086   9.565   5.022   7.556
20282WAT      O61087   6.727   2.713   3.567
20282WAT     H161088   6.699   2.642   3.502
20282WAT     H261089   6.809   2.683   3.615
20283WAT      O61090   1.716   8.780   2.375
20283WAT     H161091   1.780   8.707   2.350
20283WAT     H261092   1.629   8.766   2.328
20284WAT      O61093   3.035   7.157   3.709
20284WAT     H161094   3.121   7.110   3.725
20284WAT     H261095   3.003   7.139   3.617
20285WAT      O61096   0.101   5.633   3.110
20285WAT     H161097   0.023   5.595   3.158
20285WAT     H261098   0.135   5.713   3.160
20286WAT      O61099   3.866   0.342   2.404
20286WAT     H161100   3.920   0.263   2.434
20286WAT     H261101   3.875   0.352   2.305
20287WAT      O61102   4.179   5.663   5.184
20287WAT     H161103   4.268   5.685   5.144
20287WAT     H261104   4.125   5.747   5.191
20288WAT      O61105   5.071   0.334   4.194
20288WAT     H161106   5.067   0.409   4.127
20288WAT     H261107   5.088   0.248   4.147
20289WAT      O61108   4.824   4.184   2.838
20289WAT     H161109   4.825   4.284   2.828
20289WAT     H261110   4.906   4.154   2.886
20290WAT      O61111   2.249   2.434   6.510
20290WAT     H161112   2.308   2.370   6.560
20290WAT     H261113   2.305   2.484   6.443
20291WAT      O61114   1.337   1.637   5.989
20291WAT     H161115   1.365   1.693   5.911
20291WAT     H261116   1.364   1.683   6.074
20292WAT      O61117   7.204   2.353   9.543
20292WAT     H161118   7.247   2.384   9.628
20292WAT     H261119   7.165   2.262   9.557
20293WAT      O61120   6.165   3.092   7.056
20293WAT     H161121   6.074   3.106   7.018
20293WAT     H261122   6.181   2.994   7.070
20294WAT      O61123   6.393   6.067   7.384
20294WAT     H161124   6.464   6.129   7.349
20294WAT     H261125   6.336   6.035   7.308
20295WAT      O61126   2.660   2.049   1.140
20295WAT     H161127   2.733   1.988   1.107
20295WAT     H261128   2.576   1.996   1.152
20296WAT      O61129   8.891   5.863   4.306
20296WAT     H161130   8.977   5.814   4.324
20296WAT     H261131   8.851   5.830   4.220
20297WAT      O61132   7.246   2.348   0.615
20297WAT     H161133   7.186   2.291   0.673
20297WAT     H261134   7.279   2.293   0.538
20298WAT      O61135   9.465   5.636   2.905
20298WAT     H161136   9.543   5.688   2.872
20298WAT     H261137   9.407   5.610   2.828
20299WAT      O61138   0.827   1.162   2.852
20299WAT     H161139   0.875   1.116   2.777
20299WAT     H261140   0.731   1.174   2.827
20300WAT      O61141   9.110   8.837   4.691
20300WAT     H161142   9.057   8.768   4.740
20300WAT     H261143   9.093   8.927   4.732
20301WAT      O61144   2.973   6.951   5.562
20301WAT     H161145   2.978   6.937   5.463
20301WAT     H261146   2.893   7.007   5.583
20302WAT      O61147   3.020   7.459   2.199
20302WAT     H161148   2.978   7.443   2.110
20302WAT     H261149   2.988   7.547   2.235
20303WAT      O61150   6.899   4.136   3.530
20303WAT     H161151   6.831   4.147   3.457
20303WAT     H261152   6.855   4.150   3.619
20304WAT      O61153   3.078   6.461   2.023
20304WAT     H161154   3.109   6.386   1.963
20304WAT     H261155   3.027   6.423   2.100
20305WAT      O61156   5.161   1.922   1.545
20305WAT     H161157   5.239   1.922   1.608
20305WAT     H261158   5.086   1.976   1.585
20306WAT      O61159   7.857   3.858   8.347
20306WAT     H161160   7.919   3.931   8.374
20306WAT     H261161   7.908   3.772   8.340
20307WAT      O61162   1.190   9.410   8.841
20307WAT     H161163   1.163   9.383   8.933
20307WAT     H261164   1.252   9.488   8.846
20308WAT      O61165   0.246   2.049   2.129
20308WAT     H161166   0.223   2.119   2.061
20308WAT     H261167   0.332   2.074   2.174
20309WAT      O61168   5.300   7.100   3.106
20309WAT     H161169   5.207   7.136   3.117
20309WAT     H261170   5.329   7.058   3.192
20310WAT      O61171   0.698   5.354   7.919
20310WAT     H161172   0.669   5.294   7.994
20310WAT     H261173   0.729   5.299   7.842
20311WAT      O61174   1.142   7.312   4.501
20311WAT     H161175   1.147   7.406   4.533
20311WAT     H261176   1.070   7.264   4.550
20312WAT      O61177   8.927   7.022   5.096
20312WAT     H161178   8.892   7.115   5.085
20312WAT     H261179   8.874   6.959   5.039
20313WAT      O61180   6.975   8.761   9.216
20313WAT     H161181   7.011   8.814   9.293
20313WAT     H261182   7.010   8.667   9.221
20314WAT      O61183   0.280   4.642   8.282
20314WAT     H161184   0.229   4.674   8.202
20314WAT     H261185   0.372   4.615   8.254
20315WAT      O61186   9.631   6.444   5.754
20315WAT     H161187   9.715   6.446   5.808
20315WAT     H261188   9.611   6.350   5.726
20316WAT      O61189   3.491   4.328   1.330
20316WAT     H161190   3.493   4.387   1.249
20316WAT     H261191   3.417   4.261   1.321
20317WAT      O61192   1.704   8.759   9.610
20317WAT     H161193   1.680   8.697   9.535
20317WAT     H261194   1.790   8.805   9.589
20318WAT      O61195   0.214   4.197   5.915
20318WAT     H161196   0.166   4.253   5.847
20318WAT     H261197   0.290   4.149   5.872
20319WAT      O61198   6.091   0.810   0.039
20319WAT     H161199   6.167   0.776   0.095
20319WAT     H261200   6.122   0.889  -0.014
20320WAT      O61201   2.173   1.630   9.803
20320WAT     H161202   2.106   1.593   9.867
20320WAT     H261203   2.142   1.613   9.709
20321WAT      O61204   8.613   2.037   0.041
20321WAT     H161205   8.674   2.011  -0.033
20321WAT     H261206   8.518   2.035   0.007
20322WAT      O61207   5.640   4.542   2.952
20322WAT     H161208   5.704   4.480   2.996
20322WAT     H261209   5.595   4.598   3.021
20323WAT      O61210   0.534   2.281   6.102
20323WAT     H161211   0.468   2.216   6.064
20323WAT     H261212   0.620   2.233   6.119
20324WAT      O61213   0.084   6.527   9.771
20324WAT     H161214   0.041   6.593   9.832
20324WAT     H261215   0.169   6.566   9.735
20325WAT      O61216   5.564   3.802   6.849
20325WAT     H161217   5.663   3.811   6.846
20325WAT     H261218   5.534   3.787   6.943
20326WAT      O61219   8.304   2.617   1.659
20326WAT     H161220   8.349   2.615   1.749
20326WAT     H261221   8.278   2.711   1.637
20327WAT      O61222   7.570   7.056   0.389
20327WAT     H161223   7.643   7.116   0.355
20327WAT     H261224   7.609   6.984   0.445
20328WAT      O61225   5.134   1.572   4.358
20328WAT     H161226   5.190   1.652   4.334
20328WAT     H261227   5.084   1.592   4.442
20329WAT      O61228   5.200   6.224   2.287
20329WAT     H161229   5.175   6.295   2.353
20329WAT     H261230   5.210   6.137   2.334
20330WAT      O61231   6.937   2.097   6.441
20330WAT     H161232   7.036   2.113   6.443
20330WAT     H261233   6.889   2.184   6.446
20331WAT      O61234   7.366   5.831   1.657
20331WAT     H161235   7.294   5.833   1.587
20331WAT     H261236   7.436   5.898   1.634
20332WAT      O61237   2.765   4.930   5.058
20332WAT     H161238   2.824   5.003   5.024
20332WAT     H261239   2.820   4.865   5.111
20333WAT      O61240   8.204   7.541   7.035
20333WAT     H161241   8.133   7.499   7.092
20333WAT     H261242   8.294   7.521   7.074
20334WAT      O61243   2.908   7.216   7.244
20334WAT     H161244   2.941   7.262   7.162
20334WAT     H261245   2.985   7.192   7.303
20335WAT      O61246   8.563   8.133   3.863
20335WAT     H161247   8.661   8.119   3.846
20335WAT     H261248   8.551   8.182   3.949
20336WAT      O61249   7.940   4.088   5.415
20336WAT     H161250   7.888   4.043   5.343
20336WAT     H261251   7.915   4.049   5.503
20337WAT      O61252   1.752   3.112   3.178
20337WAT     H161253   1.725   3.196   3.132
20337WAT     H261254   1.840   3.126   3.225
20338WAT      O61255   5.757   4.876   9.211
20338WAT     H161256   5.697   4.844   9.284
20338WAT     H261257   5.822   4.804   9.187
20339WAT      O61258   0.127   1.870   2.584
20339WAT     H161259   0.159   1.775   2.589
20339WAT     H261260   0.162   1.920   2.663
20340WAT      O61261   1.024   8.961   4.789
20340WAT     H161262   1.079   9.045   4.795
20340WAT     H261263   1.074   8.886   4.833
20341WAT      O61264   1.807   6.203   9.329
20341WAT     H161265   1.879   6.153   9.378
20341WAT     H261266   1.843   6.239   9.243
20342WAT      O61267   5.636   3.369   4.015
20342WAT     H161268   5.615   3.422   3.933
20342WAT     H261269   5.728   3.331   4.008
20343WAT      O61270   8.509   6.814   1.039
20343WAT     H161271   8.594   6.853   1.074
20343WAT     H261272   8.528   6.722   1.004
20344WAT      O61273   0.909   9.008   1.880
20344WAT     H161274   0.915   8.932   1.815
20344WAT     H261275   0.956   8.982   1.965
20345WAT      O61276   2.937   6.197   5.711
20345WAT     H161277   2.850   6.153   5.687
20345WAT     H261278   2.939   6.289   5.674
20346WAT      O61279   5.750   7.415   6.739
20346WAT     H161280   5.840   7.393   6.777
20346WAT     H261281   5.726   7.508   6.763
20347WAT      O61282   6.127   5.847   7.709
20347WAT     H161283   6.193   5.841   7.634
20347WAT     H261284   6.100   5.754   7.737
20348WAT      O61285   7.708   8.228   5.078
20348WAT     H161286   7.725   8.176   5.162
20348WAT     H261287   7.671   8.318   5.101
20349WAT      O61288   7.829   5.398   8.749
20349WAT     H161289   7.828   5.492   8.713
20349WAT     H261290   7.836   5.401   8.848
20350WAT      O61291   9.669   7.054   0.063
20350WAT     H161292   9.613   7.044   0.146
20350WAT     H261293   9.622   7.010  -0.014
20351WAT      O61294   2.574   1.519   9.219
20351WAT     H161295   2.502   1.513   9.288
20351WAT     H261296   2.600   1.428   9.189
20352WAT      O61297   0.689   3.711   3.489
20352WAT     H161298   0.787   3.730   3.485
20352WAT     H261299   0.638   3.796   3.478
20353WAT      O61300   7.190   7.091   8.109
20353WAT     H161301   7.094   7.071   8.090
20353WAT     H261302   7.208   7.188   8.094
20354WAT      O61303   5.383   2.750   9.570
20354WAT     H161304   5.355   2.761   9.474
20354WAT     H261305   5.310   2.704   9.620
20355WAT      O61306   9.035   4.559   1.373
20355WAT     H161307   9.025   4.657   1.389
20355WAT     H261308   9.001   4.508   1.453
20356WAT      O61309   3.062   7.183   5.855
20356WAT     H161310   3.158   7.185   5.880
20356WAT     H261311   3.050   7.220   5.763
20357WAT      O61312   2.737   1.174   0.789
20357WAT     H161313   2.761   1.081   0.761
20357WAT     H261314   2.638   1.186   0.781
20358WAT      O61315   8.670   9.644   0.811
20358WAT     H161316   8.593   9.602   0.763
20358WAT     H261317   8.683   9.737   0.778
20359WAT      O61318   0.715   7.854   1.164
20359WAT     H161319   0.618   7.874   1.178
20359WAT     H261320   0.725   7.772   1.108
20360WAT      O61321   4.679   3.393   0.533
20360WAT     H161322   4.765   3.444   0.527
20360WAT     H261323   4.631   3.397   0.445
20361WAT      O61324   8.320   5.903   2.958
20361WAT     H161325   8.246   5.962   2.924
20361WAT     H261326   8.383   5.956   3.013
20362WAT      O61327   3.286   6.478   7.295
20362WAT     H161328   3.337   6.560   7.269
20362WAT     H261329   3.348   6.411   7.336
20363WAT      O61330   2.300   3.727   2.249
20363WAT     H161331   2.361   3.688   2.179
20363WAT     H261332   2.224   3.665   2.266
20364WAT      O61333   9.485   4.090   8.645
20364WAT     H161334   9.450   4.139   8.565
20364WAT     H261335   9.412   4.082   8.713
20365WAT      O61336   8.898   3.678   6.022
20365WAT     H161337   8.906   3.643   5.929
20365WAT     H261338   8.917   3.605   6.088
20366WAT      O61339   5.769   7.834   4.694
20366WAT     H161340   5.772   7.820   4.595
20366WAT     H261341   5.854   7.802   4.735
20367WAT      O61342   2.425   7.504   6.115
20367WAT     H161343   2.422   7.441   6.192
20367WAT     H261344   2.519   7.536   6.102
20368WAT      O61345   9.005   8.966   6.545
20368WAT     H161346   9.077   9.034   6.534
20368WAT     H261347   8.921   9.000   6.503
20369WAT      O61348   3.181   1.152   1.539
20369WAT     H161349   3.214   1.158   1.634
20369WAT     H261350   3.240   1.090   1.487
20370WAT      O61351   9.291   3.665   8.020
20370WAT     H161352   9.378   3.692   8.063
20370WAT     H261353   9.216   3.717   8.062
20371WAT      O61354   6.974   8.622   1.957
20371WAT     H161355   6.980   8.535   2.007
20371WAT     H261356   6.989   8.605   1.859
20372WAT      O61357   6.002   5.570   0.724
20372WAT     H161358   5.947   5.523   0.655
20372WAT     H261359   6.002   5.516   0.808
20373WAT      O61360   5.496   6.247   8.420
20373WAT     H161361   5.487   6.179   8.493
20373WAT     H261362   5.591   6.250   8.390
20374WAT      O61363   3.991   2.636   9.388
20374WAT     H161364   3.975   2.680   9.299
20374WAT     H261365   4.086   2.651   9.416
20375WAT      O61366   6.415   3.539   1.815
20375WAT     H161367   6.495   3.506   1.865
20375WAT     H261368   6.440   3.619   1.762
20376WAT      O61369   5.997   8.318   3.995
20376WAT     H161370   5.980   8.412   4.024
20376WAT     H261371   6.025   8.318   3.899
20377WAT      O61372   2.327   5.858   7.410
20377WAT     H161373   2.377   5.781   7.451
20377WAT     H261374   2.229   5.838   7.411
20378WAT      O61375   5.699   2.301   7.838
20378WAT     H161376   5.708   2.327   7.934
20378WAT     H261377   5.697   2.384   7.781
20379WAT      O61378   0.802   3.752   6.562
20379WAT     H161379   0.766   3.797   6.481
20379WAT     H261380   0.869   3.683   6.535
20380WAT      O61381   3.655   4.621   4.864
20380WAT     H161382   3.573   4.595   4.814
20380WAT     H261383   3.641   4.603   4.962
20381WAT      O61384   3.992   4.724   8.965
20381WAT     H161385   4.067   4.768   8.916
20381WAT     H261386   3.917   4.790   8.978
20382WAT      O61387   6.420   7.458   7.515
20382WAT     H161388   6.420   7.503   7.426
20382WAT     H261389   6.428   7.359   7.504
20383WAT      O61390   1.772   1.981   8.392
20383WAT     H161391   1.723   1.922   8.328
20383WAT     H261392   1.843   1.927   8.439
20384WAT      O61393   3.993   9.129   6.379
20384WAT     H161394   3.949   9.040   6.365
20384WAT     H261395   4.076   9.117   6.434
20385WAT      O61396   6.860   3.843   7.618
20385WAT     H161397   6.875   3.880   7.527
20385WAT     H261398   6.849   3.917   7.684
20386WAT      O61399   3.331   8.983   4.445
20386WAT     H161400   3.318   9.063   4.503
20386WAT     H261401   3.250   8.924   4.452
20387WAT      O61402   9.257   3.884   5.035
20387WAT     H161403   9.353   3.906   5.046
20387WAT     H261404   9.213   3.880   5.124
20388WAT      O61405   1.135   4.685   6.668
20388WAT     H161406   1.053   4.721   6.712
20388WAT     H261407   1.112   4.600   6.620
20389WAT      O61408   4.449   0.511   9.867
20389WAT     H161409   4.432   0.452   9.946
20389WAT     H261410   4.479   0.456   9.790
20390WAT      O61411   0.471   3.493   6.158
20390WAT     H161412   0.468   3.540   6.246
20390WAT     H261413   0.560   3.507   6.115
20391WAT      O61414   1.174   2.806   5.035
20391WAT     H161415   1.237   2.852   5.098
20391WAT     H261416   1.108   2.872   5.001
20392WAT      O61417   8.304   7.920   2.380
20392WAT     H161418   8.333   7.901   2.286
20392WAT     H261419   8.371   7.882   2.443
20393WAT      O61420   6.619   1.970   2.818
20393WAT     H161421   6.627   1.870   2.821
20393WAT     H261422   6.689   2.008   2.759
20394WAT      O61423   7.112   8.848   4.090
20394WAT     H161424   7.022   8.865   4.049
20394WAT     H261425   7.122   8.751   4.111
20395WAT      O61426   4.142   1.176   2.896
20395WAT     H161427   4.058   1.172   2.842
20395WAT     H261428   4.166   1.084   2.927
20396WAT      O61429   2.850   1.621   5.851
20396WAT     H161430   2.825   1.707   5.897
20396WAT     H261431   2.834   1.544   5.913
20397WAT      O61432   4.704   1.840   2.215
20397WAT     H161433   4.683   1.886   2.301
20397WAT     H261434   4.786   1.784   2.225
20398WAT      O61435   8.176   2.599   6.395
20398WAT     H161436   8.154   2.509   6.432
20398WAT     H261437   8.259   2.634   6.437
20399WAT      O61438   0.936   7.022   0.807
20399WAT     H161439   0.881   7.105   0.820
20399WAT     H261440   0.997   7.010   0.886
20400WAT      O61441   8.733   7.697   0.178
20400WAT     H161442   8.672   7.620   0.198
20400WAT     H261443   8.827   7.672   0.200
20401WAT      O61444   3.464   5.676   5.575
20401WAT     H161445   3.538   5.610   5.585
20401WAT     H261446   3.484   5.757   5.630
20402WAT      O61447   3.490   0.932   9.099
20402WAT     H161448   3.531   1.010   9.051
20402WAT     H261449   3.505   0.942   9.197
20403WAT      O61450   1.673   5.055   0.120
20403WAT     H161451   1.762   5.013   0.136
20403WAT     H261452   1.603   5.007   0.173
20404WAT      O61453   0.848   1.048   0.140
20404WAT     H161454   0.930   1.093   0.103
20404WAT     H261455   0.836   1.075   0.235
20405WAT      O61456   3.828   1.247   3.262
20405WAT     H161457   3.896   1.176   3.282
20405WAT     H261458   3.820   1.257   3.163
20406WAT      O61459   9.137   8.569   6.567
20406WAT     H161460   9.216   8.507   6.569
20406WAT     H261461   9.147   8.634   6.492
20407WAT      O61462   0.025   9.466   6.594
20407WAT     H161463  -0.011   9.527   6.524
20407WAT     H261464   0.078   9.394   6.551
20408WAT      O61465   8.502   4.410   1.694
20408WAT     H161466   8.487   4.410   1.595
20408WAT     H261467   8.598   4.392   1.714
20409WAT      O61468   3.299   4.806   0.628
20409WAT     H161469   3.232   4.845   0.691
20409WAT     H261470   3.355   4.739   0.677
20410WAT      O61471   5.970   0.958   4.906
20410WAT     H161472   6.000   0.863   4.914
20410WAT     H261473   5.999   1.009   4.987
20411WAT      O61474   8.659   8.229   1.931
20411WAT     H161475   8.675   8.215   1.834
20411WAT     H261476   8.746   8.221   1.981
20412WAT      O61477   2.602   6.542   7.295
20412WAT     H161478   2.545   6.520   7.216
20412WAT     H261479   2.588   6.474   7.367
20413WAT      O61480   5.691   4.331   0.317
20413WAT     H161481   5.621   4.273   0.358
20413WAT     H261482   5.716   4.294   0.226
20414WAT      O61483   2.585   7.883   9.292
20414WAT     H161484   2.536   7.885   9.205
20414WAT     H261485   2.526   7.842   9.362
20415WAT      O61486   3.415   5.989   8.195
20415WAT     H161487   3.436   6.030   8.284
20415WAT     H261488   3.332   6.029   8.158
20416WAT      O61489   7.497   4.752   0.911
20416WAT     H161490   7.554   4.778   0.989
20416WAT     H261491   7.414   4.809   0.911
20417WAT      O61492   6.871   1.563   7.913
20417WAT     H161493   6.845   1.659   7.920
20417WAT     H261494   6.892   1.528   8.005
20418WAT      O61495   4.343   7.620   2.183
20418WAT     H161496   4.415   7.670   2.231
20418WAT     H261497   4.355   7.522   2.197
20419WAT      O61498   8.874   7.664   4.821
20419WAT     H161499   8.929   7.683   4.901
20419WAT     H261500   8.818   7.583   4.837
20420WAT      O61501   6.284   1.476   4.964
20420WAT     H161502   6.369   1.482   5.016
20420WAT     H261503   6.300   1.503   4.869
20421WAT      O61504   9.340   8.517   1.630
20421WAT     H161505   9.323   8.429   1.675
20421WAT     H261506   9.253   8.560   1.608
20422WAT      O61507   5.087   8.604   7.064
20422WAT     H161508   4.997   8.602   7.108
20422WAT     H261509   5.156   8.624   7.133
20423WAT      O61510   1.820   1.868   0.846
20423WAT     H161511   1.800   1.958   0.807
20423WAT     H261512   1.853   1.807   0.773
20424WAT      O61513   8.474   5.157   6.792
20424WAT     H161514   8.463   5.233   6.728
20424WAT     H261515   8.388   5.107   6.800
20425WAT      O61516   7.768   2.380   4.424
20425WAT     H161517   7.809   2.333   4.346
20425WAT     H261518   7.835   2.443   4.464
20426WAT      O61519   7.547   9.574   8.396
20426WAT     H161520   7.598   9.657   8.420
20426WAT     H261521   7.600   9.520   8.331
20427WAT      O61522   8.477   5.844   5.495
20427WAT     H161523   8.381   5.813   5.494
20427WAT     H261524   8.536   5.770   5.463
20428WAT      O61525   1.439   1.015   3.928
20428WAT     H161526   1.395   1.077   3.993
20428WAT     H261527   1.470   1.068   3.848
20429WAT      O61528   4.676   6.756   3.831
20429WAT     H161529   4.640   6.741   3.924
20429WAT     H261530   4.758   6.701   3.818
20430WAT      O61531   8.632   2.062   0.923
20430WAT     H161532   8.539   2.042   0.893
20430WAT     H261533   8.632   2.140   0.985
20431WAT      O61534   5.281   2.627   3.273
20431WAT     H161535   5.287   2.555   3.203
20431WAT     H261536   5.289   2.585   3.364
20432WAT      O61537   4.556   9.650   9.454
20432WAT     H161538   4.498   9.591   9.510
20432WAT     H261539   4.624   9.595   9.405
20433WAT      O61540   2.906   5.107   3.851
20433WAT     H161541   2.969   5.079   3.779
20433WAT     H261542   2.956   5.119   3.937
20434WAT      O61543   0.053   2.600   3.152
20434WAT     H161544   0.008   2.668   3.095
20434WAT     H261545   0.044   2.625   3.248
20435WAT      O61546   4.166   9.161   4.580
20435WAT     H161547   4.115   9.076   4.579
20435WAT     H261548   4.175   9.196   4.486
20436WAT      O61549   2.418   9.762   7.940
20436WAT     H161550   2.421   9.836   8.008
20436WAT     H261551   2.498   9.769   7.879
20437WAT      O61552   6.206   3.820   2.962
20437WAT     H161553   6.225   3.894   3.027
20437WAT     H261554   6.111   3.790   2.972
20438WAT      O61555   3.723   9.284   1.165
20438WAT     H161556   3.800   9.245   1.114
20438WAT     H261557   3.648   9.303   1.102
20439WAT      O61558   2.706   8.711   8.707
20439WAT     H161559   2.700   8.796   8.654
20439WAT     H261560   2.690   8.731   8.803
20440WAT      O61561   6.506   1.729   5.664
20440WAT     H161562   6.598   1.718   5.625
20440WAT     H261563   6.502   1.682   5.752
20441WAT      O61564   3.450   0.324   3.149
20441WAT     H161565   3.543   0.321   3.112
20441WAT     H261566   3.406   0.235   3.136
20442WAT      O61567   4.220   2.701   4.967
20442WAT     H161568   4.226   2.678   4.870
20442WAT     H261569   4.220   2.617   5.021
20443WAT      O61570   1.540   5.933   8.946
20443WAT     H161571   1.477   5.923   9.022
20443WAT     H261572   1.633   5.912   8.976
20444WAT      O61573   3.973   0.564   4.541
20444WAT     H161574   3.899   0.604   4.596
20444WAT     H261575   3.938   0.537   4.452
20445WAT      O61576   7.173   4.767   2.132
20445WAT     H161577   7.145   4.671   2.133
20445WAT     H261578   7.125   4.815   2.058
20446WAT      O61579   9.092   9.357   2.338
20446WAT     H161580   9.047   9.269   2.351
20446WAT     H261581   9.085   9.410   2.422
20447WAT      O61582   0.269   8.978   6.109
20447WAT     H161583   0.324   8.935   6.180
20447WAT     H261584   0.272   8.922   6.026
20448WAT      O61585   9.364   5.302   6.090
20448WAT     H161586   9.394   5.396   6.073
20448WAT     H261587   9.273   5.288   6.050
20449WAT      O61588   3.537   0.426   3.734
20449WAT     H161589   3.499   0.351   3.680
20449WAT     H261590   3.463   0.485   3.766
20450WAT      O61591   0.137   4.228   5.501
20450WAT     H161592   0.219   4.193   5.455
20450WAT     H261593   0.101   4.306   5.449
20451WAT      O61594   4.275   3.387   2.089
20451WAT     H161595   4.220   3.450   2.145
20451WAT     H261596   4.242   3.391   1.995
20452WAT      O61597   6.258   6.421   3.094
20452WAT     H161598   6.306   6.348   3.046
20452WAT     H261599   6.323   6.474   3.148
20453WAT      O61600   6.569   1.068   1.992
20453WAT     H161601   6.640   1.120   2.039
20453WAT     H261602   6.492   1.052   2.054
20454WAT      O61603   9.257   2.854   0.501
20454WAT     H161604   9.254   2.922   0.429
20454WAT     H261605   9.165   2.834   0.533
20455WAT      O61606   1.279   0.674   8.261
20455WAT     H161607   1.187   0.686   8.299
20455WAT     H261608   1.321   0.592   8.300
20456WAT      O61609   1.478   0.950   5.639
20456WAT     H161610   1.394   0.900   5.657
20456WAT     H261611   1.481   0.977   5.543
20457WAT      O61612   4.694   7.610   2.657
20457WAT     H161613   4.665   7.554   2.734
20457WAT     H261614   4.694   7.555   2.574
20458WAT      O61615   7.610   8.391   2.503
20458WAT     H161616   7.623   8.488   2.523
20458WAT     H261617   7.680   8.361   2.438
20459WAT      O61618   3.249   1.914   8.716
20459WAT     H161619   3.302   1.999   8.715
20459WAT     H261620   3.157   1.933   8.749
20460WAT      O61621   3.676   5.485   2.858
20460WAT     H161622   3.724   5.570   2.882
20460WAT     H261623   3.640   5.492   2.765
20461WAT      O61624   8.093   2.455   8.433
20461WAT     H161625   8.102   2.460   8.334
20461WAT     H261626   8.050   2.539   8.466
20462WAT      O61627   4.383   6.359   9.046
20462WAT     H161628   4.418   6.291   8.982
20462WAT     H261629   4.454   6.386   9.110
20463WAT      O61630   7.229   2.578   3.743
20463WAT     H161631   7.317   2.626   3.746
20463WAT     H261632   7.241   2.488   3.703
20464WAT      O61633   4.544   0.629   3.268
20464WAT     H161634   4.567   0.616   3.364
20464WAT     H261635   4.575   0.549   3.216
20465WAT      O61636   9.065   3.494   1.058
20465WAT     H161637   9.123   3.570   1.088
20465WAT     H261638   9.108   3.446   0.983
20466WAT      O61639   1.048   4.900   4.766
20466WAT     H161640   0.970   4.895   4.704
20466WAT     H261641   1.116   4.963   4.730
20467WAT      O61642   3.593   5.028   9.373
20467WAT     H161643   3.534   4.949   9.360
20467WAT     H261644   3.544   5.111   9.344
20468WAT      O61645   5.750   1.764   8.426
20468WAT     H161646   5.706   1.771   8.515
20468WAT     H261647   5.841   1.805   8.431
20469WAT      O61648   6.722   6.546   0.903
20469WAT     H161649   6.659   6.505   0.970
20469WAT     H261650   6.708   6.503   0.814
20470WAT      O61651   4.106   7.490   6.529
20470WAT     H161652   4.101   7.399   6.488
20470WAT     H261653   4.013   7.522   6.551
20471WAT      O61654   5.652   7.132   9.455
20471WAT     H161655   5.563   7.099   9.485
20471WAT     H261656   5.701   7.058   9.408
20472WAT      O61657   3.833   7.451   9.806
20472WAT     H161658   3.771   7.481   9.734
20472WAT     H261659   3.817   7.505   9.889
20473WAT      O61660   1.923   6.928   6.494
20473WAT     H161661   1.975   6.877   6.563
20473WAT     H261662   1.867   6.998   6.539
20474WAT      O61663   9.819   3.240   9.442
20474WAT     H161664   9.887   3.311   9.459
20474WAT     H261665   9.728   3.273   9.469
20475WAT      O61666   3.334   5.462   5.877
20475WAT     H161667   3.341   5.425   5.969
20475WAT     H261668   3.288   5.396   5.818
20476WAT      O61669   4.636   9.536   1.074
20476WAT     H161670   4.588   9.462   1.026
20476WAT     H261671   4.714   9.567   1.020
20477WAT      O61672   4.811   4.642   0.947
20477WAT     H161673   4.888   4.698   0.977
20477WAT     H261674   4.731   4.700   0.932
20478WAT      O61675   2.378   5.034   5.671
20478WAT     H161676   2.294   5.034   5.616
20478WAT     H261677   2.429   4.950   5.654
20479WAT      O61678   3.272   2.314   3.155
20479WAT     H161679   3.260   2.413   3.152
20479WAT     H261680   3.364   2.292   3.186
20480WAT      O61681   3.571   9.819   9.273
20480WAT     H161682   3.572   9.911   9.311
20480WAT     H261683   3.534   9.755   9.340
20481WAT      O61684   6.822   3.611   3.458
20481WAT     H161685   6.877   3.679   3.410
20481WAT     H261686   6.749   3.579   3.397
20482WAT      O61687   8.111   6.482   5.349
20482WAT     H161688   8.051   6.557   5.322
20482WAT     H261689   8.170   6.511   5.424
20483WAT      O61690   9.757   8.983   2.641
20483WAT     H161691   9.686   9.039   2.684
20483WAT     H261692   9.716   8.926   2.570
20484WAT      O61693   9.837   6.241   9.522
20484WAT     H161694   9.852   6.162   9.582
20484WAT     H261695   9.742   6.243   9.493
20485WAT      O61696   5.349   1.274   9.218
20485WAT     H161697   5.372   1.185   9.256
20485WAT     H261698   5.392   1.346   9.272
20486WAT      O61699   6.635   8.396   9.459
20486WAT     H161700   6.680   8.477   9.498
20486WAT     H261701   6.681   8.369   9.375
20487WAT      O61702   8.614   4.355   6.109
20487WAT     H161703   8.606   4.454   6.100
20487WAT     H261704   8.633   4.332   6.205
20488WAT      O61705   8.916   0.183   2.010
20488WAT     H161706   8.911   0.226   1.920
20488WAT     H261707   8.999   0.127   2.016
20489WAT      O61708   8.209   1.982   4.136
20489WAT     H161709   8.212   2.050   4.063
20489WAT     H261710   8.125   1.928   4.128
20490WAT      O61711   9.516   3.621   3.030
20490WAT     H161712   9.506   3.720   3.020
20490WAT     H261713   9.474   3.575   2.952
20491WAT      O61714   3.505   6.182   3.247
20491WAT     H161715   3.429   6.138   3.295
20491WAT     H261716   3.479   6.275   3.220
20492WAT      O61717   7.795   0.813   4.737
20492WAT     H161718   7.855   0.798   4.816
20492WAT     H261719   7.796   0.910   4.714
20493WAT      O61720   2.787   5.640   6.717
20493WAT     H161721   2.850   5.705   6.674
20493WAT     H261722   2.718   5.612   6.651
20494WAT      O61723   3.746   1.546   7.776
20494WAT     H161724   3.680   1.594   7.718
20494WAT     H261725   3.828   1.524   7.722
20495WAT      O61726   0.365   0.694   4.797
20495WAT     H161727   0.417   0.692   4.712
20495WAT     H261728   0.291   0.627   4.792
20496WAT      O61729   3.597   0.177   3.873
20496WAT     H161730   3.500   0.154   3.871
20496WAT     H261731   3.608   0.275   3.855
20497WAT      O61732   1.292   3.519   5.966
20497WAT     H161733   1.228   3.596   5.956
20497WAT     H261734   1.384   3.550   5.943
20498WAT      O61735   0.391   7.667   1.770
20498WAT     H161736   0.420   7.683   1.865
20498WAT     H261737   0.325   7.737   1.744
20499WAT      O61738   6.384   4.656   1.108
20499WAT     H161739   6.433   4.723   1.165
20499WAT     H261740   6.419   4.564   1.126
20500WAT      O61741   2.519   1.940   8.507
20500WAT     H161742   2.593   2.002   8.484
20500WAT     H261743   2.541   1.848   8.473
20501WAT      O61744   0.034   8.193   2.427
20501WAT     H161745   0.119   8.167   2.381
20501WAT     H261746   0.049   8.192   2.526
20502WAT      O61747   1.687   9.141   2.985
20502WAT     H161748   1.665   9.049   3.017
20502WAT     H261749   1.609   9.180   2.935
20503WAT      O61750   6.845   4.314   2.359
20503WAT     H161751   6.808   4.234   2.312
20503WAT     H261752   6.838   4.394   2.299
20504WAT      O61753   6.177   4.097   6.997
20504WAT     H161754   6.208   4.164   7.064
20504WAT     H261755   6.126   4.143   6.925
20505WAT      O61756   0.300   7.994   2.615
20505WAT     H161757   0.264   7.986   2.707
20505WAT     H261758   0.288   7.908   2.566
20506WAT      O61759   1.195   0.289   3.251
20506WAT     H161760   1.163   0.246   3.336
20506WAT     H261761   1.217   0.218   3.184
20507WAT      O61762   2.129   6.002   8.026
20507WAT     H161763   2.039   6.028   7.992
20507WAT     H261764   2.133   5.902   8.034
20508WAT      O61765   7.037   5.601   7.545
20508WAT     H161766   7.132   5.632   7.547
20508WAT     H261767   7.034   5.502   7.563
20509WAT      O61768   5.836   3.634   1.333
20509WAT     H161769   5.780   3.673   1.405
20509WAT     H261770   5.780   3.615   1.253
20510WAT      O61771   7.977   4.740   3.120
20510WAT     H161772   8.048   4.704   3.060
20510WAT     H261773   7.921   4.806   3.069
20511WAT      O61774   5.212   8.031   1.619
20511WAT     H161775   5.172   8.020   1.710
20511WAT     H261776   5.141   8.054   1.554
20512WAT      O61777   5.153   0.216   7.685
20512WAT     H161778   5.169   0.315   7.690
20512WAT     H261779   5.138   0.180   7.777
20513WAT      O61780   3.978   5.615   4.989
20513WAT     H161781   3.980   5.699   4.934
20513WAT     H261782   4.046   5.621   5.062
20514WAT      O61783   3.098   3.041   5.819
20514WAT     H161784   3.058   3.120   5.774
20514WAT     H261785   3.026   2.984   5.859
20515WAT      O61786   4.772   8.182   9.875
20515WAT     H161787   4.728   8.194   9.963
20515WAT     H261788   4.870   8.168   9.888
20516WAT      O61789   3.573   5.107   7.122
20516WAT     H161790   3.586   5.170   7.198
20516WAT     H261791   3.515   5.031   7.152
20517WAT      O61792   2.737   7.206   4.416
20517WAT     H161793   2.811   7.245   4.361
20517WAT     H261794   2.705   7.275   4.481
20518WAT      O61795   1.209   5.030   3.025
20518WAT     H161796   1.204   4.933   2.999
20518WAT     H261797   1.154   5.083   2.960
20519WAT      O61798   9.123   3.682   2.351
20519WAT     H161799   9.186   3.606   2.371
20519WAT     H261800   9.030   3.654   2.373
20520WAT      O61801   6.415   2.212   8.932
20520WAT     H161802   6.429   2.120   8.896
20520WAT     H261803   6.357   2.207   9.014
20521WAT      O61804   9.741   5.200   1.833
20521WAT     H161805   9.775   5.127   1.774
20521WAT     H261806   9.809   5.219   1.904
20522WAT      O61807   0.212   4.375   2.109
20522WAT     H161808   0.312   4.385   2.102
20522WAT     H261809   0.168   4.463   2.092
20523WAT      O61810   7.393   2.075   3.825
20523WAT     H161811   7.412   2.172   3.832
20523WAT     H261812   7.330   2.059   3.749
20524WAT      O61813   1.973   1.144   2.819
20524WAT     H161814   2.060   1.102   2.844
20524WAT     H261815   1.946   1.209   2.890
20525WAT      O61816   8.660   4.486   1.309
20525WAT     H161817   8.711   4.569   1.329
20525WAT     H261818   8.701   4.439   1.231
20526WAT      O61819   0.403   2.566   1.773
20526WAT     H161820   0.358   2.512   1.702
20526WAT     H261821   0.448   2.645   1.732
20527WAT      O61822   4.575   5.257   9.309
20527WAT     H161823   4.606   5.213   9.393
20527WAT     H261824   4.616   5.210   9.230
20528WAT      O61825   2.857   1.518   6.385
20528WAT     H161826   2.787   1.451   6.405
20528WAT     H261827   2.818   1.610   6.391
20529WAT      O61828   6.422   7.717   9.552
20529WAT     H161829   6.391   7.709   9.646
20529WAT     H261830   6.353   7.765   9.498
20530WAT      O61831   6.723   8.199   9.237
20530WAT     H161832   6.656   8.134   9.274
20530WAT     H261833   6.697   8.226   9.145
20531WAT      O61834   7.053   1.382   3.988
20531WAT     H161835   6.965   1.354   3.948
20531WAT     H261836   7.037   1.454   4.055
20532WAT      O61837   3.425   1.042   5.764
20532WAT     H161838   3.477   0.963   5.797
20532WAT     H261839   3.339   1.049   5.815
20533WAT      O61840   6.133   0.310   2.398
20533WAT     H161841   6.049   0.363   2.395
20533WAT     H261842   6.194   0.339   2.324
20534WAT      O61843   7.361   0.705   1.209
20534WAT     H161844   7.432   0.770   1.184
20534WAT     H261845   7.272   0.750   1.209
20535WAT      O61846   1.737   8.939   8.772
20535WAT     H161847   1.695   8.896   8.692
20535WAT     H261848   1.833   8.913   8.778
20536WAT      O61849   3.267   1.165   3.182
20536WAT     H161850   3.228   1.159   3.090
20536WAT     H261851   3.350   1.109   3.188
20537WAT      O61852   5.526   4.916   7.160
20537WAT     H161853   5.483   5.001   7.134
20537WAT     H261854   5.516   4.902   7.259
20538WAT      O61855   9.248   2.598   0.895
20538WAT     H161856   9.301   2.656   0.833
20538WAT     H261857   9.162   2.573   0.850
20539WAT      O61858   6.107   2.143   0.655
20539WAT     H161859   6.104   2.064   0.594
20539WAT     H261860   6.181   2.130   0.722
20540WAT      O61861   8.339   9.572   5.067
20540WAT     H161862   8.303   9.480   5.052
20540WAT     H261863   8.389   9.575   5.153
20541WAT      O61864   5.848   7.613   9.674
20541WAT     H161865   5.832   7.514   9.679
20541WAT     H261866   5.913   7.639   9.745
20542WAT      O61867   1.331   1.642   5.252
20542WAT     H161868   1.404   1.707   5.272
20542WAT     H261869   1.338   1.563   5.313
20543WAT      O61870   3.673   1.387   2.178
20543WAT     H161871   3.594   1.336   2.142
20543WAT     H261872   3.646   1.436   2.261
20544WAT      O61873   1.146   3.458   6.324
20544WAT     H161874   1.162   3.384   6.389
20544WAT     H261875   1.222   3.523   6.328
20545WAT      O61876   8.230   5.863   4.403
20545WAT     H161877   8.171   5.927   4.451
20545WAT     H261878   8.210   5.866   4.305
20546WAT      O61879   8.963   3.805   6.407
20546WAT     H161880   8.898   3.873   6.441
20546WAT     H261881   9.021   3.846   6.337
20547WAT      O61882   4.231   5.943   5.702
20547WAT     H161883   4.169   5.906   5.633
20547WAT     H261884   4.268   6.030   5.671
20548WAT      O61885   9.067   7.239   6.071
20548WAT     H161886   8.968   7.249   6.062
20548WAT     H261887   9.112   7.310   6.016
20549WAT      O61888   2.768   8.419   7.670
20549WAT     H161889   2.690   8.356   7.678
20549WAT     H261890   2.847   8.369   7.635
20550WAT      O61891   5.680   0.364   8.875
20550WAT     H161892   5.739   0.426   8.824
20550WAT     H261893   5.646   0.292   8.814
20551WAT      O61894   1.437   6.853   9.474
20551WAT     H161895   1.436   6.754   9.466
20551WAT     H261896   1.356   6.883   9.525
20552WAT      O61897   8.261   6.615   1.974
20552WAT     H161898   8.348   6.631   1.928
20552WAT     H261899   8.188   6.663   1.925
20553WAT      O61900   3.781   7.370   6.275
20553WAT     H161901   3.740   7.461   6.288
20553WAT     H261902   3.765   7.340   6.181
20554WAT      O61903   0.429   4.553   1.662
20554WAT     H161904   0.524   4.573   1.687
20554WAT     H261905   0.408   4.458   1.683
20555WAT      O61906   6.783   1.182   1.816
20555WAT     H161907   6.804   1.180   1.914
20555WAT     H261908   6.866   1.167   1.763
20556WAT      O61909   9.883   6.258   2.563
20556WAT     H161910   9.832   6.322   2.620
20556WAT     H261911   9.974   6.244   2.601
20557WAT      O61912   4.739   1.118   9.337
20557WAT     H161913   4.822   1.068   9.363
20557WAT     H261914   4.687   1.140   9.419
20558WAT      O61915   4.000   9.074   5.105
20558WAT     H161916   3.910   9.054   5.145
20558WAT     H261917   4.055   9.125   5.171
20559WAT      O61918   8.721   5.742   9.481
20559WAT     H161919   8.707   5.760   9.579
20559WAT     H261920   8.804   5.687   9.469
20560WAT      O61921   7.840   0.970   8.004
20560WAT     H161922   7.855   1.065   7.977
20560WAT     H261923   7.816   0.915   7.924
20561WAT      O61924   8.949   8.405   6.445
20561WAT     H161925   8.944   8.319   6.496
20561WAT     H261926   9.008   8.469   6.495
20562WAT      O61927   7.191   7.970   0.423
20562WAT     H161928   7.178   7.897   0.490
20562WAT     H261929   7.175   8.059   0.467
20563WAT      O61930   5.261   2.518   9.136
20563WAT     H161931   5.358   2.537   9.152
20563WAT     H261932   5.229   2.570   9.056
20564WAT      O61933   5.471   2.705   7.554
20564WAT     H161934   5.425   2.697   7.465
20564WAT     H261935   5.548   2.767   7.545
20565WAT      O61936   3.613   3.904   9.128
20565WAT     H161937   3.552   3.881   9.052
20565WAT     H261938   3.573   3.869   9.213
20566WAT      O61939   8.410   3.489   8.077
20566WAT     H161940   8.509   3.478   8.068
20566WAT     H261941   8.387   3.586   8.075
20567WAT      O61942   5.845   0.108   4.367
20567WAT     H161943   5.887   0.024   4.332
20567WAT     H261944   5.863   0.115   4.466
20568WAT      O61945   1.743   2.668   7.352
20568WAT     H161946   1.753   2.767   7.345
20568WAT     H261947   1.829   2.624   7.327
20569WAT      O61948   7.908   6.098   5.654
20569WAT     H161949   7.897   6.031   5.580
20569WAT     H261950   7.899   6.191   5.616
20570WAT      O61951   2.288   4.648   5.055
20570WAT     H161952   2.303   4.659   4.957
20570WAT     H261953   2.292   4.551   5.078
20571WAT      O61954   6.748   1.195   8.226
20571WAT     H161955   6.682   1.213   8.154
20571WAT     H261956   6.700   1.163   8.308
20572WAT      O61957   2.630   1.534   3.306
20572WAT     H161958   2.707   1.492   3.259
20572WAT     H261959   2.545   1.488   3.279
20573WAT      O61960   6.732   6.139   0.758
20573WAT     H161961   6.733   6.234   0.727
20573WAT     H261962   6.774   6.081   0.689
20574WAT      O61963   6.160   2.731   7.788
20574WAT     H161964   6.097   2.796   7.831
20574WAT     H261965   6.168   2.752   7.691
20575WAT      O61966   2.314   4.455   0.944
20575WAT     H161967   2.410   4.447   0.917
20575WAT     H261968   2.263   4.376   0.910
20576WAT      O61969   1.795   1.795   0.561
20576WAT     H161970   1.842   1.718   0.604
20576WAT     H261971   1.812   1.795   0.463
20577WAT      O61972   3.626   0.427   7.123
20577WAT     H161973   3.625   0.410   7.222
20577WAT     H261974   3.721   0.423   7.090
20578WAT      O61975   1.437   8.949   7.284
20578WAT     H161976   1.492   8.866   7.297
20578WAT     H261977   1.420   8.991   7.373
20579WAT      O61978   7.315   4.858   7.182
20579WAT     H161979   7.331   4.908   7.097
20579WAT     H261980   7.216   4.851   7.199
20580WAT      O61981   9.816   0.157   6.188
20580WAT     H161982   9.771   0.075   6.152
20580WAT     H261983   9.838   0.219   6.112
20581WAT      O61984   9.589   4.591   3.043
20581WAT     H161985   9.565   4.633   2.955
20581WAT     H261986   9.515   4.531   3.072
20582WAT      O61987   2.979   5.790   5.000
20582WAT     H161988   2.970   5.738   5.085
20582WAT     H261989   2.889   5.800   4.958
20583WAT      O61990   7.258   1.818   6.703
20583WAT     H161991   7.165   1.855   6.712
20583WAT     H261992   7.257   1.721   6.727
20584WAT      O61993   1.054   7.033   5.964
20584WAT     H161994   1.139   7.084   5.953
20584WAT     H261995   0.977   7.092   5.938
20585WAT      O61996   7.008   3.512   0.006
20585WAT     H161997   7.078   3.578   0.031
20585WAT     H261998   6.917   3.554   0.017
20586WAT      O61999   8.645   9.670   5.828
20586WAT     H162000   8.599   9.737   5.886
20586WAT     H262001   8.698   9.718   5.758
20587WAT      O62002   5.455   0.208   5.604
20587WAT     H162003   5.513   0.152   5.545
20587WAT     H262004   5.382   0.151   5.642
20588WAT      O62005   8.451   1.465   3.519
20588WAT     H162006   8.462   1.367   3.535
20588WAT     H262007   8.539   1.511   3.533
20589WAT      O62008   5.412   9.733   1.338
20589WAT     H162009   5.480   9.751   1.409
20589WAT     H262010   5.348   9.663   1.370
20590WAT      O62011   2.532   6.795   6.982
20590WAT     H162012   2.606   6.849   7.021
20590WAT     H262013   2.483   6.748   7.056
20591WAT      O62014   6.067   8.033   9.795
20591WAT     H162015   6.159   8.070   9.779
20591WAT     H262016   6.017   8.030   9.709
20592WAT      O62017   1.289   0.977   7.195
20592WAT     H162018   1.343   1.025   7.264
20592WAT     H262019   1.279   0.881   7.221
20593WAT      O62020   1.658   6.963   3.786
20593WAT     H162021   1.722   7.004   3.721
20593WAT     H262022   1.617   6.881   3.746
20594WAT      O62023   2.383   4.057   4.983
20594WAT     H162024   2.334   4.063   4.896
20594WAT     H262025   2.431   4.143   5.000
20595WAT      O62026   1.496   9.526   6.292
20595WAT     H162027   1.404   9.563   6.303
20595WAT     H262028   1.491   9.440   6.240
20596WAT      O62029   0.723   8.314   2.205
20596WAT     H162030   0.653   8.313   2.134
20596WAT     H262031   0.710   8.236   2.266
20597WAT      O62032   9.447   9.516   7.445
20597WAT     H162033   9.402   9.426   7.443
20597WAT     H262034   9.476   9.536   7.538
20598WAT      O62035   8.726   3.826   3.541
20598WAT     H162036   8.738   3.793   3.447
20598WAT     H262037   8.815   3.838   3.584
20599WAT      O62038   6.755   8.382   5.583
20599WAT     H162039   6.838   8.335   5.613
20599WAT     H262040   6.699   8.405   5.663
20600WAT      O62041   7.281   9.104   8.720
20600WAT     H162042   7.252   9.150   8.636
20600WAT     H262043   7.220   9.028   8.740
20601WAT      O62044   1.596   9.475   2.843
20601WAT     H162045   1.538   9.557   2.843
20601WAT     H262046   1.691   9.502   2.828
20602WAT      O62047   1.333   1.173   9.288
20602WAT     H162048   1.420   1.224   9.280
20602WAT     H262049   1.326   1.109   9.212
20603WAT      O62050   4.682   9.793   1.180
20603WAT     H162051   4.659   9.701   1.148
20603WAT     H262052   4.721   9.788   1.272
20604WAT      O62053   5.398   7.556   2.086
20604WAT     H162054   5.469   7.574   2.154
20604WAT     H262055   5.314   7.604   2.112
20605WAT      O62056   7.727   3.561   9.254
20605WAT     H162057   7.759   3.470   9.283
20605WAT     H262058   7.640   3.551   9.206
20606WAT      O62059   6.523   7.896   6.054
20606WAT     H162060   6.466   7.840   6.113
20606WAT     H262061   6.467   7.966   6.009
20607WAT      O62062   3.232   1.784   6.582
20607WAT     H162063   3.170   1.844   6.632
20607WAT     H262064   3.223   1.800   6.484
20608WAT      O62065   7.149   5.436   0.748
20608WAT     H162066   7.084   5.415   0.822
20608WAT     H262067   7.155   5.535   0.737
20609WAT      O62068   2.541   7.058   5.980
20609WAT     H162069   2.507   7.123   5.912
20609WAT     H262070   2.628   7.091   6.018
20610WAT      O62071   9.505   7.693   1.028
20610WAT     H162072   9.439   7.760   0.996
20610WAT     H262073   9.552   7.728   1.110
20611WAT      O62074   3.512   6.365   5.357
20611WAT     H162075   3.493   6.412   5.444
20611WAT     H262076   3.577   6.291   5.373
20612WAT      O62077   6.604   6.203   8.089
20612WAT     H162078   6.614   6.191   7.990
20612WAT     H262079   6.571   6.295   8.108
20613WAT      O62080   1.764   1.373   7.899
20613WAT     H162081   1.742   1.338   7.990
20613WAT     H262082   1.751   1.301   7.832
20614WAT      O62083   8.165   6.937   6.299
20614WAT     H162084   8.158   7.019   6.243
20614WAT     H262085   8.084   6.879   6.283
20615WAT      O62086   3.491   6.600   1.680
20615WAT     H162087   3.457   6.683   1.725
20615WAT     H262088   3.443   6.588   1.593
20616WAT      O62089   0.432   5.632   2.077
20616WAT     H162090   0.488   5.565   2.125
20616WAT     H262091   0.491   5.707   2.045
20617WAT      O62092   8.662   2.659   0.458
20617WAT     H162093   8.578   2.694   0.417
20617WAT     H262094   8.677   2.564   0.429
20618WAT      O62095   9.597   1.621   1.901
20618WAT     H162096   9.584   1.526   1.930
20618WAT     H262097   9.612   1.624   1.802
20619WAT      O62098   9.086   2.445   9.275
20619WAT     H162099   9.101   2.543   9.291
20619WAT     H262100   9.149   2.392   9.331
20620WAT      O62101   7.026   2.315   4.908
20620WAT     H162102   7.053   2.388   4.971
20620WAT     H262103   7.029   2.227   4.955
20621WAT      O62104   2.446   3.617   1.506
20621WAT     H162105   2.502   3.647   1.583
20621WAT     H262106   2.349   3.625   1.529
20622WAT      O62107   4.069   0.108   6.405
20622WAT     H162108   3.980   0.131   6.364
20622WAT     H262109   4.078   0.157   6.492
20623WAT      O62110   6.667   8.394   1.686
20623WAT     H162111   6.719   8.310   1.694
20623WAT     H262112   6.666   8.425   1.591
20624WAT      O62113   4.164   5.361   8.567
20624WAT     H162114   4.166   5.458   8.543
20624WAT     H262115   4.074   5.338   8.604
20625WAT      O62116   6.322   4.036   5.399
20625WAT     H162117   6.354   3.952   5.355
20625WAT     H262118   6.242   4.015   5.456
20626WAT      O62119   7.450   7.381   8.282
20626WAT     H162120   7.398   7.428   8.354
20626WAT     H262121   7.528   7.334   8.323
20627WAT      O62122   3.655   1.026   4.061
20627WAT     H162123   3.562   0.990   4.050
20627WAT     H262124   3.692   0.998   4.149
20628WAT      O62125   5.815   7.760   8.883
20628WAT     H162126   5.870   7.802   8.955
20628WAT     H262127   5.872   7.697   8.830
20629WAT      O62128   4.681   8.312   4.860
20629WAT     H162129   4.684   8.227   4.912
20629WAT     H262130   4.629   8.381   4.912
20630WAT      O62131   2.400   3.670   7.035
20630WAT     H162132   2.311   3.632   7.007
20630WAT     H262133   2.385   3.747   7.097
20631WAT      O62134   7.517   3.485   9.682
20631WAT     H162135   7.531   3.386   9.683
20631WAT     H262136   7.459   3.510   9.604
20632WAT      O62137   4.423   3.725   5.175
20632WAT     H162138   4.395   3.783   5.099
20632WAT     H262139   4.458   3.638   5.140
20633WAT      O62140   9.469   1.293   8.525
20633WAT     H162141   9.524   1.309   8.607
20633WAT     H262142   9.390   1.355   8.525
20634WAT      O62143   4.099   4.675   6.460
20634WAT     H162144   4.092   4.725   6.373
20634WAT     H262145   4.098   4.577   6.441
20635WAT      O62146   8.234   9.752   7.751
20635WAT     H162147   8.184   9.701   7.682
20635WAT     H262148   8.226   9.850   7.733
20636WAT      O62149   9.449   5.570   7.300
20636WAT     H162150   9.420   5.484   7.258
20636WAT     H262151   9.545   5.587   7.279
20637WAT      O62152   0.802   2.656   9.015
20637WAT     H162153   0.715   2.606   9.020
20637WAT     H262154   0.788   2.741   8.965
20638WAT      O62155   5.298   3.654   0.699
20638WAT     H162156   5.382   3.630   0.748
20638WAT     H262157   5.319   3.676   0.604
20639WAT      O62158   3.816   7.732   7.835
20639WAT     H162159   3.788   7.826   7.818
20639WAT     H262160   3.760   7.670   7.780
20640WAT      O62161   7.290   2.675   4.961
20640WAT     H162162   7.243   2.762   4.952
20640WAT     H262163   7.329   2.649   4.872
20641WAT      O62164   3.380   5.639   6.767
20641WAT     H162165   3.471   5.615   6.733
20641WAT     H262166   3.312   5.584   6.720
20642WAT      O62167   9.248   6.344   0.090
20642WAT     H162168   9.338   6.302   0.076
20642WAT     H262169   9.232   6.412   0.018
20643WAT      O62170   4.584   4.970   1.832
20643WAT     H162171   4.639   4.888   1.817
20643WAT     H262172   4.508   4.949   1.894
20644WAT      O62173   4.766   0.458   5.109
20644WAT     H162174   4.858   0.468   5.073
20644WAT     H262175   4.704   0.519   5.060
20645WAT      O62176   6.768   3.302   0.030
20645WAT     H162177   6.792   3.266  -0.061
20645WAT     H262178   6.750   3.400   0.023
20646WAT      O62179   7.784   2.993   5.788
20646WAT     H162180   7.717   2.963   5.720
20646WAT     H262181   7.813   3.086   5.767
20647WAT      O62182   2.250   8.612   3.402
20647WAT     H162183   2.170   8.581   3.351
20647WAT     H262184   2.303   8.676   3.346
20648WAT      O62185   6.400   9.575   5.802
20648WAT     H162186   6.436   9.649   5.859
20648WAT     H262187   6.436   9.585   5.709
20649WAT      O62188   6.968   1.258   0.871
20649WAT     H162189   6.972   1.183   0.938
20649WAT     H262190   7.061   1.281   0.842
20650WAT      O62191   0.667   4.697   6.043
20650WAT     H162192   0.627   4.779   6.002
20650WAT     H262193   0.599   4.624   6.044
20651WAT      O62194   9.379   9.141   0.608
20651WAT     H162195   9.444   9.076   0.648
20651WAT     H262196   9.339   9.103   0.525
20652WAT      O62197   7.196   5.621   1.988
20652WAT     H162198   7.237   5.695   1.935
20652WAT     H262199   7.260   5.544   1.993
20653WAT      O62200   0.962   6.677   6.304
20653WAT     H162201   1.005   6.717   6.222
20653WAT     H262202   0.876   6.724   6.322
20654WAT      O62203   1.119   9.316   2.267
20654WAT     H162204   1.058   9.245   2.300
20654WAT     H262205   1.160   9.287   2.180
20655WAT      O62206   8.026   1.857   3.154
20655WAT     H162207   8.073   1.922   3.213
20655WAT     H262208   8.083   1.776   3.141
20656WAT      O62209   7.957   7.093   4.447
20656WAT     H162210   7.861   7.075   4.427
20656WAT     H262211   7.978   7.059   4.539
20657WAT      O62212   8.739   9.463   1.298
20657WAT     H162213   8.708   9.421   1.384
20657WAT     H262214   8.681   9.431   1.223
20658WAT      O62215   7.530   3.355   0.837
20658WAT     H162216   7.503   3.387   0.927
20658WAT     H262217   7.449   3.327   0.786
20659WAT      O62218   4.912   9.439   6.523
20659WAT     H162219   4.914   9.522   6.467
20659WAT     H262220   4.817   9.413   6.540
20660WAT      O62221   6.200   0.128   1.528
20660WAT     H162222   6.170   0.067   1.454
20660WAT     H262223   6.238   0.212   1.488
20661WAT      O62224   2.745   0.330   8.229
20661WAT     H162225   2.668   0.273   8.255
20661WAT     H262226   2.712   0.418   8.193
20662WAT      O62227   6.452   9.403   4.488
20662WAT     H162228   6.488   9.402   4.395
20662WAT     H262229   6.465   9.313   4.530
20663WAT      O62230   3.622   7.347   6.886
20663WAT     H162231   3.603   7.388   6.797
20663WAT     H262232   3.542   7.297   6.918
20664WAT      O62233   0.327   5.066   4.433
20664WAT     H162234   0.403   5.129   4.453
20664WAT     H262235   0.244   5.100   4.477
20665WAT      O62236   8.739   9.091   6.013
20665WAT     H162237   8.766   9.065   5.920
20665WAT     H262238   8.819   9.089   6.073
20666WAT      O62239   3.979   1.781   5.323
20666WAT     H162240   3.984   1.681   5.319
20666WAT     H262241   3.979   1.818   5.230
20667WAT      O62242   7.210   1.472   6.144
20667WAT     H162243   7.128   1.529   6.144
20667WAT     H262244   7.286   1.522   6.104
20668WAT      O62245   9.133   4.389   5.794
20668WAT     H162246   9.227   4.363   5.813
20668WAT     H262247   9.090   4.423   5.878
20669WAT      O62248   5.904   6.832   7.455
20669WAT     H162249   5.998   6.800   7.445
20669WAT     H262250   5.862   6.840   7.364
20670WAT      O62251   0.282   2.211   9.870
20670WAT     H162252   0.220   2.192   9.793
20670WAT     H262253   0.278   2.307   9.894
20671WAT      O62254   6.174   3.453   8.331
20671WAT     H162255   6.086   3.438   8.287
20671WAT     H262256   6.165   3.435   8.430
20672WAT      O62257   7.062   2.865   4.751
20672WAT     H162258   7.041   2.947   4.698
20672WAT     H262259   7.134   2.885   4.817
20673WAT      O62260   7.289   0.378   1.957
20673WAT     H162261   7.368   0.316   1.948
20673WAT     H262262   7.208   0.334   1.917
20674WAT      O62263   2.696   0.432   2.426
20674WAT     H162264   2.650   0.502   2.480
20674WAT     H262265   2.743   0.368   2.486
20675WAT      O62266   0.754   4.354   1.481
20675WAT     H162267   0.754   4.257   1.458
20675WAT     H262268   0.776   4.365   1.578
20676WAT      O62269   6.256   1.861   9.723
20676WAT     H162270   6.297   1.770   9.719
20676WAT     H262271   6.172   1.858   9.779
20677WAT      O62272   0.184   7.144   7.314
20677WAT     H162273   0.166   7.242   7.313
20677WAT     H262274   0.127   7.099   7.245
20678WAT      O62275   5.210   8.608   4.460
20678WAT     H162276   5.214   8.707   4.450
20678WAT     H262277   5.302   8.570   4.449
20679WAT      O62278   7.201   4.969   4.701
20679WAT     H162279   7.215   5.066   4.721
20679WAT     H262280   7.220   4.915   4.783
20680WAT      O62281   8.785   6.412   2.805
20680WAT     H162282   8.873   6.388   2.763
20680WAT     H262283   8.796   6.497   2.858
20681WAT      O62284   0.924   9.352   6.260
20681WAT     H162285   0.951   9.418   6.189
20681WAT     H262286   0.992   9.279   6.265
20682WAT      O62287   4.146   9.784   8.352
20682WAT     H162288   4.239   9.814   8.335
20682WAT     H262289   4.143   9.684   8.353
20683WAT      O62290   5.605   3.343   2.112
20683WAT     H162291   5.649   3.318   2.027
20683WAT     H262292   5.635   3.283   2.186
20684WAT      O62293   8.812   0.140   2.429
20684WAT     H162294   8.818   0.231   2.470
20684WAT     H262295   8.781   0.148   2.335
20685WAT      O62296   6.850   9.221   1.378
20685WAT     H162297   6.905   9.241   1.297
20685WAT     H262298   6.909   9.225   1.459
20686WAT      O62299   6.209   0.984   3.165
20686WAT     H162300   6.224   0.935   3.079
20686WAT     H262301   6.122   1.034   3.159
20687WAT      O62302   7.251   8.629   0.046
20687WAT     H162303   7.175   8.569   0.069
20687WAT     H262304   7.245   8.712   0.101
20688WAT      O62305   5.652   2.801   6.518
20688WAT     H162306   5.560   2.780   6.486
20688WAT     H262307   5.692   2.719   6.561
20689WAT      O62308   0.968   2.312   4.576
20689WAT     H162309   1.021   2.243   4.625
20689WAT     H262310   1.026   2.358   4.509
20690WAT      O62311   7.733   5.797   4.497
20690WAT     H162312   7.737   5.823   4.594
20690WAT     H262313   7.777   5.709   4.484
20691WAT      O62314   2.220   7.365   3.660
20691WAT     H162315   2.202   7.266   3.664
20691WAT     H262316   2.148   7.413   3.710
20692WAT      O62317   0.356   8.045   9.029
20692WAT     H162318   0.440   8.099   9.019
20692WAT     H262319   0.372   7.953   8.993
20693WAT      O62320   0.986   4.549   8.257
20693WAT     H162321   0.926   4.603   8.198
20693WAT     H262322   0.965   4.568   8.353
20694WAT      O62323   2.485   3.564   5.709
20694WAT     H162324   2.513   3.605   5.621
20694WAT     H262325   2.544   3.599   5.782
20695WAT      O62326   1.988   5.849   6.508
20695WAT     H162327   2.018   5.929   6.559
20695WAT     H262328   2.060   5.779   6.510
20696WAT      O62329   1.801   9.491   3.890
20696WAT     H162330   1.901   9.486   3.894
20696WAT     H262331   1.768   9.430   3.817
20697WAT      O62332   0.063   8.110   4.608
20697WAT     H162333   0.047   8.016   4.579
20697WAT     H262334  -0.000   8.133   4.682
20698WAT      O62335   8.941   3.482   4.651
20698WAT     H162336   8.888   3.553   4.697
20698WAT     H262337   8.943   3.499   4.553
20699WAT      O62338   5.402   3.487   9.203
20699WAT     H162339   5.318   3.445   9.170
20699WAT     H262340   5.420   3.455   9.296
20700WAT      O62341   6.099   5.514   4.706
20700WAT     H162342   6.129   5.550   4.794
20700WAT     H262343   6.049   5.585   4.656
20701WAT      O62344   9.765   3.584   5.671
20701WAT     H162345   9.688   3.545   5.620
20701WAT     H262346   9.734   3.617   5.760
20702WAT      O62347   0.088   3.699   7.023
20702WAT     H162348   0.186   3.692   7.005
20702WAT     H262349   0.049   3.772   6.967
20703WAT      O62350   6.497   4.444   2.142
20703WAT     H162351   6.474   4.436   2.045
20703WAT     H262352   6.520   4.354   2.178
20704WAT      O62353   1.358   2.709   3.343
20704WAT     H162354   1.317   2.794   3.310
20704WAT     H262355   1.450   2.729   3.378
20705WAT      O62356   8.204   6.206   6.812
20705WAT     H162357   8.126   6.268   6.805
20705WAT     H262358   8.172   6.114   6.834
20706WAT      O62359   0.768   6.116   7.551
20706WAT     H162360   0.832   6.057   7.502
20706WAT     H262361   0.766   6.206   7.508
20707WAT      O62362   1.031   7.104   9.886
20707WAT     H162363   1.026   7.013   9.845
20707WAT     H262364   1.051   7.096   9.984
20708WAT      O62365   4.700   3.093   6.927
20708WAT     H162366   4.797   3.077   6.914
20708WAT     H262367   4.659   3.015   6.975
20709WAT      O62368   9.706   3.230   3.118
20709WAT     H162369   9.679   3.312   3.169
20709WAT     H262370   9.625   3.188   3.076
20710WAT      O62371   1.501   6.184   2.443
20710WAT     H162372   1.435   6.120   2.481
20710WAT     H262373   1.526   6.155   2.350
20711WAT      O62374   4.268   0.099   2.901
20711WAT     H162375   4.241   0.007   2.928
20711WAT     H262376   4.340   0.132   2.962
20712WAT      O62377   6.153   9.055   5.029
20712WAT     H162378   6.195   8.969   5.000
20712WAT     H262379   6.112   9.100   4.950
20713WAT      O62380   9.327   8.330   8.168
20713WAT     H162381   9.285   8.420   8.156
20713WAT     H262382   9.364   8.324   8.261
20714WAT      O62383   3.783   5.674   3.302
20714WAT     H162384   3.687   5.695   3.281
20714WAT     H262385   3.814   5.733   3.377
20715WAT      O62386   4.769   5.854   9.073
20715WAT     H162387   4.690   5.916   9.069
20715WAT     H262388   4.742   5.764   9.041
20716WAT      O62389   0.237   8.319   4.599
20716WAT     H162390   0.317   8.342   4.543
20716WAT     H262391   0.192   8.239   4.561
20717WAT      O62392   6.458   2.365   3.828
20717WAT     H162393   6.483   2.400   3.737
20717WAT     H262394   6.524   2.295   3.855
20718WAT      O62395   6.353   7.809   6.264
20718WAT     H162396   6.334   7.815   6.362
20718WAT     H262397   6.325   7.718   6.231
20719WAT      O62398   0.269   0.482   0.383
20719WAT     H162399   0.344   0.522   0.331
20719WAT     H262400   0.292   0.483   0.481
20720WAT      O62401   2.163   7.664   8.114
20720WAT     H162402   2.114   7.704   8.191
20720WAT     H262403   2.112   7.584   8.080
20721WAT      O62404   8.206   8.808   2.506
20721WAT     H162405   8.224   8.710   2.501
20721WAT     H262406   8.130   8.831   2.444
20722WAT      O62407   6.209   4.143   1.651
20722WAT     H162408   6.167   4.196   1.724
20722WAT     H262409   6.150   4.146   1.570
20723WAT      O62410   7.877   3.397   5.317
20723WAT     H162411   7.948   3.413   5.385
20723WAT     H262412   7.909   3.429   5.228
20724WAT      O62413   4.761   7.975   6.873
20724WAT     H162414   4.770   7.965   6.774
20724WAT     H262415   4.693   8.045   6.894
20725WAT      O62416   6.429   6.272   2.085
20725WAT     H162417   6.482   6.221   2.017
20725WAT     H262418   6.420   6.367   2.054
20726WAT      O62419   5.826   4.807   7.426
20726WAT     H162420   5.896   4.861   7.474
20726WAT     H262421   5.818   4.839   7.332
20727WAT      O62422   0.312   9.502   0.922
20727WAT     H162423   0.311   9.403   0.910
20727WAT     H262424   0.407   9.533   0.930
20728WAT      O62425   3.080   2.206   1.500
20728WAT     H162426   3.042   2.298   1.505
20728WAT     H262427   3.068   2.160   1.588
20729WAT      O62428   3.598   0.938   9.589
20729WAT     H162429   3.532   0.999   9.543
20729WAT     H262430   3.550   0.886   9.659
20730WAT      O62431   4.536   0.957   1.939
20730WAT     H162432   4.562   1.004   1.855
20730WAT     H262433   4.438   0.967   1.953
20731WAT      O62434   4.938   4.965   3.799
20731WAT     H162435   4.842   4.958   3.826
20731WAT     H262436   4.952   5.051   3.750
20732WAT      O62437   1.864   3.481   0.910
20732WAT     H162438   1.809   3.514   0.833
20732WAT     H262439   1.804   3.458   0.986
20733WAT      O62440   4.519   7.229   6.971
20733WAT     H162441   4.610   7.224   7.014
20733WAT     H262442   4.454   7.176   7.025
20734WAT      O62443   3.558   0.511   2.305
20734WAT     H162444   3.645   0.503   2.355
20734WAT     H262445   3.519   0.602   2.319
20735WAT      O62446   3.948   7.178   4.612
20735WAT     H162447   4.011   7.136   4.678
20735WAT     H262448   3.965   7.276   4.606
20736WAT      O62449   2.878   6.780   8.673
20736WAT     H162450   2.901   6.688   8.642
20736WAT     H262451   2.800   6.815   8.622
20737WAT      O62452   1.098   6.127   8.503
20737WAT     H162453   1.051   6.205   8.460
20737WAT     H262454   1.030   6.066   8.543
20738WAT      O62455   1.160   0.908   0.158
20738WAT     H162456   1.251   0.934   0.188
20738WAT     H262457   1.099   0.901   0.238
20739WAT      O62458   6.936   9.615   5.886
20739WAT     H162459   7.010   9.667   5.843
20739WAT     H262460   6.864   9.599   5.819
20740WAT      O62461   3.315   1.580   2.413
20740WAT     H162462   3.277   1.672   2.418
20740WAT     H262463   3.410   1.581   2.444
20741WAT      O62464   5.941   7.514   5.474
20741WAT     H162465   6.037   7.493   5.454
20741WAT     H262466   5.913   7.468   5.558
20742WAT      O62467   6.635   8.827   8.611
20742WAT     H162468   6.546   8.871   8.626
20742WAT     H262469   6.642   8.746   8.669
20743WAT      O62470   2.906   1.178   5.202
20743WAT     H162471   2.809   1.163   5.183
20743WAT     H262472   2.940   1.107   5.263
20744WAT      O62473   3.235   3.730   5.688
20744WAT     H162474   3.261   3.657   5.752
20744WAT     H262475   3.290   3.723   5.605
20745WAT      O62476   0.559   0.725   0.115
20745WAT     H162477   0.510   0.655   0.064
20745WAT     H262478   0.641   0.752   0.064
20746WAT      O62479   0.414   9.170   7.560
20746WAT     H162480   0.438   9.239   7.491
20746WAT     H262481   0.482   9.171   7.633
20747WAT      O62482   9.590   6.637   1.241
20747WAT     H162483   9.516   6.582   1.203
20747WAT     H262484   9.623   6.701   1.171
20748WAT      O62485   5.533   5.307   9.533
20748WAT     H162486   5.450   5.253   9.552
20748WAT     H262487   5.608   5.245   9.512
20749WAT      O62488   7.235   6.079   2.821
20749WAT     H162489   7.324   6.058   2.781
20749WAT     H262490   7.166   6.016   2.784
20750WAT      O62491   9.283   5.926   5.499
20750WAT     H162492   9.290   5.915   5.598
20750WAT     H262493   9.307   5.840   5.454
20751WAT      O62494   4.645   6.688   1.624
20751WAT     H162495   4.550   6.687   1.591
20751WAT     H262496   4.645   6.704   1.723
20752WAT      O62497   4.184   6.823   9.158
20752WAT     H162498   4.160   6.734   9.120
20752WAT     H262499   4.266   6.815   9.214
20753WAT      O62500   3.140   7.071   2.982
20753WAT     H162501   3.237   7.080   2.959
20753WAT     H262502   3.087   7.063   2.897
20754WAT      O62503   1.463   7.426   2.685
20754WAT     H162504   1.367   7.422   2.657
20754WAT     H262505   1.472   7.487   2.764
20755WAT      O62506   2.959   7.887   9.616
20755WAT     H162507   3.054   7.907   9.641
20755WAT     H262508   2.945   7.909   9.520
20756WAT      O62509   6.748   4.432   1.149
20756WAT     H162510   6.710   4.394   1.234
20756WAT     H262511   6.830   4.380   1.124
20757WAT      O62512   7.446   8.999   2.512
20757WAT     H162513   7.518   8.972   2.576
20757WAT     H262514   7.361   9.014   2.562
20758WAT      O62515   6.312   1.530   9.019
20758WAT     H162516   6.366   1.610   8.997
20758WAT     H262517   6.270   1.493   8.936
20759WAT      O62518   9.556   6.804   6.820
20759WAT     H162519   9.490   6.879   6.813
20759WAT     H262520   9.635   6.825   6.762
20760WAT      O62521   7.510   0.094   8.267
20760WAT     H162522   7.578   0.129   8.331
20760WAT     H262523   7.430   0.154   8.268
20761WAT      O62524   9.800   8.627   1.884
20761WAT     H162525   9.848   8.590   1.805
20761WAT     H262526   9.710   8.660   1.855
20762WAT      O62527   1.937   8.549   1.325
20762WAT     H162528   1.969   8.513   1.412
20762WAT     H262529   2.015   8.580   1.270
20763WAT      O62530   7.297   2.523   6.729
20763WAT     H162531   7.287   2.589   6.654
20763WAT     H262532   7.215   2.465   6.733
20764WAT      O62533   4.871   7.046   4.503
20764WAT     H162534   4.893   7.064   4.599
20764WAT     H262535   4.945   6.993   4.461
20765WAT      O62536   4.145   8.677   8.082
20765WAT     H162537   4.202   8.688   8.163
20765WAT     H262538   4.133   8.766   8.037
20766WAT      O62539   5.444   5.623   3.551
20766WAT     H162540   5.476   5.544   3.500
20766WAT     H262541   5.357   5.655   3.513
20767WAT      O62542   6.871   8.270   7.431
20767WAT     H162543   6.814   8.316   7.364
20767WAT     H262544   6.941   8.216   7.385
20768WAT      O62545   1.283   8.937   3.808
20768WAT     H162546   1.185   8.931   3.825
20768WAT     H262547   1.317   9.027   3.835
20769WAT      O62548   2.529   5.381   0.463
20769WAT     H162549   2.525   5.327   0.547
20769WAT     H262550   2.436   5.409   0.436
20770WAT      O62551   9.006   4.164   1.145
20770WAT     H162552   9.022   4.262   1.148
20770WAT     H262553   8.925   4.145   1.089
20771WAT      O62554   2.151   9.187   2.839
20771WAT     H162555   2.217   9.191   2.764
20771WAT     H262556   2.058   9.182   2.801
20772WAT      O62557   1.988   4.964   9.279
20772WAT     H162558   1.975   5.011   9.192
20772WAT     H262559   1.986   5.031   9.354
20773WAT      O62560   4.738   3.229   6.221
20773WAT     H162561   4.732   3.217   6.320
20773WAT     H262562   4.663   3.288   6.190
20774WAT      O62563   7.647   4.194   5.814
20774WAT     H162564   7.699   4.128   5.869
20774WAT     H262565   7.706   4.272   5.792
20775WAT      O62566   1.647   5.380   8.913
20775WAT     H162567   1.709   5.457   8.896
20775WAT     H262568   1.678   5.329   8.993
20776WAT      O62569   5.608   3.383   9.490
20776WAT     H162570   5.597   3.456   9.557
20776WAT     H262571   5.681   3.407   9.426
20777WAT      O62572   1.123   3.697   9.757
20777WAT     H162573   1.065   3.629   9.802
20777WAT     H262574   1.210   3.703   9.806
20778WAT      O62575   9.823   5.150   6.520
20778WAT     H162576   9.829   5.190   6.611
20778WAT     H262577   9.731   5.115   6.505
20779WAT      O62578   6.710   5.758   4.506
20779WAT     H162579   6.750   5.792   4.591
20779WAT     H262580   6.639   5.822   4.475
20780WAT      O62581   1.072   7.883   0.057
20780WAT     H162582   1.167   7.852   0.058
20780WAT     H262583   1.028   7.860   0.143
20781WAT      O62584   1.548   8.133   2.051
20781WAT     H162585   1.483   8.171   2.118
20781WAT     H262586   1.545   8.034   2.055
20782WAT      O62587   8.161   9.539   8.728
20782WAT     H162588   8.229   9.575   8.665
20782WAT     H262589   8.178   9.575   8.820
20783WAT      O62590   1.469   9.270   2.424
20783WAT     H162591   1.528   9.318   2.360
20783WAT     H262592   1.393   9.330   2.450
20784WAT      O62593   1.605   6.955   8.784
20784WAT     H162594   1.560   7.028   8.732
20784WAT     H262595   1.655   6.995   8.860
20785WAT      O62596   3.103   7.356   2.986
20785WAT     H162597   3.015   7.327   2.950
20785WAT     H262598   3.160   7.276   3.004
20786WAT      O62599   1.156   7.127   0.608
20786WAT     H162600   1.070   7.160   0.645
20786WAT     H262601   1.179   7.178   0.525
20787WAT      O62602   5.709   2.083   8.660
20787WAT     H162603   5.725   1.992   8.697
20787WAT     H262604   5.654   2.136   8.724
20788WAT      O62605   0.326   7.655   4.073
20788WAT     H162606   0.345   7.628   3.978
20788WAT     H262607   0.411   7.676   4.120
20789WAT      O62608   9.751   1.911   6.311
20789WAT     H162609   9.749   1.840   6.382
20789WAT     H262610   9.788   1.996   6.349
20790WAT      O62611   4.509   9.811   0.872
20790WAT     H162612   4.523   9.758   0.956
20790WAT     H262613   4.519   9.909   0.893
20791WAT      O62614   7.415   6.647   9.140
20791WAT     H162615   7.337   6.705   9.164
20791WAT     H262616   7.440   6.591   9.218
20792WAT      O62617   3.844   9.645   4.876
20792WAT     H162618   3.875   9.551   4.860
20792WAT     H262619   3.840   9.663   4.975
20793WAT      O62620   0.902   6.486   0.279
20793WAT     H162621   0.933   6.576   0.309
20793WAT     H262622   0.955   6.415   0.326
20794WAT      O62623   1.652   8.123   9.112
20794WAT     H162624   1.647   8.146   9.015
20794WAT     H262625   1.688   8.031   9.123
20795WAT      O62626   9.446   3.782   1.570
20795WAT     H162627   9.392   3.860   1.601
20795WAT     H262628   9.388   3.722   1.514
20796WAT      O62629   8.259   0.794   7.370
20796WAT     H162630   8.300   0.871   7.321
20796WAT     H262631   8.211   0.735   7.305
20797WAT      O62632   5.363   2.721   5.489
20797WAT     H162633   5.271   2.740   5.525
20797WAT     H262634   5.379   2.622   5.489
20798WAT      O62635   2.491   8.632   2.807
20798WAT     H162636   2.475   8.629   2.906
20798WAT     H262637   2.574   8.581   2.785
20799WAT      O62638   2.540   4.648   0.476
20799WAT     H162639   2.589   4.589   0.411
20799WAT     H262640   2.488   4.591   0.540
20800WAT      O62641   7.256   8.060   8.830
20800WAT     H162642   7.352   8.086   8.819
20800WAT     H262643   7.223   8.015   8.747
20801WAT      O62644   7.302   0.674   9.802
20801WAT     H162645   7.326   0.621   9.720
20801WAT     H262646   7.204   0.694   9.801
20802WAT      O62647   8.035   9.770   2.698
20802WAT     H162648   8.040   9.857   2.747
20802WAT     H262649   8.020   9.695   2.763
20803WAT      O62650   6.650   6.564   3.133
20803WAT     H162651   6.649   6.602   3.040
20803WAT     H262652   6.740   6.580   3.174
20804WAT      O62653   3.699   1.220   6.825
20804WAT     H162654   3.607   1.181   6.827
20804WAT     H262655   3.708   1.287   6.898
20805WAT      O62656   2.146   6.527   0.545
20805WAT     H162657   2.180   6.454   0.486
20805WAT     H262658   2.217   6.555   0.609
20806WAT      O62659   6.478   0.665   7.294
20806WAT     H162660   6.380   0.670   7.273
20806WAT     H262661   6.489   0.643   7.391
20807WAT      O62662   5.347   1.484   2.093
20807WAT     H162663   5.344   1.538   2.009
20807WAT     H262664   5.305   1.537   2.168
20808WAT      O62665   3.077   0.314   1.657
20808WAT     H162666   3.036   0.364   1.733
20808WAT     H262667   3.129   0.236   1.693
20809WAT      O62668   8.343   5.492   9.733
20809WAT     H162669   8.418   5.426   9.737
20809WAT     H262670   8.272   5.465   9.798
20810WAT      O62671   1.495   7.875   9.739
20810WAT     H162672   1.543   7.837   9.661
20810WAT     H262673   1.528   7.967   9.758
20811WAT      O62674   1.384   9.580   0.575
20811WAT     H162675   1.313   9.627   0.523
20811WAT     H262676   1.452   9.647   0.606
20812WAT      O62677   8.766   8.039   5.792
20812WAT     H162678   8.795   8.113   5.853
20812WAT     H262679   8.672   8.013   5.814
20813WAT      O62680   1.463   6.138   8.807
20813WAT     H162681   1.479   6.072   8.880
20813WAT     H262682   1.367   6.166   8.809
20814WAT      O62683   1.172   3.528   1.241
20814WAT     H162684   1.094   3.506   1.300
20814WAT     H262685   1.169   3.625   1.217
20815WAT      O62686   8.589   4.443   4.653
20815WAT     H162687   8.576   4.407   4.560
20815WAT     H262688   8.508   4.494   4.681
20816WAT      O62689   1.828   4.024   8.183
20816WAT     H162690   1.733   4.035   8.210
20816WAT     H262691   1.855   3.928   8.196
20817WAT      O62692   2.661   2.298   9.781
20817WAT     H162693   2.635   2.251   9.697
20817WAT     H262694   2.760   2.293   9.793
20818WAT      O62695   2.951   5.108   1.619
20818WAT     H162696   2.941   5.196   1.667
20818WAT     H262697   3.023   5.115   1.551
20819WAT      O62698   8.060   6.760   4.771
20819WAT     H162699   8.023   6.833   4.828
20819WAT     H262700   8.134   6.796   4.715
20820WAT      O62701   3.473   6.537   8.701
20820WAT     H162702   3.396   6.473   8.697
20820WAT     H262703   3.443   6.628   8.676
20821WAT      O62704   3.069   4.994   0.176
20821WAT     H162705   3.164   5.011   0.201
20821WAT     H262706   3.061   4.995   0.076
20822WAT      O62707   3.900   6.665   2.211
20822WAT     H162708   3.819   6.719   2.234
20822WAT     H262709   3.900   6.645   2.113
20823WAT      O62710   4.064   8.566   4.912
20823WAT     H162711   3.992   8.608   4.968
20823WAT     H262712   4.120   8.637   4.870
20824WAT      O62713   8.929   5.041   5.447
20824WAT     H162714   8.965   4.989   5.525
20824WAT     H262715   8.833   5.061   5.463
20825WAT      O62716   1.712   6.069   9.737
20825WAT     H162717   1.749   6.140   9.678
20825WAT     H262718   1.632   6.028   9.695
20826WAT      O62719   6.872   0.385   4.618
20826WAT     H162720   6.827   0.426   4.698
20826WAT     H262721   6.858   0.444   4.538
20827WAT      O62722   3.520   4.413   2.948
20827WAT     H162723   3.486   4.344   3.012
20827WAT     H262724   3.608   4.448   2.980
20828WAT      O62725   1.080   1.848   1.038
20828WAT     H162726   1.007   1.881   0.979
20828WAT     H262727   1.042   1.786   1.107
20829WAT      O62728   0.925   4.984   2.483
20829WAT     H162729   0.863   4.912   2.450
20829WAT     H262730   1.017   4.947   2.493
20830WAT      O62731   5.833   0.486   9.313
20830WAT     H162732   5.759   0.451   9.256
20830WAT     H262733   5.799   0.507   9.404
20831WAT      O62734   2.569   9.295   1.235
20831WAT     H162735   2.492   9.280   1.173
20831WAT     H262736   2.604   9.388   1.223
20832WAT      O62737   4.702   0.640   2.673
20832WAT     H162738   4.741   0.602   2.589
20832WAT     H262739   4.771   0.697   2.719
20833WAT      O62740   2.930   5.389   6.623
20833WAT     H162741   2.849   5.444   6.642
20833WAT     H262742   2.901   5.298   6.592
20834WAT      O62743   3.936   2.363   5.107
20834WAT     H162744   3.857   2.423   5.120
20834WAT     H262745   3.909   2.284   5.051
20835WAT      O62746   6.350   8.772   5.911
20835WAT     H162747   6.364   8.742   5.816
20835WAT     H262748   6.437   8.804   5.949
20836WAT      O62749   8.164   0.723   4.333
20836WAT     H162750   8.238   0.776   4.375
20836WAT     H262751   8.197   0.678   4.251
20837WAT      O62752   7.411   6.451   4.755
20837WAT     H162753   7.407   6.531   4.816
20837WAT     H262754   7.319   6.430   4.722
20838WAT      O62755   8.325   8.282   1.233
20838WAT     H162756   8.283   8.216   1.296
20838WAT     H262757   8.298   8.374   1.258
20839WAT      O62758   9.887   8.686   2.355
20839WAT     H162759   9.895   8.702   2.256
20839WAT     H262760   9.862   8.591   2.371
20840WAT      O62761   7.451   0.449   8.768
20840WAT     H162762   7.463   0.437   8.867
20840WAT     H262763   7.487   0.538   8.740
20841WAT      O62764   9.634   5.444   0.233
20841WAT     H162765   9.594   5.353   0.246
20841WAT     H262766   9.575   5.513   0.275
20842WAT      O62767   4.575   5.487   0.930
20842WAT     H162768   4.662   5.437   0.922
20842WAT     H262769   4.538   5.503   0.839
20843WAT      O62770   5.796   1.678   3.796
20843WAT     H162771   5.846   1.670   3.883
20843WAT     H262772   5.726   1.606   3.791
20844WAT      O62773   7.098   3.371   6.961
20844WAT     H162774   7.123   3.275   6.966
20844WAT     H262775   7.027   3.391   7.029
20845WAT      O62776   7.827   4.842   8.962
20845WAT     H162777   7.815   4.842   9.061
20845WAT     H262778   7.740   4.821   8.918
20846WAT      O62779   2.198   3.723   3.426
20846WAT     H162780   2.234   3.647   3.480
20846WAT     H262781   2.261   3.800   3.431
20847WAT      O62782   4.537   2.435   1.666
20847WAT     H162783   4.574   2.528   1.671
20847WAT     H262784   4.506   2.406   1.756
20848WAT      O62785   5.999   8.609   8.179
20848WAT     H162786   6.059   8.531   8.166
20848WAT     H262787   5.994   8.633   8.276
20849WAT      O62788   2.315   8.024   0.375
20849WAT     H162789   2.272   8.114   0.382
20849WAT     H262790   2.254   7.961   0.327
20850WAT      O62791   7.703   3.789   1.655
20850WAT     H162792   7.734   3.858   1.721
20850WAT     H262793   7.779   3.765   1.595
20851WAT      O62794   1.638   0.934   8.082
20851WAT     H162795   1.674   0.842   8.092
20851WAT     H262796   1.544   0.937   8.114
20852WAT      O62797   7.866   1.315   6.933
20852WAT     H162798   7.781   1.300   6.884
20852WAT     H262799   7.944   1.301   6.872
20853WAT      O62800   1.934   8.872   4.607
20853WAT     H162801   2.006   8.839   4.668
20853WAT     H262802   1.941   8.971   4.597
20854WAT      O62803   5.144   0.569   1.799
20854WAT     H162804   5.186   0.632   1.733
20854WAT     H262805   5.173   0.594   1.892
20855WAT      O62806   3.286   4.324   4.383
20855WAT     H162807   3.319   4.244   4.432
20855WAT     H262808   3.215   4.370   4.437
20856WAT      O62809   5.633   8.333   1.887
20856WAT     H162810   5.707   8.398   1.869
20856WAT     H262811   5.642   8.254   1.826
20857WAT      O62812   4.511   8.297   1.991
20857WAT     H162813   4.443   8.305   2.063
20857WAT     H262814   4.487   8.221   1.931
20858WAT      O62815   0.642   8.818   5.848
20858WAT     H162816   0.694   8.785   5.769
20858WAT     H262817   0.563   8.870   5.817
20859WAT      O62818   8.647   1.203   6.002
20859WAT     H162819   8.635   1.263   6.081
20859WAT     H262820   8.744   1.189   5.985
20860WAT      O62821   4.471   0.953   2.235
20860WAT     H162822   4.535   0.898   2.288
20860WAT     H262823   4.412   0.893   2.180
20861WAT      O62824   8.120   8.641   1.048
20861WAT     H162825   8.031   8.620   1.009
20861WAT     H262826   8.185   8.569   1.025
20862WAT      O62827   4.436   7.060   2.572
20862WAT     H162828   4.527   7.095   2.598
20862WAT     H262829   4.447   6.980   2.513
20863WAT      O62830   8.543   6.056   3.060
20863WAT     H162831   8.519   6.094   3.149
20863WAT     H262832   8.562   6.130   2.996
20864WAT      O62833   8.434   0.400   4.550
20864WAT     H162834   8.403   0.321   4.497
20864WAT     H262835   8.392   0.398   4.640
20865WAT      O62836   5.230   1.248   1.478
20865WAT     H162837   5.161   1.205   1.420
20865WAT     H262838   5.296   1.297   1.421
20866WAT      O62839   8.035   7.836   0.864
20866WAT     H162840   8.083   7.799   0.944
20866WAT     H262841   8.068   7.790   0.781
20867WAT      O62842   0.157   2.961   0.503
20867WAT     H162843   0.155   2.873   0.456
20867WAT     H262844   0.091   2.961   0.578
20868WAT      O62845   6.782   2.967   1.531
20868WAT     H162846   6.832   2.900   1.477
20868WAT     H262847   6.738   3.033   1.470
20869WAT      O62848   5.439   0.428   4.588
20869WAT     H162849   5.503   0.359   4.623
20869WAT     H262850   5.458   0.516   4.632
20870WAT      O62851   1.732   8.901   7.867
20870WAT     H162852   1.703   8.851   7.785
20870WAT     H262853   1.652   8.926   7.921
20871WAT      O62854   0.723   8.175   7.645
20871WAT     H162855   0.721   8.203   7.741
20871WAT     H262856   0.791   8.230   7.596
20872WAT      O62857   1.259   9.409   1.461
20872WAT     H162858   1.171   9.444   1.494
20872WAT     H262859   1.251   9.384   1.365
20873WAT      O62860   1.097   5.523   2.017
20873WAT     H162861   1.070   5.618   2.032
20873WAT     H262862   1.123   5.481   2.104
20874WAT      O62863   8.491   7.969   7.938
20874WAT     H162864   8.512   7.941   8.032
20874WAT     H262865   8.548   8.047   7.913
20875WAT      O62866   8.235   2.880   8.589
20875WAT     H162867   8.253   2.782   8.588
20875WAT     H262868   8.289   2.925   8.517
20876WAT      O62869   1.255   6.153   5.586
20876WAT     H162870   1.203   6.090   5.529
20876WAT     H262871   1.246   6.246   5.549
20877WAT      O62872   4.503   9.643   3.445
20877WAT     H162873   4.504   9.641   3.545
20877WAT     H262874   4.553   9.565   3.409
20878WAT      O62875   6.138   7.268   7.586
20878WAT     H162876   6.090   7.182   7.604
20878WAT     H262877   6.133   7.289   7.488
20879WAT      O62878   1.882   8.573   4.136
20879WAT     H162879   1.886   8.628   4.220
20879WAT     H262880   1.864   8.478   4.161
20880WAT      O62881   7.704   9.182   2.988
20880WAT     H162882   7.753   9.194   3.074
20880WAT     H262883   7.704   9.085   2.963
20881WAT      O62884   6.733   0.606   3.658
20881WAT     H162885   6.679   0.682   3.694
20881WAT     H262886   6.755   0.624   3.562
20882WAT      O62887   9.340   5.355   4.854
20882WAT     H162888   9.248   5.363   4.894
20882WAT     H262889   9.344   5.272   4.798
20883WAT      O62890   1.571   0.194   6.045
20883WAT     H162891   1.555   0.096   6.057
20883WAT     H262892   1.607   0.233   6.130
20884WAT      O62893   3.815   6.522   3.449
20884WAT     H162894   3.790   6.549   3.356
20884WAT     H262895   3.873   6.440   3.445
20885WAT      O62896   1.048   0.640   8.398
20885WAT     H162897   1.102   0.613   8.477
20885WAT     H262898   0.963   0.683   8.428
20886WAT      O62899   1.596   7.200   9.015
20886WAT     H162900   1.680   7.149   9.030
20886WAT     H262901   1.565   7.241   9.100
20887WAT      O62902   2.531   3.214   4.923
20887WAT     H162903   2.523   3.116   4.905
20887WAT     H262904   2.607   3.252   4.870
20888WAT      O62905   4.297   2.357   0.163
20888WAT     H162906   4.238   2.301   0.222
20888WAT     H262907   4.248   2.440   0.138
20889WAT      O62908   9.220   2.746   3.824
20889WAT     H162909   9.180   2.825   3.778
20889WAT     H262910   9.212   2.758   3.923
20890WAT      O62911   0.257   8.123   3.685
20890WAT     H162912   0.318   8.128   3.606
20890WAT     H262913   0.283   8.192   3.752
20891WAT      O62914   0.107   4.360   3.742
20891WAT     H162915   0.196   4.398   3.719
20891WAT     H262916   0.064   4.323   3.660
20892WAT      O62917   2.005   0.205   6.512
20892WAT     H162918   2.075   0.143   6.547
20892WAT     H262919   2.022   0.297   6.548
20893WAT      O62920   9.731   7.834   4.095
20893WAT     H162921   9.795   7.903   4.060
20893WAT     H262922   9.650   7.832   4.036
20894WAT      O62923   3.903   8.867   9.431
20894WAT     H162924   3.825   8.893   9.376
20894WAT     H262925   3.900   8.768   9.449
20895WAT      O62926   7.136   5.587   6.705
20895WAT     H162927   7.131   5.497   6.748
20895WAT     H262928   7.048   5.609   6.663
20896WAT      O62929   4.071   2.616   1.173
20896WAT     H162930   4.168   2.634   1.191
20896WAT     H262931   4.056   2.517   1.168
20897WAT      O62932   6.535   1.927   9.779
20897WAT     H162933   6.436   1.931   9.763
20897WAT     H262934   6.568   2.017   9.806
20898WAT      O62935   3.376   8.890   3.181
20898WAT     H162936   3.316   8.840   3.119
20898WAT     H262937   3.325   8.918   3.262
20899WAT      O62938   7.495   1.513   6.083
20899WAT     H162939   7.577   1.551   6.041
20899WAT     H262940   7.469   1.567   6.162
20900WAT      O62941   9.116   3.987   8.386
20900WAT     H162942   9.125   3.906   8.444
20900WAT     H262943   9.024   4.023   8.393
20901WAT      O62944   9.428   4.113   0.726
20901WAT     H162945   9.366   4.035   0.739
20901WAT     H262946   9.385   4.178   0.663
20902WAT      O62947   4.862   7.147   8.649
20902WAT     H162948   4.812   7.061   8.658
20902WAT     H262949   4.797   7.222   8.641
20903WAT      O62950   3.235   5.915   0.141
20903WAT     H162951   3.290   5.996   0.159
20903WAT     H262952   3.147   5.942   0.103
20904WAT      O62953   6.529   0.365   4.676
20904WAT     H162954   6.612   0.346   4.729
20904WAT     H262955   6.451   0.321   4.720
20905WAT      O62956   2.128   5.427   7.689
20905WAT     H162957   2.054   5.494   7.681
20905WAT     H262958   2.090   5.334   7.687
20906WAT      O62959   9.495   6.189   8.168
20906WAT     H162960   9.417   6.190   8.230
20906WAT     H262961   9.477   6.250   8.091
20907WAT      O62962   7.985   2.600   8.655
20907WAT     H162963   7.938   2.534   8.714
20907WAT     H262964   7.925   2.678   8.638
20908WAT      O62965   2.983   3.339   5.124
20908WAT     H162966   3.021   3.248   5.107
20908WAT     H262967   2.997   3.397   5.043
20909WAT      O62968   8.087   9.634   0.418
20909WAT     H162969   8.174   9.669   0.384
20909WAT     H262970   8.032   9.710   0.454
20910WAT      O62971   4.843   3.863   3.552
20910WAT     H162972   4.797   3.943   3.590
20910WAT     H262973   4.941   3.883   3.543
20911WAT      O62974   6.444   7.094   9.691
20911WAT     H162975   6.382   7.021   9.662
20911WAT     H262976   6.462   7.086   9.789
20912WAT      O62977   5.381   1.862   8.487
20912WAT     H162978   5.438   1.932   8.444
20912WAT     H262979   5.352   1.795   8.419
20913WAT      O62980   3.806   3.830   8.927
20913WAT     H162981   3.776   3.882   8.847
20913WAT     H262982   3.751   3.856   9.007
20914WAT      O62983   7.877   2.195   8.664
20914WAT     H162984   7.964   2.154   8.637
20914WAT     H262985   7.842   2.148   8.746
20915WAT      O62986   1.467   2.036   7.197
20915WAT     H162987   1.502   2.031   7.291
20915WAT     H262988   1.431   2.128   7.180
20916WAT      O62989   3.865   9.657   5.990
20916WAT     H162990   3.871   9.616   6.082
20916WAT     H262991   3.774   9.642   5.953
20917WAT      O62992   8.610   2.868   1.357
20917WAT     H162993   8.630   2.826   1.269
20917WAT     H262994   8.613   2.799   1.429
20918WAT      O62995   5.111   4.177   7.482
20918WAT     H162996   5.076   4.108   7.545
20918WAT     H262997   5.104   4.143   7.388
20919WAT      O62998   4.920   6.077   2.268
20919WAT     H162999   4.955   6.102   2.177
20919WAT     H263000   4.823   6.099   2.273
20920WAT      O63001   5.041   8.183   1.440
20920WAT     H163002   5.045   8.273   1.485
20920WAT     H263003   5.103   8.182   1.362
20921WAT      O63004   7.198   6.416   3.868
20921WAT     H163005   7.235   6.326   3.889
20921WAT     H263006   7.117   6.433   3.924
20922WAT      O63007   6.750   2.373   4.863
20922WAT     H163008   6.835   2.332   4.829
20922WAT     H263009   6.765   2.470   4.882
20923WAT      O63010   4.988   2.428   2.070
20923WAT     H163011   5.055   2.411   2.142
20923WAT     H263012   5.013   2.375   1.988
20924WAT      O63013   1.142   5.220   2.458
20924WAT     H163014   1.087   5.303   2.463
20924WAT     H263015   1.136   5.172   2.546
20925WAT      O63016   3.625   3.511   1.869
20925WAT     H163017   3.724   3.522   1.865
20925WAT     H263018   3.596   3.446   1.798
20926WAT      O63019   3.908   8.441   0.895
20926WAT     H163020   3.816   8.422   0.930
20926WAT     H263021   3.952   8.508   0.954
20927WAT      O63022   9.788   0.774   3.420
20927WAT     H163023   9.840   0.754   3.502
20927WAT     H263024   9.795   0.698   3.356
20928WAT      O63025   2.734   3.684   6.439
20928WAT     H163026   2.716   3.741   6.518
20928WAT     H263027   2.738   3.741   6.357
20929WAT      O63028   7.429   6.942   1.611
20929WAT     H163029   7.347   6.961   1.664
20929WAT     H263030   7.509   6.982   1.656
20930WAT      O63031   1.642   5.757   7.614
20930WAT     H163032   1.573   5.807   7.666
20930WAT     H263033   1.609   5.665   7.594
20931WAT      O63034   8.396   9.062   4.683
20931WAT     H163035   8.421   8.988   4.621
20931WAT     H263036   8.447   9.145   4.658
20932WAT      O63037   4.264   3.170   6.984
20932WAT     H163038   4.258   3.228   6.903
20932WAT     H263039   4.343   3.109   6.976
20933WAT      O63040   7.597   6.986   4.632
20933WAT     H163041   7.575   6.890   4.650
20933WAT     H263042   7.634   6.996   4.539
20934WAT      O63043   6.438   5.484   8.293
20934WAT     H163044   6.509   5.447   8.233
20934WAT     H263045   6.458   5.580   8.312
20935WAT      O63046   2.217   7.360   0.741
20935WAT     H163047   2.134   7.413   0.757
20935WAT     H263048   2.212   7.313   0.653
20936WAT      O63049   1.151   8.344   2.361
20936WAT     H163050   1.084   8.311   2.427
20936WAT     H263051   1.162   8.443   2.371
20937WAT      O63052   4.179   6.424   7.688
20937WAT     H163053   4.275   6.442   7.712
20937WAT     H263054   4.167   6.326   7.670
20938WAT      O63055   3.225   8.003   5.502
20938WAT     H163056   3.161   8.035   5.433
20938WAT     H263057   3.287   7.935   5.462
20939WAT      O63058   6.907   2.917   2.993
20939WAT     H163059   6.864   2.934   3.082
20939WAT     H263060   6.965   2.995   2.969
20940WAT      O63061   8.130   1.009   3.686
20940WAT     H163062   8.093   0.920   3.659
20940WAT     H263063   8.123   1.019   3.785
20941WAT      O63064   4.687   2.921   8.517
20941WAT     H163065   4.726   2.843   8.468
20941WAT     H263066   4.587   2.919   8.508
20942WAT      O63067   6.191   9.500   1.986
20942WAT     H163068   6.140   9.428   1.938
20942WAT     H263069   6.267   9.531   1.930
20943WAT      O63070   2.409   8.260   7.282
20943WAT     H163071   2.349   8.277   7.203
20943WAT     H263072   2.503   8.252   7.250
20944WAT      O63073   2.154   6.877   7.472
20944WAT     H163074   2.104   6.931   7.403
20944WAT     H263075   2.171   6.786   7.436
20945WAT      O63076   8.361   6.957   6.699
20945WAT     H163077   8.326   7.036   6.648
20945WAT     H263078   8.439   6.918   6.649
20946WAT      O63079   1.272   3.220   5.198
20946WAT     H163080   1.263   3.244   5.294
20946WAT     H263081   1.181   3.207   5.158
20947WAT      O63082   2.059   8.532   9.356
20947WAT     H163083   2.070   8.444   9.310
20947WAT     H263084   2.011   8.596   9.294
20948WAT      O63085   7.065   0.578   0.512
20948WAT     H163086   7.126   0.515   0.561
20948WAT     H263087   7.030   0.646   0.576
20949WAT      O63088   0.084   9.082   9.714
20949WAT     H163089   0.103   9.036   9.800
20949WAT     H263090  -0.002   9.133   9.722
20950WAT      O63091   8.822   7.746   3.863
20950WAT     H163092   8.890   7.696   3.809
20950WAT     H263093   8.738   7.756   3.809
20951WAT      O63094   7.180   5.394   5.538
20951WAT     H163095   7.134   5.305   5.544
20951WAT     H263096   7.279   5.380   5.542
20952WAT      O63097   1.901   1.780   8.695
20952WAT     H163098   1.940   1.843   8.762
20952WAT     H263099   1.954   1.784   8.610
20953WAT      O63100   9.490   8.818   5.778
20953WAT     H163101   9.530   8.777   5.696
20953WAT     H263102   9.447   8.747   5.833
20954WAT      O63103   2.308   9.293   0.693
20954WAT     H163104   2.312   9.392   0.682
20954WAT     H263105   2.398   9.258   0.719
20955WAT      O63106   3.381   9.836   2.593
20955WAT     H163107   3.372   9.770   2.668
20955WAT     H263108   3.428   9.792   2.516
20956WAT      O63109   9.427   6.798   3.554
20956WAT     H163110   9.519   6.762   3.539
20956WAT     H263111   9.425   6.851   3.638
20957WAT      O63112   5.817   0.530   9.577
20957WAT     H163113   5.739   0.591   9.563
20957WAT     H263114   5.883   0.575   9.637
20958WAT      O63115   6.597   2.393   6.921
20958WAT     H163116   6.667   2.340   6.873
20958WAT     H263117   6.519   2.408   6.860
20959WAT      O63118   6.711   6.477   5.258
20959WAT     H163119   6.626   6.528   5.275
20959WAT     H263120   6.718   6.400   5.322
20960WAT      O63121   6.997   9.161   0.811
20960WAT     H163122   6.906   9.200   0.827
20960WAT     H263123   7.064   9.234   0.803
20961WAT      O63124   4.946   4.666   2.320
20961WAT     H163125   4.963   4.580   2.367
20961WAT     H263126   5.033   4.705   2.290
20962WAT      O63127   4.026   1.734   9.403
20962WAT     H163128   4.115   1.764   9.367
20962WAT     H263129   3.959   1.732   9.329
20963WAT      O63130   9.305   7.648   3.777
20963WAT     H163131   9.394   7.675   3.739
20963WAT     H263132   9.317   7.563   3.829
20964WAT      O63133   5.413   9.369   3.245
20964WAT     H163134   5.439   9.314   3.324
20964WAT     H263135   5.492   9.378   3.184
20965WAT      O63136   7.668   9.143   6.865
20965WAT     H163137   7.708   9.052   6.854
20965WAT     H263138   7.740   9.212   6.866
20966WAT      O63139   9.810   0.366   5.971
20966WAT     H163140   9.760   0.324   5.896
20966WAT     H263141   9.908   0.364   5.951
20967WAT      O63142   6.629   2.718   6.065
20967WAT     H163143   6.580   2.703   5.979
20967WAT     H263144   6.719   2.757   6.047
20968WAT      O63145   4.450   9.195   2.453
20968WAT     H163146   4.522   9.263   2.440
20968WAT     H263147   4.391   9.223   2.529
20969WAT      O63148   6.399   3.201   4.417
20969WAT     H163149   6.479   3.147   4.390
20969WAT     H263150   6.327   3.140   4.449
20970WAT      O63151   8.770   5.254   5.196
20970WAT     H163152   8.832   5.176   5.201
20970WAT     H263153   8.720   5.251   5.110
20971WAT      O63154   7.856   8.513   8.337
20971WAT     H163155   7.916   8.463   8.399
20971WAT     H263156   7.808   8.449   8.278
20972WAT      O63157   4.378   2.567   8.086
20972WAT     H163158   4.372   2.603   7.993
20972WAT     H263159   4.472   2.540   8.105
20973WAT      O63160   5.420   1.132   5.938
20973WAT     H163161   5.423   1.116   5.839
20973WAT     H263162   5.497   1.085   5.981
20974WAT      O63163   5.033   2.901   4.499
20974WAT     H163164   5.117   2.945   4.464
20974WAT     H263165   5.053   2.806   4.522
20975WAT      O63166   4.432   0.318   7.333
20975WAT     H163167   4.516   0.365   7.359
20975WAT     H263168   4.379   0.297   7.415
20976WAT      O63169   8.687   5.623   5.401
20976WAT     H163170   8.617   5.628   5.329
20976WAT     H263171   8.759   5.689   5.382
20977WAT      O63172   7.643   9.137   2.384
20977WAT     H163173   7.555   9.111   2.422
20977WAT     H263174   7.697   9.055   2.364
20978WAT      O63175   9.383   1.324   4.125
20978WAT     H163176   9.350   1.229   4.124
20978WAT     H263177   9.311   1.384   4.159
20979WAT      O63178   2.389   1.354   3.873
20979WAT     H163179   2.432   1.378   3.787
20979WAT     H263180   2.378   1.436   3.929
20980WAT      O63181   5.516   1.458   5.764
20980WAT     H163182   5.535   1.365   5.732
20980WAT     H263183   5.474   1.455   5.854
20981WAT      O63184   0.830   0.239   8.086
20981WAT     H163185   0.908   0.281   8.133
20981WAT     H263186   0.863   0.186   8.007
20982WAT      O63187   4.862   3.458   6.447
20982WAT     H163188   4.776   3.412   6.471
20982WAT     H263189   4.846   3.519   6.369
20983WAT      O63190   3.750   5.764   3.910
20983WAT     H163191   3.697   5.814   3.841
20983WAT     H263192   3.840   5.741   3.873
20984WAT      O63193   1.718   1.242   5.514
20984WAT     H163194   1.771   1.325   5.528
20984WAT     H263195   1.624   1.256   5.545
20985WAT      O63196   8.220   2.907   3.688
20985WAT     H163197   8.205   2.903   3.787
20985WAT     H263198   8.168   2.983   3.649
20986WAT      O63199   1.007   0.834   4.422
20986WAT     H163200   1.093   0.880   4.446
20986WAT     H263201   1.019   0.782   4.338
20987WAT      O63202   3.728   6.586   0.560
20987WAT     H163203   3.649   6.558   0.616
20987WAT     H263204   3.724   6.685   0.544
20988WAT      O63205   5.958   3.400   0.838
20988WAT     H163206   5.981   3.320   0.894
20988WAT     H263207   6.006   3.396   0.751
20989WAT      O63208   7.073   9.056   8.510
20989WAT     H163209   6.974   9.070   8.515
20989WAT     H263210   7.095   8.962   8.536
20990WAT      O63211   7.507   8.730   0.323
20990WAT     H163212   7.498   8.658   0.391
20990WAT     H263213   7.416   8.767   0.302
20991WAT      O63214   0.897   8.695   9.359
20991WAT     H163215   0.802   8.700   9.328
20991WAT     H263216   0.920   8.600   9.379
20992WAT      O63217   5.501   1.770   7.057
20992WAT     H163218   5.476   1.787   7.152
20992WAT     H263219   5.601   1.771   7.048
20993WAT      O63220   4.204   1.387   1.200
20993WAT     H163221   4.260   1.332   1.138
20993WAT     H263222   4.124   1.334   1.228
20994WAT      O63223   7.533   1.086   5.487
20994WAT     H163224   7.602   1.016   5.467
20994WAT     H263225   7.538   1.112   5.583
20995WAT      O63226   2.007   2.367   2.023
20995WAT     H163227   2.058   2.365   2.109
20995WAT     H263228   1.909   2.354   2.041
20996WAT      O63229   2.318   3.642   0.969
20996WAT     H163230   2.293   3.690   0.885
20996WAT     H263231   2.401   3.588   0.953
20997WAT      O63232   7.729   1.098   0.423
20997WAT     H163233   7.810   1.147   0.458
20997WAT     H263234   7.757   1.031   0.355
20998WAT      O63235   0.012   1.256   9.671
20998WAT     H163236   0.058   1.240   9.758
20998WAT     H263237  -0.086   1.271   9.687
20999WAT      O63238   5.836   2.649   4.933
20999WAT     H163239   5.762   2.582   4.923
20999WAT     H263240   5.835   2.713   4.856
21000WAT      O63241   1.327   3.077   5.789
21000WAT     H163242   1.240   3.084   5.838
21000WAT     H263243   1.361   2.983   5.794
21001WAT      O63244   8.277   9.574   2.857
21001WAT     H163245   8.177   9.573   2.854
21001WAT     H263246   8.309   9.514   2.930
21002WAT      O63247   1.250   5.941   8.668
21002WAT     H163248   1.186   5.866   8.651
21002WAT     H263249   1.215   6.025   8.626
21003WAT      O63250   0.951   8.757   3.474
21003WAT     H163251   0.930   8.852   3.449
21003WAT     H263252   0.993   8.711   3.396
21004WAT      O63253   7.743   8.781   4.484
21004WAT     H163254   7.840   8.759   4.470
21004WAT     H263255   7.687   8.703   4.458
21005WAT      O63256   5.661   1.481   0.503
21005WAT     H163257   5.716   1.399   0.515
21005WAT     H263258   5.595   1.466   0.430
21006WAT      O63259   7.572   4.814   3.865
21006WAT     H163260   7.562   4.810   3.965
21006WAT     H263261   7.667   4.799   3.841
21007WAT      O63262   7.381   6.059   4.712
21007WAT     H163263   7.455   6.008   4.757
21007WAT     H263264   7.299   6.002   4.709
21008WAT      O63265   9.005   5.911   0.577
21008WAT     H163266   8.944   5.976   0.622
21008WAT     H263267   8.964   5.881   0.491
21009WAT      O63268   2.422   6.201   7.129
21009WAT     H163269   2.499   6.260   7.104
21009WAT     H263270   2.349   6.212   7.063
21010WAT      O63271   8.159   7.807   4.278
21010WAT     H163272   8.107   7.856   4.208
21010WAT     H263273   8.173   7.712   4.249
21011WAT      O63274   9.365   5.026   5.195
21011WAT     H163275   9.328   5.091   5.260
21011WAT     H263276   9.331   5.046   5.103
21012WAT      O63277   8.552   5.592   6.863
21012WAT     H163278   8.574   5.499   6.889
21012WAT     H263279   8.574   5.606   6.766
21013WAT      O63280   1.658   2.858   5.809
21013WAT     H163281   1.743   2.883   5.856
21013WAT     H263282   1.652   2.908   5.723
21014WAT      O63283   0.259   1.895   3.522
21014WAT     H163284   0.168   1.869   3.491
21014WAT     H263285   0.261   1.896   3.622
21015WAT      O63286   7.497   3.692   9.852
21015WAT     H163287   7.489   3.619   9.784
21015WAT     H263288   7.510   3.780   9.805
21016WAT      O63289   8.387   4.394   2.842
21016WAT     H163290   8.445   4.472   2.866
21016WAT     H263291   8.396   4.323   2.911
21017WAT      O63292   3.112   1.728   1.337
21017WAT     H163293   3.104   1.825   1.359
21017WAT     H263294   3.201   1.694   1.367
21018WAT      O63295   2.687   5.566   2.635
21018WAT     H163296   2.672   5.628   2.713
21018WAT     H263297   2.709   5.475   2.669
21019WAT      O63298   7.137   7.242   0.349
21019WAT     H163299   7.044   7.238   0.385
21019WAT     H263300   7.161   7.155   0.306
21020WAT      O63301   8.616   9.844   3.809
21020WAT     H163302   8.693   9.878   3.862
21020WAT     H263303   8.606   9.745   3.824
21021WAT      O63304   0.873   7.830   9.752
21021WAT     H163305   0.947   7.884   9.791
21021WAT     H263306   0.800   7.891   9.722
21022WAT      O63307   8.901   0.125   7.151
21022WAT     H163308   8.941   0.045   7.196
21022WAT     H263309   8.859   0.097   7.065
21023WAT      O63310   7.472   3.153   4.476
21023WAT     H163311   7.400   3.222   4.481
21023WAT     H263312   7.443   3.070   4.524
21024WAT      O63313   4.449   0.160   3.511
21024WAT     H163314   4.419   0.252   3.486
21024WAT     H263315   4.403   0.093   3.453
21025WAT      O63316   0.961   3.093   2.481
21025WAT     H163317   1.049   3.100   2.435
21025WAT     H263318   0.969   3.125   2.575
21026WAT      O63319   7.098   2.468   3.975
21026WAT     H163320   6.999   2.480   3.965
21026WAT     H263321   7.144   2.502   3.893
21027WAT      O63322   4.313   3.908   5.617
21027WAT     H163323   4.248   3.978   5.588
21027WAT     H263324   4.313   3.833   5.550
21028WAT      O63325   4.732   7.242   8.950
21028WAT     H163326   4.655   7.221   8.889
21028WAT     H263327   4.783   7.319   8.914
21029WAT      O63328   1.371   3.937   4.860
21029WAT     H163329   1.366   3.995   4.779
21029WAT     H263330   1.351   3.991   4.941
21030WAT      O63331   6.765   6.082   4.542
21030WAT     H163332   6.788   6.021   4.618
21030WAT     H263333   6.689   6.043   4.490
21031WAT      O63334   1.720   0.166   7.046
21031WAT     H163335   1.714   0.114   6.961
21031WAT     H263336   1.814   0.160   7.081
21032WAT      O63337   4.016   5.878   5.218
21032WAT     H163338   4.047   5.963   5.177
21032WAT     H263339   3.916   5.874   5.214
21033WAT      O63340   3.791   5.880   8.375
21033WAT     H163341   3.853   5.860   8.450
21033WAT     H263342   3.840   5.930   8.303
21034WAT      O63343   7.966   1.851   9.599
21034WAT     H163344   8.004   1.928   9.650
21034WAT     H263345   8.038   1.810   9.543
21035WAT      O63346   4.921   9.778   4.837
21035WAT     H163347   4.955   9.853   4.779
21035WAT     H263348   4.918   9.808   4.932
21036WAT      O63349   0.105   1.605   1.962
21036WAT     H163350   0.089   1.552   2.045
21036WAT     H263351   0.088   1.702   1.980
21037WAT      O63352   1.398   4.820   3.806
21037WAT     H163353   1.301   4.840   3.821
21037WAT     H263354   1.407   4.727   3.771
21038WAT      O63355   1.367   8.817   4.742
21038WAT     H163356   1.421   8.733   4.744
21038WAT     H263357   1.320   8.828   4.830
21039WAT      O63358   6.296   4.931   5.646
21039WAT     H163359   6.337   4.856   5.593
21039WAT     H263360   6.316   5.018   5.601
21040WAT      O63361   0.656   0.860   3.253
21040WAT     H163362   0.614   0.951   3.258
21040WAT     H263363   0.639   0.820   3.163
21041WAT      O63364   7.244   7.040   9.623
21041WAT     H163365   7.344   7.038   9.621
21041WAT     H263366   7.213   7.008   9.713
21042WAT      O63367   0.711   2.702   7.289
21042WAT     H163368   0.745   2.762   7.216
21042WAT     H263369   0.632   2.745   7.333
21043WAT      O63370   3.158   7.592   8.053
21043WAT     H163371   3.116   7.524   7.993
21043WAT     H263372   3.197   7.666   7.998
21044WAT      O63373   7.862   3.804   4.281
21044WAT     H163374   7.887   3.715   4.244
21044WAT     H263375   7.815   3.793   4.368
21045WAT      O63376   2.525   0.297   2.253
21045WAT     H163377   2.594   0.356   2.295
21045WAT     H263378   2.474   0.250   2.325
21046WAT      O63379   4.532   3.392   2.406
21046WAT     H163380   4.436   3.384   2.433
21046WAT     H263381   4.543   3.468   2.343
21047WAT      O63382   0.382   7.178   2.014
21047WAT     H163383   0.367   7.100   1.953
21047WAT     H263384   0.311   7.247   1.999
21048WAT      O63385   1.229   4.481   2.120
21048WAT     H163386   1.237   4.422   2.040
21048WAT     H263387   1.280   4.566   2.104
21049WAT      O63388   3.642   8.407   0.961
21049WAT     H163389   3.657   8.496   0.919
21049WAT     H263390   3.546   8.399   0.990
21050WAT      O63391   8.693   9.451   5.639
21050WAT     H163392   8.672   9.494   5.551
21050WAT     H263393   8.669   9.513   5.713
21051WAT      O63394   2.257   8.306   0.376
21051WAT     H163395   2.187   8.372   0.404
21051WAT     H263396   2.347   8.340   0.402
21052WAT      O63397   2.929   0.973   7.096
21052WAT     H163398   2.967   0.939   7.182
21052WAT     H263399   2.945   0.906   7.024
21053WAT      O63400   8.166   5.552   2.397
21053WAT     H163401   8.224   5.541   2.316
21053WAT     H263402   8.101   5.476   2.401
21054WAT      O63403   3.020   5.532   3.219
21054WAT     H163404   2.992   5.436   3.222
21054WAT     H263405   3.012   5.566   3.125
21055WAT      O63406   5.770   5.956   7.923
21055WAT     H163407   5.789   5.924   8.016
21055WAT     H263408   5.783   5.880   7.859
21056WAT      O63409   7.778   0.361   7.670
21056WAT     H163410   7.729   0.440   7.707
21056WAT     H263411   7.868   0.390   7.638
21057WAT      O63412   1.594   7.716   3.721
21057WAT     H163413   1.628   7.630   3.761
21057WAT     H263414   1.656   7.746   3.649
21058WAT      O63415   0.001   6.137   8.589
21058WAT     H163416   0.030   6.228   8.559
21058WAT     H263417   0.031   6.122   8.683
21059WAT      O63418   0.937   8.895   2.733
21059WAT     H163419   0.935   8.811   2.679
21059WAT     H263420   0.853   8.947   2.716
21060WAT      O63421   2.189   7.108   3.636
21060WAT     H163422   2.121   7.126   3.564
21060WAT     H263423   2.153   7.037   3.697
21061WAT      O63424   8.784   4.748   3.093
21061WAT     H163425   8.817   4.834   3.132
21061WAT     H263426   8.809   4.672   3.153
21062WAT      O63427   1.553   8.872   9.896
21062WAT     H163428   1.540   8.899   9.801
21062WAT     H263429   1.476   8.816   9.927
21063WAT      O63430   6.240   7.703   8.133
21063WAT     H163431   6.240   7.793   8.176
21063WAT     H263432   6.308   7.645   8.179
21064WAT      O63433   4.007   0.762   0.703
21064WAT     H163434   3.925   0.705   0.707
21064WAT     H263435   4.088   0.705   0.718
21065WAT      O63436   0.732   0.893   2.200
21065WAT     H163437   0.642   0.857   2.227
21065WAT     H263438   0.720   0.957   2.125
21066WAT      O63439   1.684   8.286   0.667
21066WAT     H163440   1.728   8.208   0.622
21066WAT     H263441   1.745   8.365   0.663
21067WAT      O63442   7.557   0.735   4.676
21067WAT     H163443   7.651   0.754   4.702
21067WAT     H263444   7.549   0.640   4.646
21068WAT      O63445   8.985   3.368   4.091
21068WAT     H163446   9.020   3.432   4.159
21068WAT     H263447   8.971   3.416   4.004
21069WAT      O63448   7.365   0.774   7.640
21069WAT     H163449   7.296   0.738   7.577
21069WAT     H263450   7.333   0.860   7.680
21070WAT      O63451   6.073   7.911   8.610
21070WAT     H163452   6.058   7.813   8.603
21070WAT     H263453   6.006   7.959   8.554
21071WAT      O63454   3.857   8.202   2.412
21071WAT     H163455   3.854   8.295   2.374
21071WAT     H263456   3.891   8.205   2.506
21072WAT      O63457   9.255   7.453   4.202
21072WAT     H163458   9.296   7.412   4.120
21072WAT     H263459   9.269   7.391   4.280
21073WAT      O63460   9.411   8.672   8.938
21073WAT     H163461   9.325   8.717   8.913
21073WAT     H263462   9.393   8.579   8.968
21074WAT      O63463   3.031   7.453   6.136
21074WAT     H163464   3.065   7.373   6.087
21074WAT     H263465   2.978   7.423   6.216
21075WAT      O63466   7.478   5.199   8.132
21075WAT     H163467   7.487   5.100   8.117
21075WAT     H263468   7.554   5.231   8.187
21076WAT      O63469   1.714   4.707   8.595
21076WAT     H163470   1.756   4.652   8.522
21076WAT     H263471   1.661   4.782   8.554
21077WAT      O63472   6.957   7.452   5.828
21077WAT     H163473   6.884   7.510   5.865
21077WAT     H263474   7.005   7.501   5.755
21078WAT      O63475   0.590   2.454   3.664
21078WAT     H163476   0.592   2.551   3.687
21078WAT     H263477   0.551   2.403   3.740
21079WAT      O63478   3.846   5.937   9.822
21079WAT     H163479   3.865   5.867   9.754
21079WAT     H263480   3.891   6.023   9.795
21080WAT      O63481   2.215   6.837   3.077
21080WAT     H163482   2.215   6.933   3.106
21080WAT     H263483   2.171   6.829   2.988
21081WAT      O63484   0.387   0.584   7.530
21081WAT     H163485   0.311   0.523   7.552
21081WAT     H263486   0.465   0.530   7.497
21082WAT      O63487   2.832   3.541   5.699
21082WAT     H163488   2.781   3.609   5.646
21082WAT     H263489   2.781   3.455   5.702
21083WAT      O63490   7.473   1.021   8.291
21083WAT     H163491   7.385   1.047   8.330
21083WAT     H263492   7.469   0.926   8.259
21084WAT      O63493   1.925   1.029   1.292
21084WAT     H163494   1.971   1.109   1.255
21084WAT     H263495   1.835   1.020   1.250
21085WAT      O63496   2.946   2.115   0.929
21085WAT     H163497   2.927   2.102   1.027
21085WAT     H263498   2.966   2.027   0.887
21086WAT      O63499   8.329   3.288   9.691
21086WAT     H163500   8.372   3.198   9.684
21086WAT     H263501   8.302   3.305   9.785
21087WAT      O63502   8.424   1.963   2.485
21087WAT     H163503   8.440   1.882   2.429
21087WAT     H263504   8.343   1.948   2.542
21088WAT      O63505   7.717   7.407   9.256
21088WAT     H163506   7.644   7.473   9.275
21088WAT     H263507   7.795   7.454   9.216
21089WAT      O63508   1.398   9.074   7.507
21089WAT     H163509   1.450   9.105   7.586
21089WAT     H263510   1.302   9.097   7.519
21090WAT      O63511   5.527   7.323   6.885
21090WAT     H163512   5.453   7.389   6.874
21090WAT     H263513   5.613   7.362   6.851
21091WAT      O63514   3.441   2.553   1.907
21091WAT     H163515   3.467   2.457   1.894
21091WAT     H263516   3.490   2.610   1.841
21092WAT      O63517   9.712   7.064   6.949
21092WAT     H163518   9.718   6.987   7.011
21092WAT     H263519   9.713   7.031   6.854
21093WAT      O63520   3.696   2.921   6.993
21093WAT     H163521   3.685   3.021   6.987
21093WAT     H263522   3.606   2.879   7.005
21094WAT      O63523   7.488   1.152   4.776
21094WAT     H163524   7.570   1.203   4.748
21094WAT     H263525   7.454   1.099   4.698
21095WAT      O63526   5.633   4.266   4.336
21095WAT     H163527   5.714   4.324   4.332
21095WAT     H263528   5.627   4.223   4.426
21096WAT      O63529   7.558   7.337   7.897
21096WAT     H163530   7.458   7.332   7.900
21096WAT     H263531   7.590   7.396   7.972
21097WAT      O63532   2.826   6.188   0.899
21097WAT     H163533   2.766   6.178   0.978
21097WAT     H263534   2.774   6.172   0.815
21098WAT      O63535   5.939   0.788   9.081
21098WAT     H163536   5.867   0.850   9.113
21098WAT     H263537   5.909   0.694   9.093
21099WAT      O63538   9.705   6.142   5.965
21099WAT     H163539   9.623   6.087   5.983
21099WAT     H263540   9.715   6.153   5.866
21100WAT      O63541   4.993   1.622   5.403
21100WAT     H163542   4.997   1.566   5.321
21100WAT     H263543   5.051   1.582   5.474
21101WAT      O63544   0.854   2.708   2.273
21101WAT     H163545   0.927   2.640   2.274
21101WAT     H263546   0.890   2.795   2.240
21102WAT      O63547   5.083   3.086   6.428
21102WAT     H163548   5.061   3.177   6.394
21102WAT     H263549   5.075   3.019   6.354
21103WAT      O63550   6.437   4.242   0.234
21103WAT     H163551   6.384   4.243   0.149
21103WAT     H263552   6.382   4.205   0.308
21104WAT      O63553   9.397   7.406   3.465
21104WAT     H163554   9.387   7.338   3.392
21104WAT     H263555   9.316   7.465   3.467
21105WAT      O63556   0.214   3.905   8.535
21105WAT     H163557   0.151   3.947   8.471
21105WAT     H263558   0.166   3.884   8.620
21106WAT      O63559   9.747   6.501   3.276
21106WAT     H163560   9.684   6.442   3.224
21106WAT     H263561   9.723   6.497   3.373
21107WAT      O63562   2.632   6.344   4.939
21107WAT     H163563   2.551   6.384   4.983
21107WAT     H263564   2.603   6.275   4.873
21108WAT      O63565   7.886   7.653   7.057
21108WAT     H163566   7.797   7.666   7.102
21108WAT     H263567   7.936   7.740   7.057
21109WAT      O63568   9.079   0.448   0.024
21109WAT     H163569   9.020   0.427   0.102
21109WAT     H263570   9.076   0.372  -0.041
21110WAT      O63571   0.647   7.118   2.842
21110WAT     H163572   0.615   7.203   2.800
21110WAT     H263573   0.742   7.102   2.816
21111WAT      O63574   1.006   9.245   6.784
21111WAT     H163575   1.089   9.209   6.825
21111WAT     H263576   1.018   9.252   6.685
21112WAT      O63577   8.778   3.174   1.103
21112WAT     H163578   8.760   3.124   1.018
21112WAT     H263579   8.793   3.271   1.083
21113WAT      O63580   1.861   4.112   0.615
21113WAT     H163581   1.797   4.173   0.662
21113WAT     H263582   1.923   4.166   0.558
21114WAT      O63583   5.043   9.767   3.561
21114WAT     H163584   5.021   9.779   3.464
21114WAT     H263585   4.958   9.769   3.615
21115WAT      O63586   9.558   8.068   9.275
21115WAT     H163587   9.487   8.024   9.220
21115WAT     H263588   9.568   8.019   9.361
21116WAT      O63589   0.523   8.259   9.435
21116WAT     H163590   0.602   8.279   9.494
21116WAT     H263591   0.467   8.341   9.426
21117WAT      O63592   3.379   0.524   0.718
21117WAT     H163593   3.427   0.605   0.751
21117WAT     H263594   3.393   0.448   0.782
21118WAT      O63595   9.665   5.825   9.335
21118WAT     H163596   9.726   5.888   9.288
21118WAT     H263597   9.597   5.790   9.270
21119WAT      O63598   9.310   2.866   5.142
21119WAT     H163599   9.270   2.946   5.097
21119WAT     H263600   9.240   2.796   5.153
21120WAT      O63601   5.865   4.664   4.112
21120WAT     H163602   5.772   4.686   4.139
21120WAT     H263603   5.864   4.592   4.043
21121WAT      O63604   1.053   8.135   7.517
21121WAT     H163605   1.071   8.049   7.564
21121WAT     H263606   1.134   8.194   7.527
21122WAT      O63607   5.130   4.458   9.422
21122WAT     H163608   5.101   4.379   9.475
21122WAT     H263609   5.058   4.528   9.424
21123WAT      O63610   7.718   8.208   6.476
21123WAT     H163611   7.640   8.267   6.454
21123WAT     H263612   7.779   8.203   6.398
21124WAT      O63613   7.605   4.524   9.342
21124WAT     H163614   7.597   4.620   9.371
21124WAT     H263615   7.518   4.494   9.303
21125WAT      O63616   6.199   1.895   6.267
21125WAT     H163617   6.137   1.819   6.288
21125WAT     H263618   6.163   1.980   6.305
21126WAT      O63619   1.342   3.430   3.610
21126WAT     H163620   1.421   3.481   3.578
21126WAT     H263621   1.352   3.334   3.586
21127WAT      O63622   7.198   3.896   9.791
21127WAT     H163623   7.260   3.833   9.838
21127WAT     H263624   7.199   3.877   9.693
21128WAT      O63625   4.506   2.211   9.192
21128WAT     H163626   4.471   2.258   9.273
21128WAT     H263627   4.440   2.217   9.118
21129WAT      O63628   9.727   3.833   5.550
21129WAT     H163629   9.718   3.892   5.630
21129WAT     H263630   9.761   3.743   5.578
21130WAT      O63631   8.923   2.240   6.182
21130WAT     H163632   8.936   2.279   6.090
21130WAT     H263633   8.952   2.307   6.251
21131WAT      O63634   8.537   5.605   7.726
21131WAT     H163635   8.610   5.637   7.786
21131WAT     H263636   8.482   5.537   7.774
21132WAT      O63637   0.194   9.266   1.504
21132WAT     H163638   0.288   9.249   1.535
21132WAT     H263639   0.183   9.362   1.481
21133WAT      O63640   2.782   2.048   3.969
21133WAT     H163641   2.690   2.048   4.009
21133WAT     H263642   2.820   2.141   3.974
21134WAT      O63643   3.279   2.600   5.563
21134WAT     H163644   3.335   2.661   5.507
21134WAT     H263645   3.287   2.506   5.530
21135WAT      O63646   4.397   8.421   9.876
21135WAT     H163647   4.397   8.493   9.946
21135WAT     H263648   4.309   8.373   9.877
21136WAT      O63649   9.714   3.667   8.214
21136WAT     H163650   9.754   3.757   8.196
21136WAT     H263651   9.659   3.670   8.297
21137WAT      O63652   3.934   1.763   3.703
21137WAT     H163653   3.997   1.718   3.767
21137WAT     H263654   3.971   1.757   3.610
21138WAT      O63655   9.811   3.830   2.989
21138WAT     H163656   9.785   3.743   3.029
21138WAT     H263657   9.907   3.850   3.011
21139WAT      O63658   6.628   6.217   7.817
21139WAT     H163659   6.635   6.146   7.748
21139WAT     H263660   6.585   6.298   7.778
21140WAT      O63661   9.033   3.396   0.567
21140WAT     H163662   9.040   3.323   0.635
21140WAT     H263663   8.955   3.455   0.588
21141WAT      O63664   3.374   1.376   4.963
21141WAT     H163665   3.340   1.314   5.034
21141WAT     H263666   3.439   1.440   5.003
21142WAT      O63667   4.128   4.212   0.264
21142WAT     H163668   4.030   4.231   0.276
21142WAT     H263669   4.144   4.114   0.276
21143WAT      O63670   1.170   1.943   0.358
21143WAT     H163671   1.212   1.965   0.446
21143WAT     H263672   1.100   2.012   0.336
21144WAT      O63673   7.245   8.582   9.146
21144WAT     H163674   7.225   8.621   9.056
21144WAT     H263675   7.332   8.619   9.180
21145WAT      O63676   4.144   2.095   9.569
21145WAT     H163677   4.186   2.059   9.652
21145WAT     H263678   4.086   2.173   9.592
21146WAT      O63679   3.170   0.244   2.335
21146WAT     H163680   3.129   0.195   2.412
21146WAT     H263681   3.270   0.245   2.347
21147WAT      O63682   8.059   3.328   2.576
21147WAT     H163683   8.024   3.306   2.485
21147WAT     H263684   8.105   3.417   2.573
21148WAT      O63685   0.842   6.309   3.931
21148WAT     H163686   0.821   6.356   3.846
21148WAT     H263687   0.895   6.226   3.912
21149WAT      O63688   7.638   6.220   2.286
21149WAT     H163689   7.633   6.310   2.241
21149WAT     H263690   7.611   6.229   2.382
21150WAT      O63691   2.201   0.058   4.740
21150WAT     H163692   2.241  -0.017   4.792
21150WAT     H263693   2.263   0.137   4.742
21151WAT      O63694   6.170   6.779   7.471
21151WAT     H163695   6.176   6.793   7.570
21151WAT     H263696   6.214   6.692   7.448
21152WAT      O63697   1.164   7.444   2.969
21152WAT     H163698   1.181   7.534   2.929
21152WAT     H263699   1.219   7.433   3.052
21153WAT      O63700   2.813   3.442   7.471
21153WAT     H163701   2.795   3.499   7.551
21153WAT     H263702   2.759   3.476   7.394
21154WAT      O63703   7.106   9.847   9.610
21154WAT     H163704   7.113   9.749   9.629
21154WAT     H263705   7.039   9.862   9.537
21155WAT      O63706   0.682   7.335   9.406
21155WAT     H163707   0.677   7.360   9.309
21155WAT     H263708   0.742   7.399   9.453
21156WAT      O63709   1.095   1.722   0.630
21156WAT     H163710   1.186   1.745   0.665
21156WAT     H263711   1.049   1.806   0.602
21157WAT      O63712   9.561   6.692   3.256
21157WAT     H163713   9.497   6.615   3.260
21157WAT     H263714   9.655   6.657   3.255
21158WAT      O63715   7.756   4.722   5.965
21158WAT     H163716   7.789   4.799   6.019
21158WAT     H263717   7.678   4.680   6.010
21159WAT      O63718   0.371   5.765   0.089
21159WAT     H163719   0.368   5.674   0.131
21159WAT     H263720   0.335   5.833   0.152
21160WAT      O63721   1.053   4.345   8.687
21160WAT     H163722   1.122   4.336   8.615
21160WAT     H263723   1.092   4.318   8.775
21161WAT      O63724   9.500   3.252   2.108
21161WAT     H163725   9.461   3.194   2.037
21161WAT     H263726   9.597   3.269   2.088
21162WAT      O63727   4.966   4.349   4.488
21162WAT     H163728   4.957   4.406   4.569
21162WAT     H263729   5.020   4.268   4.510
21163WAT      O63730   6.563   8.954   9.153
21163WAT     H163731   6.572   8.892   9.075
21163WAT     H263732   6.615   9.038   9.135
21164WAT      O63733   0.363   0.745   6.845
21164WAT     H163734   0.463   0.745   6.849
21164WAT     H263735   0.326   0.758   6.937
21165WAT      O63736   0.727   6.626   2.140
21165WAT     H163737   0.651   6.686   2.117
21165WAT     H263738   0.709   6.580   2.227
21166WAT      O63739   1.360   4.362   8.610
21166WAT     H163740   1.356   4.289   8.678
21166WAT     H263741   1.359   4.451   8.656
21167WAT      O63742   5.995   0.812   2.210
21167WAT     H163743   5.896   0.803   2.195
21167WAT     H263744   6.020   0.761   2.292
21168WAT      O63745   8.546   4.517   3.765
21168WAT     H163746   8.644   4.527   3.785
21168WAT     H263747   8.528   4.542   3.670
21169WAT      O63748   3.248   0.935   5.063
21169WAT     H163749   3.203   0.999   5.001
21169WAT     H263750   3.250   0.844   5.021
21170WAT      O63751   9.484   2.576   4.827
21170WAT     H163752   9.434   2.491   4.815
21170WAT     H263753   9.574   2.568   4.784
21171WAT      O63754   3.870   2.902   2.497
21171WAT     H163755   3.962   2.915   2.460
21171WAT     H263756   3.864   2.812   2.540
21172WAT      O63757   9.296   7.870   5.266
21172WAT     H163758   9.233   7.793   5.278
21172WAT     H263759   9.335   7.896   5.355
21173WAT      O63760   6.590   5.561   9.318
21173WAT     H163761   6.515   5.617   9.282
21173WAT     H263762   6.634   5.610   9.393
21174WAT      O63763   9.279   7.477   4.912
21174WAT     H163764   9.302   7.552   4.974
21174WAT     H263765   9.220   7.412   4.958
21175WAT      O63766   5.054   7.652   0.850
21175WAT     H163767   5.053   7.553   0.835
21175WAT     H263768   4.983   7.675   0.917
21176WAT      O63769   3.259   9.462   0.386
21176WAT     H163770   3.160   9.452   0.376
21176WAT     H263771   3.287   9.428   0.475
21177WAT      O63772   4.290   5.206   2.931
21177WAT     H163773   4.267   5.303   2.938
21177WAT     H263774   4.344   5.191   2.848
21178WAT      O63775   8.637   5.856   9.734
21178WAT     H163776   8.710   5.910   9.775
21178WAT     H263777   8.619   5.775   9.790
21179WAT      O63778   0.774   7.694   2.722
21179WAT     H163779   0.779   7.757   2.800
21179WAT     H263780   0.776   7.600   2.756
21180WAT      O63781   7.021   4.983   6.839
21180WAT     H163782   7.100   5.006   6.897
21180WAT     H263783   7.034   4.892   6.801
21181WAT      O63784   3.920   6.617   8.055
21181WAT     H163785   3.937   6.589   7.961
21181WAT     H263786   3.904   6.716   8.059
21182WAT      O63787   5.871   2.270   0.742
21182WAT     H163788   5.960   2.229   0.724
21182WAT     H263789   5.880   2.339   0.814
21183WAT      O63790   2.487   9.402   7.623
21183WAT     H163791   2.438   9.423   7.707
21183WAT     H263792   2.560   9.469   7.609
21184WAT      O63793   6.086   0.565   1.971
21184WAT     H163794   6.031   0.646   1.952
21184WAT     H263795   6.152   0.586   2.043
21185WAT      O63796   2.110   2.215   3.816
21185WAT     H163797   2.168   2.134   3.827
21185WAT     H263798   2.113   2.269   3.900
21186WAT      O63799   0.938   9.833   0.190
21186WAT     H163800   0.883   9.757   0.155
21186WAT     H263801   0.915   9.849   0.286
21187WAT      O63802   9.165   2.078   3.207
21187WAT     H163803   9.162   2.090   3.107
21187WAT     H263804   9.105   2.002   3.232
21188WAT      O63805   7.625   2.378   3.768
21188WAT     H163806   7.715   2.374   3.813
21188WAT     H263807   7.639   2.384   3.669
21189WAT      O63808   4.189   8.337   9.524
21189WAT     H163809   4.222   8.273   9.455
21189WAT     H263810   4.152   8.286   9.601
21190WAT      O63811   7.951   3.895   5.617
21190WAT     H163812   7.984   3.965   5.680
21190WAT     H263813   8.008   3.814   5.623
21191WAT      O63814   5.174   7.518   8.572
21191WAT     H163815   5.265   7.486   8.544
21191WAT     H263816   5.129   7.446   8.625
21192WAT      O63817   4.843   4.264   7.539
21192WAT     H163818   4.924   4.321   7.524
21192WAT     H263819   4.867   4.188   7.599
21193WAT      O63820   5.492   1.704   2.417
21193WAT     H163821   5.562   1.703   2.345
21193WAT     H263822   5.517   1.771   2.486
21194WAT      O63823   3.519   5.700   6.084
21194WAT     H163824   3.447   5.730   6.022
21194WAT     H263825   3.501   5.606   6.114
21195WAT      O63826   7.550   0.529   7.373
21195WAT     H163827   7.516   0.491   7.460
21195WAT     H263828   7.477   0.527   7.305
21196WAT      O63829   2.862   1.025   8.272
21196WAT     H163830   2.853   1.087   8.350
21196WAT     H263831   2.845   0.931   8.302
21197WAT      O63832   8.962   5.663   2.184
21197WAT     H163833   8.880   5.669   2.128
21197WAT     H263834   9.035   5.619   2.132
21198WAT      O63835   5.620   9.414   3.655
21198WAT     H163836   5.716   9.442   3.651
21198WAT     H263837   5.561   9.493   3.637
21199WAT      O63838   0.553   9.228   9.680
21199WAT     H163839   0.551   9.129   9.679
21199WAT     H263840   0.562   9.262   9.586
21200WAT      O63841   1.844   7.632   9.650
21200WAT     H163842   1.828   7.692   9.728
21200WAT     H263843   1.941   7.631   9.628
21201WAT      O63844   8.634   0.318   7.575
21201WAT     H163845   8.585   0.399   7.542
21201WAT     H263846   8.628   0.245   7.506
21202WAT      O63847   1.799   1.566   1.275
21202WAT     H163848   1.893   1.584   1.243
21202WAT     H263849   1.773   1.636   1.342
21203WAT      O63850   6.759   0.776   9.855
21203WAT     H163851   6.807   0.807   9.774
21203WAT     H263852   6.799   0.817   9.936
21204WAT      O63853   4.989   1.730   3.223
21204WAT     H163854   5.027   1.816   3.186
21204WAT     H263855   5.043   1.653   3.190
21205WAT      O63856   1.284   4.110   9.607
21205WAT     H163857   1.285   4.176   9.532
21205WAT     H263858   1.195   4.065   9.611
21206WAT      O63859   2.132   4.520   4.610
21206WAT     H163860   2.161   4.532   4.515
21206WAT     H263861   2.042   4.563   4.622
21207WAT      O63862   4.617   7.937   8.192
21207WAT     H163863   4.561   7.915   8.272
21207WAT     H263864   4.707   7.896   8.202
21208WAT      O63865   3.740   5.138   5.607
21208WAT     H163866   3.718   5.174   5.517
21208WAT     H263867   3.672   5.068   5.632
21209WAT      O63868   1.898   7.266   4.015
21209WAT     H163869   1.912   7.170   3.994
21209WAT     H263870   1.835   7.274   4.093
21210WAT      O63871   0.925   8.345   4.251
21210WAT     H163872   1.007   8.292   4.232
21210WAT     H263873   0.922   8.370   4.348
21211WAT      O63874   5.694   1.991   4.733
21211WAT     H163875   5.768   2.057   4.737
21211WAT     H263876   5.667   1.977   4.637
21212WAT      O63877   9.407   3.711   9.217
21212WAT     H163878   9.450   3.620   9.221
21212WAT     H263879   9.309   3.700   9.201
21213WAT      O63880   5.474   2.446   1.350
21213WAT     H163881   5.497   2.531   1.398
21213WAT     H263882   5.376   2.429   1.358
21214WAT      O63883   5.503   7.311   2.900
21214WAT     H163884   5.458   7.336   2.985
21214WAT     H263885   5.439   7.260   2.842
21215WAT      O63886   1.324   7.482   2.126
21215WAT     H163887   1.305   7.493   2.029
21215WAT     H263888   1.423   7.483   2.141
21216WAT      O63889   3.016   8.686   1.352
21216WAT     H163890   2.921   8.694   1.320
21216WAT     H263891   3.017   8.640   1.441
21217WAT      O63892   8.431   9.008   2.526
21217WAT     H163893   8.353   8.946   2.518
21217WAT     H263894   8.398   9.101   2.545
21218WAT      O63895   9.542   8.032   2.677
21218WAT     H163896   9.549   7.934   2.697
21218WAT     H263897   9.502   8.079   2.756
21219WAT      O63898   5.812   5.503   0.535
21219WAT     H163899   5.880   5.438   0.501
21219WAT     H263900   5.731   5.500   0.477
21220WAT      O63901   6.940   2.270   2.269
21220WAT     H163902   6.912   2.174   2.276
21220WAT     H263903   7.037   2.275   2.248
21221WAT      O63904   1.146   7.893   8.634
21221WAT     H163905   1.102   7.870   8.547
21221WAT     H263906   1.076   7.909   8.704
21222WAT      O63907   4.245   1.096   8.489
21222WAT     H163908   4.150   1.118   8.469
21222WAT     H263909   4.293   1.179   8.518
21223WAT      O63910   0.628   2.463   5.281
21223WAT     H163911   0.666   2.540   5.332
21223WAT     H263912   0.634   2.481   5.183
21224WAT      O63913   4.976   1.590   0.939
21224WAT     H163914   4.958   1.685   0.965
21224WAT     H263915   5.069   1.566   0.965
21225WAT      O63916   5.831   2.973   1.222
21225WAT     H163917   5.771   2.910   1.173
21225WAT     H263918   5.896   3.014   1.158
21226WAT      O63919   4.641   8.435   2.979
21226WAT     H163920   4.635   8.414   2.881
21226WAT     H263921   4.737   8.436   3.007
21227WAT      O63922   7.661   0.414   4.609
21227WAT     H163923   7.760   0.419   4.601
21227WAT     H263924   7.634   0.439   4.702
21228WAT      O63925   4.438   4.558   1.758
21228WAT     H163926   4.484   4.471   1.775
21228WAT     H263927   4.407   4.562   1.663
21229WAT      O63928   3.501   1.849   7.864
21229WAT     H163929   3.512   1.850   7.764
21229WAT     H263930   3.546   1.929   7.903
21230WAT      O63931   8.364   2.072   9.884
21230WAT     H163932   8.326   2.159   9.853
21230WAT     H263933   8.295   2.020   9.933
21231WAT      O63934   2.632   8.663   8.274
21231WAT     H163935   2.649   8.599   8.348
21231WAT     H263936   2.668   8.626   8.189
21232WAT      O63937   2.536   9.219   7.964
21232WAT     H163938   2.503   9.312   7.944
21232WAT     H263939   2.458   9.157   7.969
21233WAT      O63940   5.916   0.472   2.514
21233WAT     H163941   5.824   0.512   2.505
21233WAT     H263942   5.914   0.400   2.584
21234WAT      O63943   8.587   7.763   3.724
21234WAT     H163944   8.556   7.830   3.657
21234WAT     H263945   8.523   7.760   3.800
21235WAT      O63946   8.168   7.626   9.198
21235WAT     H163947   8.239   7.656   9.261
21235WAT     H263948   8.097   7.577   9.249
21236WAT      O63949   5.049   3.650   6.591
21236WAT     H163950   4.991   3.576   6.626
21236WAT     H263951   5.134   3.612   6.557
21237WAT      O63952   3.378   0.980   2.698
21237WAT     H163953   3.335   0.921   2.629
21237WAT     H263954   3.325   1.064   2.708
21238WAT      O63955   3.197   3.292   6.127
21238WAT     H163956   3.217   3.196   6.149
21238WAT     H263957   3.171   3.341   6.210
21239WAT      O63958   3.097   8.609   8.779
21239WAT     H163959   3.138   8.656   8.857
21239WAT     H263960   3.054   8.676   8.718
21240WAT      O63961   6.853   5.192   9.711
21240WAT     H163962   6.920   5.167   9.640
21240WAT     H263963   6.865   5.131   9.789
21241WAT      O63964   2.049   5.826   7.400
21241WAT     H163965   1.983   5.795   7.468
21241WAT     H263966   2.023   5.789   7.310
21242WAT      O63967   4.360   4.031   8.303
21242WAT     H163968   4.354   4.110   8.243
21242WAT     H263969   4.305   4.047   8.385
21243WAT      O63970   8.211   7.717   8.310
21243WAT     H163971   8.121   7.698   8.348
21243WAT     H263972   8.281   7.688   8.375
21244WAT      O63973   5.438   8.117   9.688
21244WAT     H163974   5.435   8.040   9.624
21244WAT     H263975   5.456   8.084   9.780
21245WAT      O63976   4.745   8.587   0.092
21245WAT     H163977   4.813   8.532   0.044
21245WAT     H263978   4.732   8.674   0.044
21246WAT      O63979   0.097   0.383   1.770
21246WAT     H163980   0.140   0.321   1.705
21246WAT     H263981  -0.000   0.360   1.779
21247WAT      O63982   1.218   7.041   6.303
21247WAT     H163983   1.285   7.109   6.334
21247WAT     H263984   1.243   7.009   6.212
21248WAT      O63985   3.855   7.170   5.775
21248WAT     H163986   3.884   7.247   5.719
21248WAT     H263987   3.825   7.095   5.716
21249WAT      O63988   3.414   4.008   7.290
21249WAT     H163989   3.422   4.106   7.277
21249WAT     H263990   3.346   3.971   7.228
21250WAT      O63991   5.691   2.592   9.015
21250WAT     H163992   5.635   2.562   9.092
21250WAT     H263993   5.757   2.661   9.047
21251WAT      O63994   4.091   3.770   7.815
21251WAT     H163995   4.183   3.764   7.777
21251WAT     H263996   4.073   3.689   7.872
21252WAT      O63997   2.471   4.503   6.670
21252WAT     H163998   2.523   4.581   6.634
21252WAT     H263999   2.381   4.535   6.701
21253WAT      O64000   4.520   1.809   6.790
21253WAT     H164001   4.526   1.717   6.752
21253WAT     H264002   4.591   1.866   6.750
21254WAT      O64003   5.375   2.651   2.234
21254WAT     H164004   5.405   2.738   2.274
21254WAT     H264005   5.298   2.667   2.172
21255WAT      O64006   7.506   2.350   4.434
21255WAT     H164007   7.480   2.314   4.344
21255WAT     H264008   7.605   2.367   4.435
21256WAT      O64009   6.281   5.727   6.814
21256WAT     H164010   6.244   5.674   6.890
21256WAT     H264011   6.287   5.670   6.732
21257WAT      O64012   5.462   6.324   3.091
21257WAT     H164013   5.546   6.348   3.042
21257WAT     H264014   5.479   6.327   3.190
21258WAT      O64015   3.467   5.803   1.008
21258WAT     H164016   3.565   5.817   1.021
21258WAT     H264017   3.446   5.705   1.019
21259WAT      O64018   8.441   2.960   4.977
21259WAT     H164019   8.376   3.009   4.919
21259WAT     H264020   8.390   2.904   5.042
21260WAT      O64021   0.035   5.897   4.029
21260WAT     H164022   0.009   5.958   4.104
21260WAT     H264023  -0.047   5.858   3.988
21261WAT      O64024   1.187   5.712   8.387
21261WAT     H164025   1.198   5.795   8.332
21261WAT     H264026   1.163   5.636   8.328
21262WAT      O64027   6.175   0.279   6.573
21262WAT     H164028   6.081   0.304   6.598
21262WAT     H264029   6.188   0.181   6.587
21263WAT      O64030   1.175   8.256   8.653
21263WAT     H164031   1.206   8.205   8.733
21263WAT     H264032   1.244   8.250   8.581
21264WAT      O64033   9.542   9.339   1.979
21264WAT     H164034   9.609   9.397   1.932
21264WAT     H264035   9.491   9.394   2.045
21265WAT      O64036   6.929   7.650   2.262
21265WAT     H164037   7.011   7.656   2.204
21265WAT     H264038   6.956   7.653   2.358
21266WAT      O64039   5.913   6.581   1.385
21266WAT     H164040   5.981   6.654   1.374
21266WAT     H264041   5.955   6.493   1.365
21267WAT      O64042   7.970   4.549   6.025
21267WAT     H164043   7.962   4.491   6.107
21267WAT     H264044   7.898   4.618   6.027
21268WAT      O64045   4.905   7.405   3.175
21268WAT     H164046   4.895   7.502   3.199
21268WAT     H264047   4.845   7.351   3.234
21269WAT      O64048   5.916   9.546   1.146
21269WAT     H164049   5.902   9.600   1.062
21269WAT     H264050   5.995   9.486   1.134
21270WAT      O64051   2.350   1.068   7.046
21270WAT     H164052   2.348   0.990   7.109
21270WAT     H264053   2.444   1.084   7.016
21271WAT      O64054   6.468   4.942   6.015
21271WAT     H164055   6.412   4.863   5.990
21271WAT     H264056   6.463   4.956   6.114
21272WAT      O64057   7.697   4.498   1.491
21272WAT     H164058   7.761   4.567   1.456
21272WAT     H264059   7.746   4.433   1.549
21273WAT      O64060   4.252   5.962   3.017
21273WAT     H164061   4.329   5.941   3.077
21273WAT     H264062   4.214   6.052   3.041
21274WAT      O64063   3.194   9.756   1.120
21274WAT     H164064   3.173   9.852   1.143
21274WAT     H264065   3.266   9.722   1.182
21275WAT      O64066   1.408   0.648   9.607
21275WAT     H164067   1.436   0.591   9.684
21275WAT     H264068   1.383   0.590   9.530
21276WAT      O64069   8.547   3.225   7.748
21276WAT     H164070   8.519   3.133   7.774
21276WAT     H264071   8.636   3.246   7.788
21277WAT      O64072   8.275   4.179   1.110
21277WAT     H164073   8.285   4.186   1.210
21277WAT     H264074   8.363   4.197   1.067
21278WAT      O64075   7.104   2.419   9.099
21278WAT     H164076   7.016   2.453   9.066
21278WAT     H264077   7.101   2.320   9.107
21279WAT      O64078   7.452   0.456   4.433
21279WAT     H164079   7.533   0.449   4.493
21279WAT     H264080   7.466   0.400   4.352
21280WAT      O64081   8.331   9.252   9.767
21280WAT     H164082   8.379   9.333   9.801
21280WAT     H264083   8.232   9.267   9.776
21281WAT      O64084   9.827   0.577   9.506
21281WAT     H164085   9.764   0.621   9.570
21281WAT     H264086   9.777   0.513   9.448
21282WAT      O64087   4.935   1.711   9.446
21282WAT     H164088   4.861   1.695   9.511
21282WAT     H264089   4.897   1.738   9.358
21283WAT      O64090   5.213   0.106   7.135
21283WAT     H164091   5.297   0.112   7.189
21283WAT     H264092   5.190   0.197   7.099
21284WAT      O64093   1.999   9.561   2.951
21284WAT     H164094   1.964   9.478   2.995
21284WAT     H264095   2.054   9.613   3.016
21285WAT      O64096   2.680   8.797   7.185
21285WAT     H164097   2.728   8.755   7.108
21285WAT     H264098   2.744   8.852   7.238
21286WAT      O64099   5.742   4.250   0.983
21286WAT     H164100   5.827   4.277   1.028
21286WAT     H264101   5.668   4.311   1.011
21287WAT      O64102   3.066   1.421   1.927
21287WAT     H164103   3.098   1.495   1.985
21287WAT     H264104   2.968   1.433   1.909
21288WAT      O64105   1.386   4.705   7.361
21288WAT     H164106   1.440   4.633   7.404
21288WAT     H264107   1.436   4.743   7.283
21289WAT      O64108   5.001   9.690   1.964
21289WAT     H164109   5.031   9.660   2.054
21289WAT     H264110   5.000   9.611   1.902
21290WAT      O64111   9.570   0.883   7.537
21290WAT     H164112   9.607   0.871   7.445
21290WAT     H264113   9.535   0.976   7.547
21291WAT      O64114   9.261   7.497   6.171
21291WAT     H164115   9.224   7.432   6.236
21291WAT     H264116   9.209   7.582   6.175
21292WAT      O64117   0.432   1.340   8.432
21292WAT     H164118   0.389   1.429   8.423
21292WAT     H264119   0.433   1.312   8.528
21293WAT      O64120   8.046   3.547   9.345
21293WAT     H164121   8.123   3.495   9.382
21293WAT     H264122   8.006   3.604   9.417
21294WAT      O64123   9.048   6.870   5.663
21294WAT     H164124   8.953   6.904   5.666
21294WAT     H264125   9.109   6.939   5.703
21295WAT      O64126   3.511   4.195   1.941
21295WAT     H164127   3.609   4.177   1.932
21295WAT     H264128   3.496   4.266   2.010
21296WAT      O64129   2.082   8.779   9.683
21296WAT     H164130   2.054   8.802   9.776
21296WAT     H264131   2.027   8.831   9.618
21297WAT      O64132   8.981   9.584   8.433
21297WAT     H164133   8.906   9.612   8.372
21297WAT     H264134   9.066   9.629   8.404
21298WAT      O64135   3.402   7.382   1.498
21298WAT     H164136   3.473   7.392   1.568
21298WAT     H264137   3.402   7.462   1.439
21299WAT      O64138   6.879   1.829   2.768
21299WAT     H164139   6.799   1.787   2.810
21299WAT     H264140   6.856   1.858   2.674
21300WAT      O64141   5.701   1.200   5.682
21300WAT     H164142   5.753   1.126   5.724
21300WAT     H264143   5.603   1.182   5.691
21301WAT      O64144   5.240   4.672   3.155
21301WAT     H164145   5.165   4.617   3.120
21301WAT     H264146   5.253   4.653   3.253
21302WAT      O64147   4.380   0.766   2.502
21302WAT     H164148   4.468   0.809   2.520
21302WAT     H264149   4.309   0.811   2.556
21303WAT      O64150   9.166   8.990   6.223
21303WAT     H164151   9.160   8.898   6.260
21303WAT     H264152   9.237   8.993   6.153
21304WAT      O64153   3.565   9.240   4.475
21304WAT     H164154   3.544   9.297   4.395
21304WAT     H264155   3.638   9.177   4.453
21305WAT      O64156   5.540   8.108   4.637
21305WAT     H164157   5.491   8.194   4.620
21305WAT     H264158   5.625   8.127   4.687
21306WAT      O64159   9.193   3.998   2.399
21306WAT     H164160   9.108   3.989   2.346
21306WAT     H264161   9.171   4.002   2.496
21307WAT      O64162   3.850   0.729   2.192
21307WAT     H164163   3.810   0.820   2.183
21307WAT     H264164   3.933   0.734   2.248
21308WAT      O64165   3.264   4.910   5.658
21308WAT     H164166   3.228   4.850   5.586
21308WAT     H264167   3.252   4.865   5.747
21309WAT      O64168   5.483   2.916   4.197
21309WAT     H164169   5.569   2.967   4.208
21309WAT     H264170   5.414   2.975   4.157
21310WAT      O64171   1.926   6.806   4.544
21310WAT     H164172   1.841   6.754   4.544
21310WAT     H264173   1.910   6.896   4.504
21311WAT      O64174   0.726   3.957   6.348
21311WAT     H164175   0.757   4.019   6.420
21311WAT     H264176   0.744   3.999   6.259
21312WAT      O64177   3.689   5.877   4.158
21312WAT     H164178   3.721   5.871   4.063
21312WAT     H264179   3.705   5.969   4.193
21313WAT      O64180   0.531   3.998   8.090
21313WAT     H164181   0.617   3.952   8.065
21313WAT     H264182   0.507   3.975   8.185
21314WAT      O64183   9.043   8.521   7.187
21314WAT     H164184   9.025   8.619   7.189
21314WAT     H264185   8.999   8.481   7.106
21315WAT      O64186   6.635   0.270   3.618
21315WAT     H164187   6.680   0.350   3.658
21315WAT     H264188   6.545   0.296   3.583
21316WAT      O64189   1.414   0.311   6.830
21316WAT     H164190   1.372   0.398   6.805
21316WAT     H264191   1.500   0.300   6.781
21317WAT      O64192   8.265   4.886   3.906
21317WAT     H164193   8.348   4.836   3.931
21317WAT     H264194   8.186   4.845   3.951
21318WAT      O64195   0.887   4.564   5.091
21318WAT     H164196   0.950   4.546   5.015
21318WAT     H264197   0.893   4.489   5.157
21319WAT      O64198   9.150   9.628   3.946
21319WAT     H164199   9.213   9.680   4.002
21319WAT     H264200   9.156   9.531   3.970
21320WAT      O64201   7.890   7.162   3.973
21320WAT     H164202   7.927   7.170   3.881
21320WAT     H264203   7.844   7.074   3.983
21321WAT      O64204   1.652   7.900   6.993
21321WAT     H164205   1.645   7.810   7.036
21321WAT     H264206   1.727   7.900   6.927
21322WAT      O64207   0.998   8.028   3.680
21322WAT     H164208   1.065   7.955   3.668
21322WAT     H264209   1.020   8.080   3.762
21323WAT      O64210   2.659   8.575   9.833
21323WAT     H164211   2.587   8.556   9.766
21323WAT     H264212   2.620   8.573   9.925
21324WAT      O64213   5.194   8.395   9.403
21324WAT     H164214   5.194   8.346   9.490
21324WAT     H264215   5.259   8.471   9.408
21325WAT      O64216   0.287   0.447   8.117
21325WAT     H164217   0.287   0.426   8.019
21325WAT     H264218   0.205   0.500   8.140
21326WAT      O64219   3.019   6.794   3.415
21326WAT     H164220   2.928   6.755   3.422
21326WAT     H264221   3.049   6.794   3.320
21327WAT      O64222   9.738   8.273   4.160
21327WAT     H164223   9.823   8.270   4.214
21327WAT     H264224   9.681   8.195   4.185
21328WAT      O64225   8.057   6.542   2.229
21328WAT     H164226   7.978   6.603   2.229
21328WAT     H264227   8.035   6.459   2.280
21329WAT      O64228   2.810   0.046   4.081
21329WAT     H164229   2.823   0.014   3.987
21329WAT     H264230   2.713   0.066   4.096
21330WAT      O64231   3.210   8.672   0.856
21330WAT     H164232   3.237   8.575   0.853
21330WAT     H264233   3.183   8.696   0.950
21331WAT      O64234   8.437   9.252   5.424
21331WAT     H164235   8.414   9.316   5.497
21331WAT     H264236   8.405   9.160   5.449
21332WAT      O64237   0.788   8.567   7.677
21332WAT     H164238   0.849   8.641   7.647
21332WAT     H264239   0.797   8.490   7.614
21333WAT      O64240   1.305   1.485   0.585
21333WAT     H164241   1.262   1.547   0.651
21333WAT     H264242   1.288   1.518   0.492
21334WAT      O64243   5.233   0.413   1.048
21334WAT     H164244   5.236   0.488   0.982
21334WAT     H264245   5.221   0.326   0.999
21335WAT      O64246   2.217   8.173   5.008
21335WAT     H164247   2.204   8.140   4.915
21335WAT     H264248   2.219   8.096   5.072
21336WAT      O64249   9.538   8.307   5.492
21336WAT     H164250   9.584   8.219   5.504
21336WAT     H264251   9.560   8.344   5.401
21337WAT      O64252   8.452   9.765   3.393
21337WAT     H164253   8.457   9.718   3.481
21337WAT     H264254   8.360   9.754   3.355
21338WAT      O64255   7.624   2.963   9.730
21338WAT     H164256   7.625   2.884   9.791
21338WAT     H264257   7.540   2.961   9.676
21339WAT      O64258   7.513   6.378   0.745
21339WAT     H164259   7.462   6.295   0.726
21339WAT     H264260   7.494   6.409   0.838
21340WAT      O64261   3.402   8.784   1.650
21340WAT     H164262   3.498   8.765   1.671
21340WAT     H264263   3.379   8.876   1.680
21341WAT      O64264   3.551   2.718   6.306
21341WAT     H164265   3.497   2.645   6.264
21341WAT     H264266   3.577   2.785   6.236
21342WAT      O64267   0.544   8.219   1.432
21342WAT     H164268   0.553   8.275   1.514
21342WAT     H264269   0.519   8.125   1.458
21343WAT      O64270   6.124   1.440   1.770
21343WAT     H164271   6.098   1.349   1.736
21343WAT     H264272   6.048   1.478   1.823
21344WAT      O64273   7.984   1.835   4.098
21344WAT     H164274   7.911   1.841   4.166
21344WAT     H264275   7.985   1.743   4.058
21345WAT      O64276   5.612   1.466   1.850
21345WAT     H164277   5.612   1.411   1.934
21345WAT     H264278   5.522   1.506   1.836
21346WAT      O64279   6.051   4.221   8.456
21346WAT     H164280   6.127   4.174   8.410
21346WAT     H264281   5.976   4.156   8.472
21347WAT      O64282   2.208   2.618   7.169
21347WAT     H164283   2.119   2.612   7.213
21347WAT     H264284   2.279   2.628   7.238
21348WAT      O64285   8.894   2.547   3.357
21348WAT     H164286   8.902   2.575   3.453
21348WAT     H264287   8.946   2.609   3.299
21349WAT      O64288   1.951   9.263   5.852
21349WAT     H164289   2.005   9.332   5.900
21349WAT     H264290   1.890   9.307   5.787
21350WAT      O64291   1.142   9.460   0.243
21350WAT     H164292   1.229   9.411   0.248
21350WAT     H264293   1.071   9.406   0.289
21351WAT      O64294   3.435   2.027   4.784
21351WAT     H164295   3.531   2.053   4.775
21351WAT     H264296   3.380   2.106   4.810
21352WAT      O64297   5.748   5.983   1.852
21352WAT     H164298   5.772   5.978   1.755
21352WAT     H264299   5.669   6.043   1.864
21353WAT      O64300   9.660   2.710   8.233
21353WAT     H164301   9.688   2.805   8.240
21353WAT     H264302   9.731   2.657   8.187
21354WAT      O64303   0.955   4.076   8.651
21354WAT     H164304   0.987   4.055   8.559
21354WAT     H264305   0.963   4.174   8.668
21355WAT      O64306   8.476   8.813   5.541
21355WAT     H164307   8.453   8.874   5.465
21355WAT     H264308   8.393   8.768   5.574
21356WAT      O64309   0.606   4.469   4.636
21356WAT     H164310   0.563   4.499   4.551
21356WAT     H264311   0.573   4.525   4.712
21357WAT      O64312   5.131   3.833   5.795
21357WAT     H164313   5.207   3.772   5.814
21357WAT     H264314   5.160   3.928   5.806
21358WAT      O64315   0.318   2.381   7.997
21358WAT     H164316   0.358   2.469   8.023
21358WAT     H264317   0.248   2.396   7.927
21359WAT      O64318   5.410   2.598   6.795
21359WAT     H164319   5.483   2.609   6.863
21359WAT     H264320   5.399   2.683   6.745
21360WAT      O64321   1.111   0.435   5.091
21360WAT     H164322   1.025   0.387   5.074
21360WAT     H264323   1.178   0.372   5.129
21361WAT      O64324   3.786   2.279   2.044
21361WAT     H164325   3.818   2.359   2.095
21361WAT     H264326   3.701   2.246   2.084
21362WAT      O64327   9.399   7.223   8.431
21362WAT     H164328   9.424   7.316   8.457
21362WAT     H264329   9.454   7.194   8.352
21363WAT      O64330   5.536   9.187   5.817
21363WAT     H164331   5.479   9.209   5.895
21363WAT     H264332   5.540   9.087   5.806
21364WAT      O64333   4.464   6.359   1.502
21364WAT     H164334   4.491   6.441   1.553
21364WAT     H264335   4.369   6.337   1.523
21365WAT      O64336   0.975   6.340   7.443
21365WAT     H164337   1.055   6.283   7.465
21365WAT     H264338   0.977   6.363   7.346
21366WAT      O64339   6.959   9.737   0.094
21366WAT     H164340   6.983   9.814   0.034
21366WAT     H264341   6.876   9.693   0.060
21367WAT      O64342   1.274   3.264   9.617
21367WAT     H164343   1.193   3.323   9.611
21367WAT     H264344   1.259   3.194   9.687
21368WAT      O64345   6.581   7.947   8.582
21368WAT     H164346   6.604   7.897   8.666
21368WAT     H264347   6.501   8.005   8.599
21369WAT      O64348   8.509   7.219   7.271
21369WAT     H164349   8.447   7.149   7.307
21369WAT     H264350   8.538   7.193   7.179
21370WAT      O64351   7.557   5.431   0.431
21370WAT     H164352   7.583   5.363   0.363
21370WAT     H264353   7.500   5.389   0.501
21371WAT      O64354   6.339   3.095   1.349
21371WAT     H164355   6.418   3.151   1.325
21371WAT     H264356   6.342   3.008   1.299
21372WAT      O64357   3.621   1.673   8.556
21372WAT     H164358   3.720   1.666   8.547
21372WAT     H264359   3.593   1.768   8.542
21373WAT      O64360   7.654   7.612   2.653
21373WAT     H164361   7.670   7.655   2.742
21373WAT     H264362   7.593   7.534   2.665
21374WAT      O64363   3.696   3.110   8.076
21374WAT     H164364   3.670   3.018   8.105
21374WAT     H264365   3.691   3.116   7.976
21375WAT      O64366   5.434   1.613   1.452
21375WAT     H164367   5.449   1.517   1.429
21375WAT     H264368   5.470   1.672   1.380
21376WAT      O64369   5.799   6.137   7.459
21376WAT     H164370   5.711   6.099   7.428
21376WAT     H264371   5.785   6.231   7.490
21377WAT      O64372   2.845   1.102   2.443
21377WAT     H164373   2.824   1.084   2.539
21377WAT     H264374   2.927   1.159   2.437
21378WAT      O64375   5.750   2.032   7.865
21378WAT     H164376   5.848   2.020   7.883
21378WAT     H264377   5.727   2.129   7.871
21379WAT      O64378   1.910   2.837   5.394
21379WAT     H164379   1.826   2.825   5.447
21379WAT     H264380   1.971   2.760   5.411
21380WAT      O64381   1.430   0.898   0.232
21380WAT     H164382   1.502   0.958   0.267
21380WAT     H264383   1.424   0.817   0.290
21381WAT      O64384   7.864   2.603   8.050
21381WAT     H164385   7.832   2.614   7.956
21381WAT     H264386   7.850   2.509   8.079
21382WAT      O64387   8.473   8.845   7.917
21382WAT     H164388   8.494   8.857   7.820
21382WAT     H264389   8.483   8.749   7.942
21383WAT      O64390   6.692   5.562   4.772
21383WAT     H164391   6.777   5.584   4.725
21383WAT     H264392   6.712   5.515   4.858
21384WAT      O64393   3.304   0.264   3.912
21384WAT     H164394   3.319   0.253   4.010
21384WAT     H264395   3.326   0.357   3.884
21385WAT      O64396   1.328   4.528   9.126
21385WAT     H164397   1.311   4.502   9.031
21385WAT     H264398   1.425   4.546   9.139
21386WAT      O64399   1.944   6.792   5.837
21386WAT     H164400   2.037   6.797   5.874
21386WAT     H264401   1.880   6.776   5.912
21387WAT      O64402   8.995   5.616   5.035
21387WAT     H164403   9.000   5.638   5.133
21387WAT     H264404   9.035   5.525   5.020
21388WAT      O64405   7.490   2.522   5.664
21388WAT     H164406   7.529   2.439   5.625
21388WAT     H264407   7.428   2.564   5.599
21389WAT      O64408   8.090   5.756   9.763
21389WAT     H164409   8.132   5.714   9.683
21389WAT     H264410   8.096   5.856   9.755
21390WAT      O64411   6.737   3.147   6.988
21390WAT     H164412   6.836   3.131   6.989
21390WAT     H264413   6.695   3.094   7.062
21391WAT      O64414   6.845   4.597   6.929
21391WAT     H164415   6.795   4.515   6.900
21391WAT     H264416   6.780   4.661   6.970
21392WAT      O64417   2.860   2.596   2.439
21392WAT     H164418   2.802   2.589   2.358
21392WAT     H264419   2.956   2.592   2.412
21393WAT      O64420   8.175   1.175   7.196
21393WAT     H164421   8.201   1.219   7.110
21393WAT     H264422   8.076   1.163   7.199
21394WAT      O64423   2.307   7.338   1.051
21394WAT     H164424   2.243   7.304   0.981
21394WAT     H264425   2.337   7.430   1.027
21395WAT      O64426   3.201   5.547   4.563
21395WAT     H164427   3.253   5.607   4.501
21395WAT     H264428   3.156   5.602   4.633
21396WAT      O64429   6.691   3.747   9.135
21396WAT     H164430   6.660   3.823   9.192
21396WAT     H264431   6.661   3.661   9.176
21397WAT      O64432   0.937   1.775   3.686
21397WAT     H164433   0.900   1.755   3.596
21397WAT     H264434   1.023   1.725   3.699
21398WAT      O64435   5.434   8.213   6.750
21398WAT     H164436   5.491   8.153   6.807
21398WAT     H264437   5.492   8.275   6.698
21399WAT      O64438   5.995   1.412   9.171
21399WAT     H164439   6.024   1.507   9.178
21399WAT     H264440   6.073   1.352   9.191
21400WAT      O64441   8.330   0.887   6.041
21400WAT     H164442   8.363   0.930   5.957
21400WAT     H264443   8.366   0.936   6.120
21401WAT      O64444   5.070   0.608   2.862
21401WAT     H164445   5.003   0.683   2.862
21401WAT     H264446   5.022   0.521   2.863
21402WAT      O64447   2.292   1.349   6.947
21402WAT     H164448   2.288   1.252   6.973
21402WAT     H264449   2.200   1.383   6.931
21403WAT      O64450   2.740   8.015   4.252
21403WAT     H164451   2.720   8.113   4.254
21403WAT     H264452   2.838   8.002   4.238
21404WAT      O64453   4.361   0.052   5.824
21404WAT     H164454   4.327   0.013   5.909
21404WAT     H264455   4.450   0.012   5.803
21405WAT      O64456   1.275   5.987   6.417
21405WAT     H164457   1.196   6.009   6.475
21405WAT     H264458   1.244   5.948   6.331
21406WAT      O64459   8.918   7.405   7.699
21406WAT     H164460   8.937   7.493   7.655
21406WAT     H264461   8.854   7.419   7.775
21407WAT      O64462   5.894   3.125   6.143
21407WAT     H164463   5.819   3.181   6.108
21407WAT     H264464   5.870   3.028   6.135
21408WAT      O64465   2.634   2.668   2.921
21408WAT     H164466   2.673   2.654   3.012
21408WAT     H264467   2.699   2.635   2.852
21409WAT      O64468   6.365   0.419   0.876
21409WAT     H164469   6.387   0.366   0.794
21409WAT     H264470   6.272   0.396   0.905
21410WAT      O64471   8.029   4.168   0.362
21410WAT     H164472   7.976   4.149   0.279
21410WAT     H264473   7.970   4.213   0.429
21411WAT      O64474   6.323   6.828   9.129
21411WAT     H164475   6.311   6.916   9.176
21411WAT     H264476   6.240   6.774   9.139
21412WAT      O64477   3.172   7.708   9.852
21412WAT     H164478   3.165   7.708   9.952
21412WAT     H264479   3.101   7.648   9.815
21413WAT      O64480   6.945   7.220   3.053
21413WAT     H164481   7.011   7.146   3.045
21413WAT     H264482   6.860   7.184   3.091
21414WAT      O64483   5.981   6.457   3.057
21414WAT     H164484   5.952   6.552   3.048
21414WAT     H264485   6.081   6.452   3.051
21415WAT      O64486   3.085   2.488   5.045
21415WAT     H164487   3.151   2.473   4.972
21415WAT     H264488   3.098   2.580   5.084
21416WAT      O64489   3.478   6.550   0.249
21416WAT     H164490   3.451   6.542   0.153
21416WAT     H264491   3.438   6.633   0.288
21417WAT      O64492   5.602   8.551   7.553
21417WAT     H164493   5.606   8.527   7.456
21417WAT     H264494   5.547   8.634   7.564
21418WAT      O64495   5.914   2.307   6.017
21418WAT     H164496   5.855   2.388   6.015
21418WAT     H264497   6.007   2.335   5.992
21419WAT      O64498   7.543   0.318   9.622
21419WAT     H164499   7.634   0.310   9.581
21419WAT     H264500   7.550   0.307   9.721
21420WAT      O64501   2.438   7.876   5.957
21420WAT     H164502   2.413   7.943   5.887
21420WAT     H264503   2.369   7.804   5.960
21421WAT      O64504   6.180   4.522   5.925
21421WAT     H164505   6.151   4.560   6.013
21421WAT     H264506   6.215   4.429   5.939
21422WAT      O64507   5.051   3.231   0.930
21422WAT     H164508   5.070   3.196   0.838
21422WAT     H264509   5.006   3.320   0.924
21423WAT      O64510   2.561   4.678   7.587
21423WAT     H164511   2.655   4.675   7.552
21423WAT     H264512   2.538   4.771   7.614
21424WAT      O64513   7.543   9.704   9.148
21424WAT     H164514   7.482   9.666   9.079
21424WAT     H264515   7.490   9.725   9.231
21425WAT      O64516   6.721   1.321   9.603
21425WAT     H164517   6.736   1.226   9.631
21425WAT     H264518   6.750   1.382   9.676
21426WAT      O64519   2.967   6.084   6.543
21426WAT     H164520   2.965   6.064   6.445
21426WAT     H264521   3.060   6.111   6.570
21427WAT      O64522   1.223   7.211   9.669
21427WAT     H164523   1.201   7.115   9.689
21427WAT     H264524   1.179   7.239   9.584
21428WAT      O64525   7.822   0.444   1.846
21428WAT     H164526   7.756   0.509   1.882
21428WAT     H264527   7.900   0.437   1.908
21429WAT      O64528   9.509   0.762   1.492
21429WAT     H164529   9.461   0.734   1.576
21429WAT     H264530   9.510   0.862   1.486
21430WAT      O64531   5.056   4.292   3.527
21430WAT     H164532   4.965   4.257   3.508
21430WAT     H264533   5.050   4.387   3.558
21431WAT      O64534   9.597   0.263   3.529
21431WAT     H164535   9.540   0.248   3.448
21431WAT     H264536   9.541   0.256   3.611
21432WAT      O64537   5.739   3.310   1.630
21432WAT     H164538   5.713   3.252   1.553
21432WAT     H264539   5.839   3.317   1.634
21433WAT      O64540   8.380   0.061   0.923
21433WAT     H164541   8.406   0.013   1.007
21433WAT     H264542   8.445   0.135   0.906
21434WAT      O64543   1.123   7.770   5.412
21434WAT     H164544   1.090   7.715   5.335
21434WAT     H264545   1.086   7.733   5.497
21435WAT      O64546   1.407   7.526   4.382
21435WAT     H164547   1.330   7.577   4.422
21435WAT     H264548   1.395   7.428   4.401
21436WAT      O64549   0.417   3.485   0.617
21436WAT     H164550   0.329   3.450   0.650
21436WAT     H264551   0.401   3.558   0.550
21437WAT      O64552   1.194   8.242   2.660
21437WAT     H164553   1.100   8.229   2.629
21437WAT     H264554   1.228   8.331   2.628
21438WAT      O64555   7.800   1.219   7.807
21438WAT     H164556   7.705   1.252   7.810
21438WAT     H264557   7.861   1.292   7.839
21439WAT      O64558   8.361   8.008   7.537
21439WAT     H164559   8.313   7.923   7.558
21439WAT     H264560   8.368   8.064   7.619
21440WAT      O64561   5.687   7.762   7.658
21440WAT     H164562   5.738   7.691   7.706
21440WAT     H264563   5.682   7.740   7.561
21441WAT      O64564   7.199   9.731   3.147
21441WAT     H164565   7.153   9.733   3.235
21441WAT     H264566   7.278   9.669   3.152
21442WAT      O64567   2.343   3.783   3.748
21442WAT     H164568   2.418   3.843   3.722
21442WAT     H264569   2.361   3.691   3.713
21443WAT      O64570   8.105   5.113   8.346
21443WAT     H164571   8.077   5.018   8.359
21443WAT     H264572   8.092   5.163   8.431
21444WAT      O64573   1.568   5.387   6.779
21444WAT     H164574   1.569   5.424   6.686
21444WAT     H264575   1.647   5.423   6.829
21445WAT      O64576   3.624   1.441   8.020
21445WAT     H164577   3.668   1.483   7.941
21445WAT     H264578   3.680   1.365   8.053
21446WAT      O64579   3.027   1.171   9.842
21446WAT     H164580   2.930   1.145   9.843
21446WAT     H264581   3.054   1.196   9.749
21447WAT      O64582   3.249   7.930   9.683
21447WAT     H164583   3.228   8.022   9.715
21447WAT     H264584   3.232   7.864   9.757
21448WAT      O64585   3.046   7.572   4.454
21448WAT     H164586   2.988   7.539   4.380
21448WAT     H264587   3.054   7.671   4.449
21449WAT      O64588   4.991   9.229   6.344
21449WAT     H164589   4.910   9.180   6.312
21449WAT     H264590   4.964   9.303   6.405
21450WAT      O64591   9.745   2.439   9.655
21450WAT     H164592   9.769   2.536   9.654
21450WAT     H264593   9.807   2.390   9.715
21451WAT      O64594   6.553   7.243   8.025
21451WAT     H164595   6.522   7.158   8.069
21451WAT     H264596   6.619   7.289   8.085
21452WAT      O64597   2.848   7.044   4.856
21452WAT     H164598   2.836   7.046   4.955
21452WAT     H264599   2.943   7.022   4.835
21453WAT      O64600   4.280   1.273   7.536
21453WAT     H164601   4.188   1.285   7.574
21453WAT     H264602   4.344   1.332   7.585
21454WAT      O64603   3.762   6.607   1.731
21454WAT     H164604   3.668   6.572   1.723
21454WAT     H264605   3.780   6.673   1.658
21455WAT      O64606   5.687   1.102   8.502
21455WAT     H164607   5.725   1.184   8.460
21455WAT     H264608   5.700   1.024   8.441
21456WAT      O64609   5.712   8.087   6.411
21456WAT     H164610   5.730   8.031   6.330
21456WAT     H264611   5.772   8.167   6.410
21457WAT      O64612   4.694   4.695   1.836
21457WAT     H164613   4.614   4.638   1.814
21457WAT     H264614   4.698   4.710   1.935
21458WAT      O64615   6.540   0.177   9.350
21458WAT     H164616   6.493   0.121   9.419
21458WAT     H264617   6.500   0.268   9.349
21459WAT      O64618   7.629   1.451   4.132
21459WAT     H164619   7.675   1.464   4.044
21459WAT     H264620   7.691   1.403   4.195
21460WAT      O64621   1.059   3.588   2.523
21460WAT     H164622   0.999   3.666   2.540
21460WAT     H264623   1.110   3.603   2.438
21461WAT      O64624   6.239   8.305   3.371
21461WAT     H164625   6.198   8.355   3.295
21461WAT     H264626   6.337   8.292   3.353
21462WAT      O64627   5.464   0.060   7.261
21462WAT     H164628   5.550   0.009   7.251
21462WAT     H264629   5.419   0.034   7.347
21463WAT      O64630   5.355   9.180   6.786
21463WAT     H164631   5.390   9.271   6.764
21463WAT     H264632   5.320   9.179   6.880
21464WAT      O64633   6.282   4.442   9.456
21464WAT     H164634   6.327   4.498   9.526
21464WAT     H264635   6.301   4.482   9.366
21465WAT      O64636   7.355   8.963   0.722
21465WAT     H164637   7.319   9.055   0.705
21465WAT     H264638   7.453   8.969   0.742
21466WAT      O64639   9.046   4.456   6.539
21466WAT     H164640   9.062   4.494   6.448
21466WAT     H264641   9.116   4.388   6.559
21467WAT      O64642   2.709   0.708   9.594
21467WAT     H164643   2.669   0.682   9.507
21467WAT     H264644   2.637   0.724   9.661
21468WAT      O64645   7.965   1.423   4.484
21468WAT     H164646   7.944   1.372   4.401
21468WAT     H264647   7.930   1.517   4.474
21469WAT      O64648   8.525   8.903   6.764
21469WAT     H164649   8.473   8.985   6.784
21469WAT     H264650   8.570   8.913   6.675
21470WAT      O64651   8.084   7.351   1.471
21470WAT     H164652   8.012   7.321   1.409
21470WAT     H264653   8.149   7.408   1.421
21471WAT      O64654   4.597   5.454   3.402
21471WAT     H164655   4.554   5.413   3.483
21471WAT     H264656   4.576   5.398   3.322
21472WAT      O64657   3.158   4.903   0.913
21472WAT     H164658   3.080   4.947   0.867
21472WAT     H264659   3.126   4.852   0.992
21473WAT      O64660   3.344   5.674   0.569
21473WAT     H164661   3.281   5.701   0.496
21473WAT     H264662   3.363   5.753   0.627
21474WAT      O64663   7.129   0.614   6.853
21474WAT     H164664   7.191   0.661   6.790
21474WAT     H264665   7.050   0.580   6.803
21475WAT      O64666   1.536   2.259   6.534
21475WAT     H164667   1.563   2.184   6.472
21475WAT     H264668   1.437   2.273   6.526
21476WAT      O64669   1.855   7.777   1.489
21476WAT     H164670   1.955   7.778   1.483
21476WAT     H264671   1.817   7.813   1.404
21477WAT      O64672   9.342   8.990   9.866
21477WAT     H164673   9.245   9.013   9.864
21477WAT     H264674   9.354   8.898   9.904
21478WAT      O64675   6.767   9.024   9.678
21478WAT     H164676   6.803   9.111   9.645
21478WAT     H264677   6.723   9.038   9.767
21479WAT      O64678   0.115   2.386   8.966
21479WAT     H164679   0.133   2.442   8.885
21479WAT     H264680   0.105   2.290   8.939
21480WAT      O64681   2.963   6.775   5.345
21480WAT     H164682   3.038   6.744   5.286
21480WAT     H264683   2.965   6.723   5.431
21481WAT      O64684   4.689   0.591   1.210
21481WAT     H164685   4.762   0.557   1.151
21481WAT     H264686   4.644   0.668   1.166
21482WAT      O64687   0.805   2.056   1.106
21482WAT     H164688   0.838   2.114   1.180
21482WAT     H264689   0.764   1.973   1.145
21483WAT      O64690   3.298   7.376   4.712
21483WAT     H164691   3.222   7.427   4.751
21483WAT     H264692   3.322   7.300   4.773
21484WAT      O64693   5.369   6.263   2.075
21484WAT     H164694   5.327   6.229   2.159
21484WAT     H264695   5.336   6.355   2.056
21485WAT      O64696   3.785   0.570   0.445
21485WAT     H164697   3.819   0.559   0.538
21485WAT     H264698   3.766   0.480   0.405
21486WAT      O64699   1.966   4.559   2.677
21486WAT     H164700   2.058   4.555   2.639
21486WAT     H264701   1.903   4.508   2.619
21487WAT      O64702   1.453   1.087   6.692
21487WAT     H164703   1.490   1.004   6.735
21487WAT     H264704   1.521   1.160   6.697
21488WAT      O64705   3.287   8.819   6.717
21488WAT     H164706   3.244   8.730   6.703
21488WAT     H264707   3.256   8.882   6.646
21489WAT      O64708   7.648   7.286   8.394
21489WAT     H164709   7.715   7.242   8.334
21489WAT     H264710   7.646   7.239   8.482
21490WAT      O64711   7.239   9.463   1.286
21490WAT     H164712   7.192   9.493   1.369
21490WAT     H264713   7.300   9.387   1.309
21491WAT      O64714   9.326   2.511   5.262
21491WAT     H164715   9.341   2.522   5.361
21491WAT     H264716   9.415   2.506   5.216
21492WAT      O64717   5.018   4.294   4.236
21492WAT     H164718   5.005   4.364   4.165
21492WAT     H264719   4.990   4.331   4.324
21493WAT      O64720   5.837   6.387   9.668
21493WAT     H164721   5.891   6.468   9.646
21493WAT     H264722   5.857   6.314   9.602
21494WAT      O64723   6.493   2.633   3.877
21494WAT     H164724   6.463   2.539   3.864
21494WAT     H264725   6.514   2.674   3.787
21495WAT      O64726   9.255   5.364   9.138
21495WAT     H164727   9.257   5.458   9.171
21495WAT     H264728   9.186   5.312   9.190
21496WAT      O64729   8.062   6.634  -0.001
21496WAT     H164730   8.149   6.680  -0.019
21496WAT     H264731   8.043   6.636   0.098
21497WAT      O64732   3.930   1.013   8.029
21497WAT     H164733   4.000   1.051   8.090
21497WAT     H264734   3.839   1.028   8.068
21498WAT      O64735   8.758   5.975   7.630
21498WAT     H164736   8.727   5.886   7.597
21498WAT     H264737   8.689   6.013   7.691
21499WAT      O64738   4.979   7.021   5.059
21499WAT     H164739   4.938   7.100   5.104
21499WAT     H264740   4.961   7.025   4.960
21500WAT      O64741   0.461   5.535   7.465
21500WAT     H164742   0.362   5.544   7.464
21500WAT     H264743   0.486   5.439   7.481
21501WAT      O64744   9.003   9.814   2.527
21501WAT     H164745   8.939   9.881   2.489
21501WAT     H264746   9.094   9.831   2.490
21502WAT      O64747   7.570   7.475   0.318
21502WAT     H164748   7.664   7.456   0.290
21502WAT     H264749   7.570   7.526   0.404
21503WAT      O64750   7.227   2.625   0.568
21503WAT     H164751   7.253   2.529   0.573
21503WAT     H264752   7.307   2.680   0.542
21504WAT      O64753   0.927   1.644   8.585
21504WAT     H164754   0.855   1.697   8.629
21504WAT     H264755   0.889   1.558   8.549
21505WAT      O64756   8.958   5.354   8.596
21505WAT     H164757   9.052   5.326   8.577
21505WAT     H264758   8.924   5.410   8.520
21506WAT      O64759   1.998   4.469   4.149
21506WAT     H164760   2.003   4.393   4.084
21506WAT     H264761   1.920   4.527   4.126
21507WAT      O64762   1.202   5.991   7.221
21507WAT     H164763   1.269   6.000   7.148
21507WAT     H264764   1.135   5.921   7.196
21508WAT      O64765   6.395   2.211   8.582
21508WAT     H164766   6.375   2.287   8.644
21508WAT     H264767   6.390   2.244   8.487
21509WAT      O64768   7.814   3.005   3.498
21509WAT     H164769   7.782   2.930   3.556
21509WAT     H264770   7.747   3.022   3.426
21510WAT      O64771   1.890   0.753   1.705
21510WAT     H164772   1.796   0.778   1.682
21510WAT     H264773   1.953   0.812   1.656
21511WAT      O64774   0.172   8.809   2.525
21511WAT     H164775   0.101   8.762   2.471
21511WAT     H264776   0.142   8.902   2.544
21512WAT      O64777   7.143   7.615   1.492
21512WAT     H164778   7.164   7.546   1.561
21512WAT     H264779   7.137   7.572   1.402
21513WAT      O64780   8.414   0.052   2.694
21513WAT     H164781   8.395   0.035   2.598
21513WAT     H264782   8.383   0.144   2.719
21514WAT      O64783   4.610   5.184   6.418
21514WAT     H164784   4.572   5.276   6.408
21514WAT     H264785   4.537   5.121   6.446
21515WAT      O64786   1.216   1.330   5.691
21515WAT     H164787   1.256   1.335   5.600
21515WAT     H264788   1.188   1.236   5.711
21516WAT      O64789   1.021   1.743   9.838
21516WAT     H164790   1.014   1.735   9.938
21516WAT     H264791   1.014   1.652   9.798
21517WAT      O64792   4.008   4.228   3.295
21517WAT     H164793   4.084   4.285   3.265
21517WAT     H264794   3.991   4.157   3.227
21518WAT      O64795   7.100   5.940   0.777
21518WAT     H164796   7.024   5.937   0.843
21518WAT     H264797   7.154   6.022   0.792
21519WAT      O64798   5.912   8.857   9.484
21519WAT     H164799   5.950   8.927   9.423
21519WAT     H264800   5.930   8.767   9.445
21520WAT      O64801   1.894   1.667   0.071
21520WAT     H164802   1.934   1.718   0.146
21520WAT     H264803   1.907   1.569   0.087
21521WAT      O64804   8.738   3.906   6.002
21521WAT     H164805   8.803   3.982   5.991
21521WAT     H264806   8.788   3.820   6.006
21522WAT      O64807   9.511   0.840   0.353
21522WAT     H164808   9.545   0.892   0.431
21522WAT     H264809   9.445   0.896   0.303
21523WAT      O64810   4.294   9.675   5.219
21523WAT     H164811   4.332   9.757   5.260
21523WAT     H264812   4.302   9.599   5.283
21524WAT      O64813   5.505   6.521   0.408
21524WAT     H164814   5.438   6.448   0.420
21524WAT     H264815   5.570   6.520   0.484
21525WAT      O64816   8.367   4.629   2.489
21525WAT     H164817   8.368   4.529   2.491
21525WAT     H264818   8.419   4.661   2.410
21526WAT      O64819   1.143   3.652   2.248
21526WAT     H164820   1.070   3.711   2.215
21526WAT     H264821   1.122   3.557   2.225
21527WAT      O64822   3.733   2.482   5.978
21527WAT     H164823   3.795   2.485   6.057
21527WAT     H264824   3.773   2.533   5.902
21528WAT      O64825   7.286   1.453   7.672
21528WAT     H164826   7.203   1.508   7.682
21528WAT     H264827   7.262   1.361   7.643
21529WAT      O64828   3.057   5.207   0.568
21529WAT     H164829   3.145   5.234   0.529
21529WAT     H264830   3.002   5.288   0.587
21530WAT      O64831   5.265   0.681   5.382
21530WAT     H164832   5.183   0.722   5.422
21530WAT     H264833   5.304   0.615   5.446
21531WAT      O64834   8.494   9.066   3.524
21531WAT     H164835   8.423   9.068   3.453
21531WAT     H264836   8.562   9.136   3.505
21532WAT      O64837   1.043   6.862   1.558
21532WAT     H164838   1.094   6.864   1.644
21532WAT     H264839   0.971   6.793   1.563
21533WAT      O64840   5.212   6.512   6.360
21533WAT     H164841   5.119   6.524   6.395
21533WAT     H264842   5.236   6.415   6.362
21534WAT      O64843   6.000   2.611   6.334
21534WAT     H164844   5.915   2.602   6.385
21534WAT     H264845   6.070   2.652   6.393
21535WAT      O64846   1.815   4.142   7.140
21535WAT     H164847   1.907   4.106   7.147
21535WAT     H264848   1.812   4.235   7.178
21536WAT      O64849   4.304   6.400   4.161
21536WAT     H164850   4.284   6.313   4.116
21536WAT     H264851   4.390   6.437   4.127
21537WAT      O64852   2.241   4.894   2.769
21537WAT     H164853   2.239   4.839   2.685
21537WAT     H264854   2.187   4.848   2.840
21538WAT      O64855   2.663   8.538   9.348
21538WAT     H164856   2.581   8.493   9.312
21538WAT     H264857   2.671   8.519   9.446
21539WAT      O64858   4.914   7.460   6.999
21539WAT     H164859   4.952   7.506   7.079
21539WAT     H264860   4.984   7.401   6.959
21540WAT      O64861   1.240   4.107   8.029
21540WAT     H164862   1.230   4.104   8.128
21540WAT     H264863   1.284   4.193   8.003
21541WAT      O64864   5.575   5.758   8.285
21541WAT     H164865   5.500   5.709   8.242
21541WAT     H264866   5.578   5.735   8.383
21542WAT      O64867   7.084   1.586   2.706
21542WAT     H164868   7.020   1.661   2.725
21542WAT     H264869   7.165   1.595   2.764
21543WAT      O64870   1.860   4.663   6.431
21543WAT     H164871   1.826   4.668   6.337
21543WAT     H264872   1.928   4.734   6.446
21544WAT      O64873   5.502   5.786   7.552
21544WAT     H164874   5.471   5.855   7.617
21544WAT     H264875   5.424   5.751   7.500
21545WAT      O64876   2.760   0.880   3.399
21545WAT     H164877   2.754   0.899   3.497
21545WAT     H264878   2.856   0.875   3.373
21546WAT      O64879   3.647   8.550   9.749
21546WAT     H164880   3.688   8.635   9.782
21546WAT     H264881   3.719   8.487   9.721
21547WAT      O64882   2.915   9.338   3.782
21547WAT     H164883   2.938   9.305   3.691
21547WAT     H264884   2.821   9.313   3.804
21548WAT      O64885   3.620   6.251   1.392
21548WAT     H164886   3.595   6.186   1.320
21548WAT     H264887   3.538   6.302   1.419
21549WAT      O64888   8.443   6.823   5.203
21549WAT     H164889   8.354   6.866   5.187
21549WAT     H264890   8.497   6.826   5.119
21550WAT      O64891   2.294   2.098   4.657
21550WAT     H164892   2.221   2.056   4.711
21550WAT     H264893   2.265   2.106   4.562
21551WAT      O64894   4.997   5.979   9.076
21551WAT     H164895   4.990   6.043   8.999
21551WAT     H264896   4.912   5.927   9.082
21552WAT      O64897   6.029   4.646   9.496
21552WAT     H164898   6.129   4.652   9.490
21552WAT     H264899   6.002   4.552   9.515
21553WAT      O64900   7.668   0.493   6.767
21553WAT     H164901   7.723   0.438   6.704
21553WAT     H264902   7.663   0.587   6.734
21554WAT      O64903   4.487   5.474   2.948
21554WAT     H164904   4.472   5.413   3.026
21554WAT     H264905   4.498   5.420   2.865
21555WAT      O64906   4.241   9.761   4.768
21555WAT     H164907   4.208   9.791   4.858
21555WAT     H264908   4.260   9.663   4.770
21556WAT      O64909   7.152   4.918   0.088
21556WAT     H164910   7.223   4.984   0.112
21556WAT     H264911   7.184   4.826   0.108
21557WAT      O64912   1.633   8.700   1.057
21557WAT     H164913   1.554   8.748   1.020
21557WAT     H264914   1.623   8.602   1.042
21558WAT      O64915   3.680   9.721   9.777
21558WAT     H164916   3.631   9.714   9.863
21558WAT     H264917   3.648   9.650   9.714
21559WAT      O64918   4.566   1.547   1.473
21559WAT     H164919   4.479   1.573   1.432
21559WAT     H264920   4.622   1.629   1.486
21560WAT      O64921   6.083   4.781   2.524
21560WAT     H164922   6.139   4.698   2.531
21560WAT     H264923   6.075   4.824   2.614
21561WAT      O64924   5.622   9.316   5.522
21561WAT     H164925   5.689   9.269   5.579
21561WAT     H264926   5.650   9.412   5.509
21562WAT      O64927   7.520   9.521   1.099
21562WAT     H164928   7.564   9.439   1.137
21562WAT     H264929   7.503   9.587   1.172
21563WAT      O64930   8.767   9.013   6.381
21563WAT     H164931   8.685   9.037   6.434
21563WAT     H264932   8.754   8.923   6.339
21564WAT      O64933   3.176   0.045   8.430
21564WAT     H164934   3.269   0.060   8.463
21564WAT     H264935   3.171   0.065   8.333
21565WAT      O64936   0.171   8.939   8.848
21565WAT     H164937   0.157   9.036   8.869
21565WAT     H264938   0.268   8.920   8.840
21566WAT      O64939   0.182   8.396   7.874
21566WAT     H164940   0.269   8.385   7.826
21566WAT     H264941   0.109   8.415   7.808
21567WAT      O64942   3.566   5.778   8.266
21567WAT     H164943   3.661   5.801   8.285
21567WAT     H264944   3.522   5.855   8.220
21568WAT      O64945   6.412   6.407   5.425
21568WAT     H164946   6.431   6.494   5.381
21568WAT     H264947   6.497   6.371   5.465
21569WAT      O64948   8.481   5.274   0.591
21569WAT     H164949   8.580   5.275   0.600
21569WAT     H264950   8.452   5.349   0.531
21570WAT      O64951   1.769   7.081   5.857
21570WAT     H164952   1.831   7.010   5.826
21570WAT     H264953   1.777   7.161   5.798
21571WAT      O64954   7.346   2.494   2.091
21571WAT     H164955   7.290   2.540   2.160
21571WAT     H264956   7.334   2.539   2.003
21572WAT      O64957   2.480   9.654   3.127
21572WAT     H164958   2.537   9.658   3.209
21572WAT     H264959   2.500   9.570   3.077
21573WAT      O64960   1.466   3.537   2.490
21573WAT     H164961   1.448   3.610   2.424
21573WAT     H264962   1.437   3.449   2.452
21574WAT      O64963   1.975   2.534   7.276
21574WAT     H164964   1.929   2.500   7.195
21574WAT     H264965   1.975   2.464   7.347
21575WAT      O64966   9.502   2.018   4.791
21575WAT     H164967   9.581   1.960   4.775
21575WAT     H264968   9.520   2.079   4.867
21576WAT      O64969   4.590   2.178   2.844
21576WAT     H164970   4.616   2.256   2.901
21576WAT     H264971   4.497   2.193   2.809
21577WAT      O64972   6.093   4.196   4.071
21577WAT     H164973   6.011   4.178   4.126
21577WAT     H264974   6.150   4.114   4.070
21578WAT      O64975   9.349   9.311   1.025
21578WAT     H164976   9.323   9.396   1.071
21578WAT     H264977   9.298   9.302   0.939
21579WAT      O64978   1.908   8.759   1.664
21579WAT     H164979   1.865   8.669   1.654
21579WAT     H264980   1.961   8.780   1.582
21580WAT      O64981   0.544   0.101   4.207
21580WAT     H164982   0.602   0.121   4.128
21580WAT     H264983   0.596   0.047   4.274
21581WAT      O64984   1.587   9.052   5.383
21581WAT     H164985   1.505   9.010   5.343
21581WAT     H264986   1.582   9.047   5.482
21582WAT      O64987   6.484   7.972   0.924
21582WAT     H164988   6.506   7.980   0.827
21582WAT     H264989   6.467   7.876   0.947
21583WAT      O64990   3.562   9.750   0.120
21583WAT     H164991   3.512   9.713   0.198
21583WAT     H264992   3.519   9.835   0.090
21584WAT      O64993   5.283   9.609   3.458
21584WAT     H164994   5.215   9.682   3.460
21584WAT     H264995   5.243   9.528   3.415
21585WAT      O64996   2.925   7.262   5.551
21585WAT     H164997   2.966   7.340   5.599
21585WAT     H264998   2.856   7.220   5.609
21586WAT      O64999   1.764   7.859   8.314
21586WAT     H165000   1.797   7.788   8.251
21586WAT     H265001   1.832   7.874   8.386
21587WAT      O65002   7.373   9.492   0.875
21587WAT     H165003   7.435   9.505   0.952
21587WAT     H265004   7.394   9.558   0.803
21588WAT      O65005   9.034   8.662   4.886
21588WAT     H165006   9.039   8.588   4.952
21588WAT     H265007   8.948   8.712   4.896
21589WAT      O65008   4.778   4.331   9.516
21589WAT     H165009   4.695   4.283   9.543
21589WAT     H265010   4.754   4.411   9.460
21590WAT      O65011   1.990   6.773   4.250
21590WAT     H165012   1.893   6.798   4.241
21590WAT     H265013   2.021   6.794   4.342
21591WAT      O65014   6.305   2.211   4.990
21591WAT     H165015   6.277   2.302   5.019
21591WAT     H265016   6.234   2.145   5.015
21592WAT      O65017   8.048   9.284   9.761
21592WAT     H165018   8.047   9.316   9.856
21592WAT     H265019   8.002   9.196   9.755
21593WAT      O65020   4.372   5.603   8.667
21593WAT     H165021   4.322   5.626   8.583
21593WAT     H265022   4.332   5.522   8.709
21594WAT      O65023   2.595   9.129   6.443
21594WAT     H165024   2.532   9.081   6.381
21594WAT     H265025   2.571   9.226   6.447
21595WAT      O65026   1.299   9.412   8.342
21595WAT     H165027   1.293   9.372   8.433
21595WAT     H265028   1.395   9.423   8.317
21596WAT      O65029   3.740   3.729   4.435
21596WAT     H165030   3.747   3.828   4.433
21596WAT     H265031   3.823   3.688   4.398
21597WAT      O65032   8.538   5.311   9.716
21597WAT     H165033   8.549   5.271   9.807
21597WAT     H265034   8.536   5.237   9.648
21598WAT      O65035   6.691   8.643   6.367
21598WAT     H165036   6.677   8.594   6.281
21598WAT     H265037   6.622   8.617   6.433
21599WAT      O65038   7.382   7.356   2.297
21599WAT     H165039   7.469   7.402   2.314
21599WAT     H265040   7.346   7.385   2.208
21600WAT      O65041   6.941   9.522   3.303
21600WAT     H165042   7.013   9.491   3.241
21600WAT     H265043   6.861   9.552   3.250
21601WAT      O65044   2.921   2.071   8.159
21601WAT     H165045   2.943   2.169   8.161
21601WAT     H265046   2.892   2.046   8.066
21602WAT      O65047   8.585   9.367   7.202
21602WAT     H165048   8.503   9.411   7.238
21602WAT     H265049   8.666   9.401   7.250
21603WAT      O65050   1.590   3.173   8.520
21603WAT     H165051   1.642   3.088   8.509
21603WAT     H265052   1.506   3.168   8.466
21604WAT      O65053   7.702   6.676   0.199
21604WAT     H165054   7.766   6.603   0.173
21604WAT     H265055   7.608   6.643   0.190
21605WAT      O65056   9.161   7.936   7.447
21605WAT     H165057   9.220   7.895   7.377
21605WAT     H265058   9.209   7.935   7.535
21606WAT      O65059   7.689   7.939   0.655
21606WAT     H165060   7.692   8.016   0.719
21606WAT     H265061   7.595   7.904   0.649
21607WAT      O65062   7.289   7.332   5.820
21607WAT     H165063   7.198   7.295   5.803
21607WAT     H265064   7.296   7.424   5.781
21608WAT      O65065   1.556   2.944   8.772
21608WAT     H165066   1.612   2.951   8.690
21608WAT     H265067   1.591   2.871   8.830
21609WAT      O65068   8.131   0.073   4.649
21609WAT     H165069   8.130   0.151   4.587
21609WAT     H265070   8.174   0.100   4.736
21610WAT      O65071   8.010   7.420   0.557
21610WAT     H165072   8.059   7.348   0.508
21610WAT     H265073   8.073   7.494   0.581
21611WAT      O65074   9.229   2.125   2.682
21611WAT     H165075   9.296   2.132   2.755
21611WAT     H265076   9.190   2.033   2.681
21612WAT      O65077   1.291   7.023   9.298
21612WAT     H165078   1.234   7.096   9.336
21612WAT     H265079   1.335   6.972   9.372
21613WAT      O65080   3.033   8.628   3.655
21613WAT     H165081   3.072   8.543   3.690
21613WAT     H265082   2.964   8.662   3.719
21614WAT      O65083   0.967   6.119   4.411
21614WAT     H165084   1.007   6.172   4.485
21614WAT     H265085   0.971   6.172   4.326
21615WAT      O65086   0.507   0.318   6.773
21615WAT     H165087   0.439   0.249   6.799
21615WAT     H265088   0.466   0.385   6.712
21616WAT      O65089   6.155   9.457   6.574
21616WAT     H165090   6.230   9.484   6.634
21616WAT     H265091   6.069   9.456   6.625
21617WAT      O65092   5.706   6.771   7.168
21617WAT     H165093   5.665   6.691   7.123
21617WAT     H265094   5.707   6.848   7.104
21618WAT      O65095   2.055   5.889   4.106
21618WAT     H165096   2.121   5.896   4.180
21618WAT     H265097   1.997   5.970   4.104
21619WAT      O65098   3.671   3.931   2.558
21619WAT     H165099   3.626   3.987   2.489
21619WAT     H265100   3.716   3.991   2.625
21620WAT      O65101   0.606   0.017   1.154
21620WAT     H165102   0.561  -0.023   1.074
21620WAT     H265103   0.705   0.015   1.142
21621WAT      O65104   1.745   1.313   8.610
21621WAT     H165105   1.797   1.314   8.695
21621WAT     H265106   1.649   1.333   8.628
21622WAT      O65107   5.258   3.173   5.239
21622WAT     H165108   5.211   3.086   5.222
21622WAT     H265109   5.344   3.154   5.286
21623WAT      O65110   8.320   5.393   4.096
21623WAT     H165111   8.321   5.435   4.186
21623WAT     H265112   8.409   5.403   4.053
21624WAT      O65113   8.331   4.205   4.501
21624WAT     H165114   8.343   4.106   4.496
21624WAT     H265115   8.331   4.234   4.596
21625WAT      O65116   7.102   6.510   5.798
21625WAT     H165117   7.148   6.561   5.725
21625WAT     H265118   7.019   6.560   5.826
21626WAT      O65119   1.058   5.648   0.392
21626WAT     H165120   1.109   5.573   0.349
21626WAT     H265121   1.035   5.623   0.485
21627WAT      O65122   5.539   2.309   5.104
21627WAT     H165123   5.576   2.236   5.047
21627WAT     H265124   5.570   2.298   5.198
21628WAT      O65125   0.368   6.968   7.399
21628WAT     H165126   0.358   6.962   7.499
21628WAT     H265127   0.300   7.033   7.363
21629WAT      O65128   8.425   2.674   8.310
21629WAT     H165129   8.516   2.693   8.275
21629WAT     H265130   8.431   2.614   8.389
21630WAT      O65131   3.768   7.916   1.707
21630WAT     H165132   3.705   7.994   1.707
21630WAT     H265133   3.769   7.873   1.617
21631WAT      O65134   1.714   7.788   0.839
21631WAT     H165135   1.686   7.881   0.862
21631WAT     H265136   1.802   7.791   0.791
21632WAT      O65137   3.773   5.884   1.333
21632WAT     H165138   3.736   5.928   1.415
21632WAT     H265139   3.869   5.909   1.323
21633WAT      O65140   2.065   9.818   7.339
21633WAT     H165141   2.157   9.806   7.303
21633WAT     H265142   2.030   9.908   7.312
21634WAT      O65143   3.490   9.133   3.805
21634WAT     H165144   3.542   9.047   3.807
21634WAT     H265145   3.437   9.137   3.721
21635WAT      O65146   6.895   6.168   2.482
21635WAT     H165147   6.894   6.107   2.561
21635WAT     H265148   6.838   6.129   2.410
21636WAT      O65149   0.561   1.154   0.213
21636WAT     H165150   0.603   1.073   0.253
21636WAT     H265151   0.531   1.134   0.119
21637WAT      O65152   4.261   2.891   7.724
21637WAT     H165153   4.251   2.976   7.776
21637WAT     H265154   4.320   2.907   7.645
21638WAT      O65155   6.571   4.655   9.835
21638WAT     H165156   6.668   4.678   9.822
21638WAT     H265157   6.534   4.711   9.909
21639WAT      O65158   2.387   3.660   7.759
21639WAT     H165159   2.371   3.678   7.857
21639WAT     H265160   2.323   3.714   7.705
21640WAT      O65161   3.294   3.191   1.655
21640WAT     H165162   3.321   3.225   1.565
21640WAT     H265163   3.373   3.195   1.717
21641WAT      O65164   9.425   5.926   9.013
21641WAT     H165165   9.346   5.908   8.955
21641WAT     H265166   9.478   6.002   8.975
21642WAT      O65167   4.937   4.799   1.741
21642WAT     H165168   4.864   4.733   1.758
21642WAT     H265169   4.913   4.857   1.664
21643WAT      O65170   0.480   1.509   8.977
21643WAT     H165171   0.554   1.576   8.974
21643WAT     H265172   0.480   1.463   9.066
21644WAT      O65173   4.519   1.634   4.868
21644WAT     H165174   4.571   1.694   4.929
21644WAT     H265175   4.422   1.659   4.871
21645WAT      O65176   0.632   6.628   6.182
21645WAT     H165177   0.693   6.548   6.181
21645WAT     H265178   0.642   6.676   6.269
21646WAT      O65179   2.436   7.102   1.428
21646WAT     H165180   2.353   7.091   1.483
21646WAT     H265181   2.457   7.015   1.383
21647WAT      O65182   8.447   2.735   3.703
21647WAT     H165183   8.430   2.664   3.771
21647WAT     H265184   8.367   2.796   3.698
21648WAT      O65185   3.052   7.141   6.475
21648WAT     H165186   3.105   7.069   6.521
21648WAT     H265187   3.109   7.186   6.407
21649WAT      O65188   4.852   6.786   3.084
21649WAT     H165189   4.906   6.703   3.073
21649WAT     H265190   4.903   6.852   3.139
21650WAT      O65191   0.031   3.714   3.749
21650WAT     H165192   0.008   3.624   3.712
21650WAT     H265193   0.074   3.769   3.678
21651WAT      O65194   6.730   6.306   5.463
21651WAT     H165195   6.811   6.308   5.521
21651WAT     H265196   6.716   6.214   5.427
21652WAT      O65197   6.137   9.369   0.076
21652WAT     H165198   6.155   9.272   0.060
21652WAT     H265199   6.075   9.379   0.155
21653WAT      O65200   2.614   3.952   3.438
21653WAT     H165201   2.645   3.980   3.348
21653WAT     H265202   2.558   4.025   3.479
21654WAT      O65203   5.476   8.787   7.805
21654WAT     H165204   5.453   8.803   7.709
21654WAT     H265205   5.509   8.693   7.816
21655WAT      O65206   4.110   1.386   3.072
21655WAT     H165207   4.114   1.296   3.030
21655WAT     H265208   4.192   1.401   3.127
21656WAT      O65209   7.668   7.206   1.421
21656WAT     H165210   7.580   7.229   1.462
21656WAT     H265211   7.740   7.218   1.489
21657WAT      O65212   2.597   8.113   3.008
21657WAT     H165213   2.546   8.051   3.068
21657WAT     H265214   2.598   8.205   3.049
21658WAT      O65215   1.649   0.742   7.013
21658WAT     H165216   1.724   0.803   6.989
21658WAT     H265217   1.643   0.668   6.947
21659WAT      O65218   6.683   3.697   8.406
21659WAT     H165219   6.659   3.663   8.497
21659WAT     H265220   6.724   3.788   8.414
21660WAT      O65221   6.704   7.396   8.239
21660WAT     H165222   6.788   7.399   8.295
21660WAT     H265223   6.627   7.427   8.294
21661WAT      O65224   9.784   3.031   1.898
21661WAT     H165225   9.760   2.981   1.815
21661WAT     H265226   9.884   3.034   1.908
21662WAT      O65227   4.498   8.213   8.102
21662WAT     H165228   4.515   8.237   8.006
21662WAT     H265229   4.531   8.120   8.119
21663WAT      O65230   3.168   9.739   6.873
21663WAT     H165231   3.117   9.770   6.793
21663WAT     H265232   3.140   9.646   6.896
21664WAT      O65233   1.283   7.241   8.332
21664WAT     H165234   1.187   7.230   8.360
21664WAT     H265235   1.320   7.324   8.372
21665WAT      O65236   8.203   0.401   0.753
21665WAT     H165237   8.184   0.455   0.835
21665WAT     H265238   8.288   0.433   0.711
21666WAT      O65239   7.035   2.298   7.331
21666WAT     H165240   7.042   2.379   7.389
21666WAT     H265241   6.950   2.302   7.279
21667WAT      O65242   5.430   7.214   2.426
21667WAT     H165243   5.353   7.278   2.434
21667WAT     H265244   5.409   7.131   2.478
21668WAT      O65245   6.416   6.738   4.978
21668WAT     H165246   6.487   6.795   4.936
21668WAT     H265247   6.366   6.690   4.906
21669WAT      O65248   6.177   2.897   5.163
21669WAT     H165249   6.224   2.900   5.075
21669WAT     H265250   6.080   2.882   5.149
21670WAT      O65251   2.535   4.956   0.531
21670WAT     H165252   2.595   5.017   0.480
21670WAT     H265253   2.544   4.863   0.496
21671WAT      O65254   9.100   7.310   5.009
21671WAT     H165255   9.108   7.218   4.971
21671WAT     H265256   9.004   7.332   5.022
21672WAT      O65257   3.409   4.299   3.174
21672WAT     H165258   3.492   4.273   3.223
21672WAT     H265259   3.346   4.222   3.173
21673WAT      O65260   6.086   4.629   7.394
21673WAT     H165261   6.137   4.591   7.471
21673WAT     H265262   6.021   4.698   7.427
21674WAT      O65263   0.081   6.431   6.789
21674WAT     H165264   0.102   6.335   6.774
21674WAT     H265265  -0.016   6.441   6.813
21675WAT      O65266   0.363   8.749   0.348
21675WAT     H165267   0.266   8.729   0.359
21675WAT     H265268   0.383   8.766   0.252
21676WAT      O65269   7.524   8.081   1.888
21676WAT     H165270   7.471   8.159   1.920
21676WAT     H265271   7.520   8.076   1.788
21677WAT      O65272   6.876   0.816   0.196
21677WAT     H165273   6.788   0.838   0.239
21677WAT     H265274   6.949   0.819   0.265
21678WAT      O65275   4.706   7.099   1.414
21678WAT     H165276   4.640   7.087   1.488
21678WAT     H265277   4.682   7.179   1.360
21679WAT      O65278   0.070   0.830   9.811
21679WAT     H165279  -0.015   0.846   9.761
21679WAT     H265280   0.128   0.912   9.804
21680WAT      O65281   6.162   5.381   1.159
21680WAT     H165282   6.249   5.418   1.125
21680WAT     H265283   6.179   5.303   1.218
21681WAT      O65284   4.253   7.635   5.745
21681WAT     H165285   4.211   7.621   5.834
21681WAT     H265286   4.222   7.565   5.681
21682WAT      O65287   9.044   8.595   5.272
21682WAT     H165288   8.949   8.618   5.295
21682WAT     H265289   9.045   8.543   5.186
21683WAT      O65290   0.696   2.450   3.093
21683WAT     H165291   0.609   2.469   3.047
21683WAT     H265292   0.725   2.531   3.144
21684WAT      O65293   1.628   0.651   5.642
21684WAT     H165294   1.684   0.569   5.656
21684WAT     H265295   1.664   0.725   5.698
21685WAT      O65296   8.780   3.150   0.032
21685WAT     H165297   8.714   3.121  -0.037
21685WAT     H265298   8.872   3.128   0.002
21686WAT      O65299   8.434   9.633   3.620
21686WAT     H165300   8.342   9.645   3.656
21686WAT     H265301   8.500   9.631   3.695
21687WAT      O65302   6.083   0.336   5.659
21687WAT     H165303   6.120   0.245   5.639
21687WAT     H265304   6.107   0.399   5.585
21688WAT      O65305   9.460   9.495   5.079
21688WAT     H165306   9.536   9.446   5.122
21688WAT     H265307   9.445   9.459   4.987
21689WAT      O65308   0.055   1.366   1.575
21689WAT     H165309   0.101   1.409   1.497
21689WAT     H265310  -0.007   1.295   1.543
21690WAT      O65311   3.787   8.551   6.858
21690WAT     H165312   3.839   8.500   6.790
21690WAT     H265313   3.843   8.626   6.894
21691WAT      O65314   1.454   4.141   0.646
21691WAT     H165315   1.479   4.045   0.636
21691WAT     H265316   1.385   4.165   0.577
21692WAT      O65317   3.202   5.309   5.722
21692WAT     H165318   3.128   5.306   5.655
21692WAT     H265319   3.181   5.246   5.798
21693WAT      O65320   0.106   0.156   9.303
21693WAT     H165321   0.075   0.250   9.290
21693WAT     H265322   0.192   0.142   9.255
21694WAT      O65323   8.501   2.014   9.344
21694WAT     H165324   8.518   2.075   9.267
21694WAT     H265325   8.403   2.006   9.360
21695WAT      O65326   3.211   9.802   2.118
21695WAT     H165327   3.189   9.888   2.164
21695WAT     H265328   3.310   9.789   2.118
21696WAT      O65329   9.416   4.573   9.347
21696WAT     H165330   9.429   4.474   9.357
21696WAT     H265331   9.429   4.599   9.252
21697WAT      O65332   4.695   2.919   3.341
21697WAT     H165333   4.789   2.954   3.345
21697WAT     H265334   4.636   2.975   3.399
21698WAT      O65335   4.256   1.843   9.304
21698WAT     H165336   4.190   1.887   9.243
21698WAT     H265337   4.324   1.910   9.333
21699WAT      O65338   1.260   2.677   0.947
21699WAT     H165339   1.347   2.627   0.946
21699WAT     H265340   1.258   2.742   0.871
21700WAT      O65341   2.289   4.861   3.268
21700WAT     H165342   2.291   4.901   3.360
21700WAT     H265343   2.293   4.934   3.200
21701WAT      O65344   9.765   9.414   1.210
21701WAT     H165345   9.773   9.318   1.185
21701WAT     H265346   9.852   9.447   1.247
21702WAT      O65347   9.164   6.624   5.654
21702WAT     H165348   9.233   6.628   5.726
21702WAT     H265349   9.120   6.713   5.646
21703WAT      O65350   5.225   2.804   6.077
21703WAT     H165351   5.204   2.874   6.008
21703WAT     H265352   5.197   2.714   6.043
21704WAT      O65353   8.072   4.465   1.379
21704WAT     H165354   8.074   4.439   1.282
21704WAT     H265355   8.064   4.382   1.435
21705WAT      O65356   6.360   5.408   4.694
21705WAT     H165357   6.369   5.389   4.792
21705WAT     H265358   6.272   5.454   4.678
21706WAT      O65359   3.850   6.893   8.409
21706WAT     H165360   3.791   6.917   8.332
21706WAT     H265361   3.943   6.875   8.376
21707WAT      O65362   0.230   8.550   3.294
21707WAT     H165363   0.256   8.459   3.260
21707WAT     H265364   0.200   8.543   3.389
21708WAT      O65365   7.264   6.572   8.545
21708WAT     H165366   7.214   6.651   8.509
21708WAT     H265367   7.200   6.508   8.586
21709WAT      O65368   9.439   4.762   0.997
21709WAT     H165369   9.428   4.742   1.094
21709WAT     H265370   9.508   4.833   0.984
21710WAT      O65371   2.751   6.449   4.108
21710WAT     H165372   2.751   6.549   4.114
21710WAT     H265373   2.661   6.414   4.133
21711WAT      O65374   8.564   0.037   2.005
21711WAT     H165375   8.595  -0.058   2.010
21711WAT     H265376   8.595   0.086   2.086
21712WAT      O65377   9.352   4.938   2.520
21712WAT     H165378   9.413   4.948   2.441
21712WAT     H265379   9.260   4.917   2.488
21713WAT      O65380   8.522   4.796   6.672
21713WAT     H165381   8.446   4.807   6.609
21713WAT     H265382   8.578   4.879   6.671
21714WAT      O65383   0.357   8.098   7.846
21714WAT     H165384   0.396   8.099   7.938
21714WAT     H265385   0.408   8.035   7.788
21715WAT      O65386   0.020   7.672   8.965
21715WAT     H165387  -0.006   7.668   9.062
21715WAT     H265388   0.118   7.693   8.958
21716WAT      O65389   5.158   4.954   8.112
21716WAT     H165390   5.169   4.883   8.043
21716WAT     H265391   5.078   4.934   8.168
21717WAT      O65392   7.271   9.378   4.490
21717WAT     H165393   7.269   9.477   4.501
21717WAT     H265394   7.339   9.353   4.421
21718WAT      O65395   1.153   4.438   4.385
21718WAT     H165396   1.178   4.362   4.325
21718WAT     H265397   1.129   4.404   4.476
21719WAT      O65398   8.398   8.595   3.455
21719WAT     H165399   8.393   8.624   3.360
21719WAT     H265400   8.423   8.499   3.460
21720WAT      O65401   9.135   6.853   2.948
21720WAT     H165402   9.159   6.821   2.856
21720WAT     H265403   9.071   6.789   2.990
21721WAT      O65404   2.591   7.388   8.380
21721WAT     H165405   2.605   7.293   8.408
21721WAT     H265406   2.678   7.427   8.349
21722WAT      O65407   2.542   0.990   4.625
21722WAT     H165408   2.631   0.982   4.670
21722WAT     H265409   2.506   1.082   4.640
21723WAT      O65410   2.329   8.548   5.195
21723WAT     H165411   2.273   8.493   5.257
21723WAT     H265412   2.272   8.616   5.150
21724WAT      O65413   0.495   6.711   2.378
21724WAT     H165414   0.491   6.632   2.440
21724WAT     H265415   0.513   6.794   2.431
21725WAT      O65416   3.459   3.224   4.522
21725WAT     H165417   3.490   3.200   4.614
21725WAT     H265418   3.371   3.182   4.504
21726WAT      O65419   6.976   4.659   5.596
21726WAT     H165420   7.058   4.715   5.604
21726WAT     H265421   6.974   4.616   5.505
21727WAT      O65422   2.516   4.942   1.530
21727WAT     H165423   2.417   4.937   1.520
21727WAT     H265424   2.551   4.852   1.558
21728WAT      O65425   4.406   6.364   1.988
21728WAT     H165426   4.401   6.387   2.085
21728WAT     H265427   4.317   6.380   1.945
21729WAT      O65428   1.421   2.125   8.708
21729WAT     H165429   1.469   2.109   8.622
21729WAT     H265430   1.325   2.099   8.698
21730WAT      O65431   8.467   6.853   2.426
21730WAT     H165432   8.490   6.795   2.505
21730WAT     H265433   8.406   6.803   2.365
21731WAT      O65434   2.105   9.120   9.521
21731WAT     H165435   2.165   9.139   9.599
21731WAT     H265436   2.111   9.195   9.455
21732WAT      O65437   1.226   4.649   8.825
21732WAT     H165438   1.279   4.634   8.741
21732WAT     H265439   1.255   4.735   8.867
21733WAT      O65440   7.559   7.674   3.032
21733WAT     H165441   7.534   7.770   3.047
21733WAT     H265442   7.657   7.667   3.013
21734WAT      O65443   8.978   8.137   6.582
21734WAT     H165444   8.948   8.050   6.620
21734WAT     H265445   9.036   8.121   6.502
21735WAT      O65446   4.659   9.350   9.156
21735WAT     H165447   4.692   9.346   9.062
21735WAT     H265448   4.592   9.277   9.170
21736WAT      O65449   4.068   1.728   0.238
21736WAT     H165450   4.058   1.783   0.155
21736WAT     H265451   4.164   1.729   0.268
21737WAT      O65452   2.048   0.788   7.340
21737WAT     H165453   2.046   0.776   7.439
21737WAT     H265454   2.007   0.708   7.296
21738WAT      O65455   6.801   5.552   7.692
21738WAT     H165456   6.893   5.588   7.682
21738WAT     H265457   6.764   5.530   7.601
21739WAT      O65458   3.460   4.924   0.909
21739WAT     H165459   3.362   4.911   0.895
21739WAT     H265460   3.502   4.837   0.934
21740WAT      O65461   8.785   4.698   7.689
21740WAT     H165462   8.839   4.667   7.767
21740WAT     H265463   8.840   4.758   7.632
21741WAT      O65464   6.578   0.168   1.727
21741WAT     H165465   6.568   0.070   1.712
21741WAT     H265466   6.535   0.194   1.813
21742WAT      O65467   7.430   0.524   3.097
21742WAT     H165468   7.335   0.532   3.128
21742WAT     H265469   7.442   0.436   3.051
21743WAT      O65470   1.310   2.763   4.653
21743WAT     H165471   1.213   2.785   4.647
21743WAT     H265472   1.327   2.710   4.736
21744WAT      O65473   8.805   1.966   7.798
21744WAT     H165474   8.782   1.976   7.895
21744WAT     H265475   8.741   1.903   7.754
21745WAT      O65476   5.074   8.000   1.869
21745WAT     H165477   5.048   8.005   1.965
21745WAT     H265478   5.012   7.937   1.821
21746WAT      O65479   7.709   1.377   1.257
21746WAT     H165480   7.726   1.473   1.283
21746WAT     H265481   7.777   1.319   1.302
21747WAT      O65482   7.284   3.265   2.204
21747WAT     H165483   7.230   3.205   2.261
21747WAT     H265484   7.285   3.357   2.243
21748WAT      O65485   7.190   2.048   0.702
21748WAT     H165486   7.246   2.010   0.775
21748WAT     H265487   7.211   2.001   0.616
21749WAT      O65488   2.143   4.462   1.394
21749WAT     H165489   2.191   4.540   1.435
21749WAT     H265490   2.048   4.488   1.376
21750WAT      O65491   8.557   8.323   5.780
21750WAT     H165492   8.648   8.362   5.765
21750WAT     H265493   8.521   8.289   5.693
21751WAT      O65494   0.025   4.710   8.865
21751WAT     H165495   0.080   4.628   8.880
21751WAT     H265496  -0.072   4.687   8.875
21752WAT      O65497   5.297   9.260   7.596
21752WAT     H165498   5.353   9.217   7.525
21752WAT     H265499   5.342   9.343   7.628
21753WAT      O65500   4.678   4.795   4.669
21753WAT     H165501   4.591   4.791   4.719
21753WAT     H265502   4.754   4.782   4.732
21754WAT      O65503   1.330   2.724   9.833
21754WAT     H165504   1.413   2.689   9.790
21754WAT     H265505   1.286   2.789   9.771
21755WAT      O65506   4.152   6.788   6.362
21755WAT     H165507   4.207   6.861   6.402
21755WAT     H265508   4.097   6.744   6.433
21756WAT      O65509   0.216   2.180   3.509
21756WAT     H165510   0.302   2.222   3.480
21756WAT     H265511   0.231   2.083   3.526
21757WAT      O65512   6.226   4.645   8.444
21757WAT     H165513   6.195   4.556   8.480
21757WAT     H265514   6.148   4.708   8.443
21758WAT      O65515   1.222   0.899   0.786
21758WAT     H165516   1.149   0.835   0.809
21758WAT     H265517   1.222   0.974   0.853
21759WAT      O65518   1.032   8.737   1.722
21759WAT     H165519   1.128   8.767   1.721
21759WAT     H265520   1.015   8.684   1.806
21760WAT      O65521   1.268   9.529   6.602
21760WAT     H165522   1.184   9.542   6.656
21760WAT     H265523   1.299   9.435   6.611
21761WAT      O65524   5.924   7.774   2.799
21761WAT     H165525   5.940   7.686   2.753
21761WAT     H265526   5.852   7.763   2.866
21762WAT      O65527   9.301   0.044   5.059
21762WAT     H165528   9.352   0.101   4.994
21762WAT     H265529   9.203   0.052   5.040
21763WAT      O65530   1.806   7.283   5.698
21763WAT     H165531   1.716   7.322   5.676
21763WAT     H265532   1.875   7.354   5.690
21764WAT      O65533   4.007   9.137   2.413
21764WAT     H165534   3.937   9.141   2.342
21764WAT     H265535   4.088   9.188   2.383
21765WAT      O65536   0.852   7.646   4.064
21765WAT     H165537   0.947   7.622   4.083
21765WAT     H265538   0.839   7.658   3.966
21766WAT      O65539   1.358   9.279   6.558
21766WAT     H165540   1.437   9.273   6.498
21766WAT     H265541   1.321   9.187   6.575
21767WAT      O65542   6.192   1.010   9.794
21767WAT     H165543   6.255   1.085   9.771
21767WAT     H265544   6.142   0.983   9.713
21768WAT      O65545   1.538   5.917   5.036
21768WAT     H165546   1.608   5.880   5.097
21768WAT     H265547   1.449   5.914   5.082
21769WAT      O65548   8.139   4.331   6.238
21769WAT     H165549   8.094   4.264   6.298
21769WAT     H265550   8.225   4.293   6.204
21770WAT      O65551   7.390   9.794   9.386
21770WAT     H165552   7.457   9.868   9.395
21770WAT     H265553   7.365   9.761   9.477
21771WAT      O65554   8.886   1.482   0.178
21771WAT     H165555   8.921   1.467   0.085
21771WAT     H265556   8.955   1.529   0.233
21772WAT      O65557   4.891   6.223   2.506
21772WAT     H165558   4.906   6.184   2.414
21772WAT     H265559   4.838   6.159   2.561
21773WAT      O65560   3.182   6.193   6.308
21773WAT     H165561   3.212   6.161   6.397
21773WAT     H265562   3.098   6.145   6.281
21774WAT      O65563   5.969   4.768   6.871
21774WAT     H165564   6.058   4.735   6.842
21774WAT     H265565   5.899   4.736   6.808
21775WAT      O65566   5.840   0.580   6.867
21775WAT     H165567   5.852   0.538   6.957
21775WAT     H265568   5.743   0.603   6.854
21776WAT      O65569   2.718   6.148   4.010
21776WAT     H165570   2.659   6.166   4.088
21776WAT     H265571   2.811   6.180   4.029
21777WAT      O65572   9.039   3.622   7.063
21777WAT     H165573   8.997   3.602   7.151
21777WAT     H265574   9.081   3.539   7.027
21778WAT      O65575   5.353   7.310   9.710
21778WAT     H165576   5.380   7.214   9.714
21778WAT     H265577   5.298   7.325   9.627
21779WAT      O65578   1.185   8.414   3.381
21779WAT     H165579   1.087   8.409   3.400
21779WAT     H265580   1.217   8.508   3.395
21780WAT      O65581   8.215   1.696   0.027
21780WAT     H165582   8.183   1.786   0.058
21780WAT     H265583   8.235   1.700  -0.071
21781WAT      O65584   6.577   8.871   8.143
21781WAT     H165585   6.540   8.796   8.088
21781WAT     H265586   6.663   8.843   8.185
21782WAT      O65587   8.315   5.251   1.292
21782WAT     H165588   8.376   5.225   1.217
21782WAT     H265589   8.356   5.328   1.342
21783WAT      O65590   6.330   0.735   0.215
21783WAT     H165591   6.320   0.635   0.209
21783WAT     H265592   6.391   0.766   0.142
21784WAT      O65593   7.373   0.270   3.954
21784WAT     H165594   7.294   0.209   3.952
21784WAT     H265595   7.441   0.238   3.887
21785WAT      O65596   4.650   4.971   3.832
21785WAT     H165597   4.563   4.988   3.786
21785WAT     H265598   4.633   4.928   3.921
21786WAT      O65599   9.785   8.736   9.347
21786WAT     H165600   9.765   8.793   9.268
21786WAT     H265601   9.786   8.792   9.430
21787WAT      O65602   7.333   2.691   0.945
21787WAT     H165603   7.260   2.741   0.991
21787WAT     H265604   7.303   2.598   0.924
21788WAT      O65605   8.295   6.864   4.688
21788WAT     H165606   8.348   6.901   4.611
21788WAT     H265607   8.336   6.777   4.717
21789WAT      O65608   1.529   0.802   4.804
21789WAT     H165609   1.568   0.883   4.848
21789WAT     H265610   1.431   0.816   4.790
21790WAT      O65611   6.619   1.958   4.808
21790WAT     H165612   6.635   1.918   4.718
21790WAT     H265613   6.603   2.056   4.799
21791WAT      O65614   9.452   3.530   6.669
21791WAT     H165615   9.355   3.512   6.652
21791WAT     H265616   9.508   3.467   6.616
21792WAT      O65617   3.337   7.075   0.675
21792WAT     H165618   3.335   6.999   0.610
21792WAT     H265619   3.378   7.044   0.761
21793WAT      O65620   7.419   8.991   6.714
21793WAT     H165621   7.477   9.015   6.637
21793WAT     H265622   7.471   8.935   6.779
21794WAT      O65623   0.186   2.475   1.336
21794WAT     H165624   0.110   2.414   1.314
21794WAT     H265625   0.177   2.560   1.285
21795WAT      O65626   8.440   0.691   1.318
21795WAT     H165627   8.495   0.632   1.377
21795WAT     H265628   8.353   0.646   1.299
21796WAT      O65629   2.558   1.803   6.841
21796WAT     H165630   2.506   1.852   6.771
21796WAT     H265631   2.601   1.869   6.903
21797WAT      O65632   2.149   0.057   5.563
21797WAT     H165633   2.122  -0.023   5.508
21797WAT     H265634   2.089   0.065   5.642
21798WAT      O65635   6.896   5.766   8.503
21798WAT     H165636   6.868   5.726   8.415
21798WAT     H265637   6.968   5.833   8.487
21799WAT      O65638   9.547   2.770   8.987
21799WAT     H165639   9.562   2.869   8.989
21799WAT     H265640   9.633   2.723   9.007
21800WAT      O65641   4.408   5.012   3.688
21800WAT     H165642   4.327   5.018   3.746
21800WAT     H265643   4.414   4.921   3.648
21801WAT      O65644   8.842   1.620   3.767
21801WAT     H165645   8.825   1.718   3.779
21801WAT     H265646   8.894   1.586   3.845
21802WAT      O65647   7.609   6.895   3.495
21802WAT     H165648   7.594   6.948   3.579
21802WAT     H265649   7.676   6.943   3.437
21803WAT      O65650   0.498   5.356   3.998
21803WAT     H165651   0.540   5.404   4.075
21803WAT     H265652   0.419   5.305   4.030
21804WAT      O65653   6.008   7.453   3.697
21804WAT     H165654   6.059   7.431   3.781
21804WAT     H265655   5.993   7.370   3.644
21805WAT      O65656   6.660   4.409   3.727
21805WAT     H165657   6.589   4.429   3.660
21805WAT     H265658   6.680   4.492   3.779
21806WAT      O65659   7.322   0.868   4.769
21806WAT     H165660   7.255   0.832   4.705
21806WAT     H265661   7.407   0.816   4.761
21807WAT      O65662   7.502   5.654   1.988
21807WAT     H165663   7.599   5.671   2.003
21807WAT     H265664   7.454   5.741   1.975
21808WAT      O65665   9.098   4.930   4.303
21808WAT     H165666   9.069   4.875   4.225
21808WAT     H265667   9.055   5.021   4.297
21809WAT      O65668   9.303   6.640   7.344
21809WAT     H165669   9.215   6.614   7.305
21809WAT     H265670   9.307   6.609   7.439
21810WAT      O65671   8.311   7.961   5.574
21810WAT     H165672   8.276   7.925   5.661
21810WAT     H265673   8.243   7.947   5.502
21811WAT      O65674   0.014   4.720   1.123
21811WAT     H165675  -0.084   4.729   1.139
21811WAT     H265676   0.038   4.623   1.114
21812WAT      O65677   8.046   3.991   5.065
21812WAT     H165678   7.966   3.945   5.103
21812WAT     H265679   8.048   3.978   4.966
21813WAT      O65680   1.330   4.000   5.500
21813WAT     H165681   1.308   3.921   5.442
21813WAT     H265682   1.294   4.083   5.459
21814WAT      O65683   1.394   1.499   7.119
21814WAT     H165684   1.319   1.467   7.176
21814WAT     H265685   1.439   1.420   7.076
21815WAT      O65686   6.676   0.472   5.312
21815WAT     H165687   6.646   0.390   5.262
21815WAT     H265688   6.772   0.489   5.293
21816WAT      O65689   6.170   6.746   2.414
21816WAT     H165690   6.100   6.815   2.398
21816WAT     H265691   6.137   6.657   2.381
21817WAT      O65692   7.291   8.738   8.889
21817WAT     H165693   7.228   8.773   8.820
21817WAT     H265694   7.375   8.792   8.889
21818WAT      O65695   8.166   0.614   7.173
21818WAT     H165696   8.121   0.635   7.087
21818WAT     H265697   8.244   0.552   7.156
21819WAT      O65698   8.053   7.426   8.038
21819WAT     H165699   8.051   7.414   8.137
21819WAT     H265700   8.141   7.464   8.010
21820WAT      O65701   1.728   3.624   1.751
21820WAT     H165702   1.691   3.610   1.660
21820WAT     H265703   1.801   3.693   1.747
21821WAT      O65704   7.427   0.859   1.942
21821WAT     H165705   7.375   0.775   1.926
21821WAT     H265706   7.525   0.839   1.937
21822WAT      O65707   7.363   3.438   5.237
21822WAT     H165708   7.328   3.523   5.277
21822WAT     H265709   7.455   3.453   5.203
21823WAT      O65710   7.581   6.778   1.459
21823WAT     H165711   7.513   6.706   1.445
21823WAT     H265712   7.541   6.854   1.509
21824WAT      O65713   8.079   7.296   5.274
21824WAT     H165714   8.139   7.358   5.223
21824WAT     H265715   8.000   7.347   5.308
21825WAT      O65716   8.476   0.553   7.524
21825WAT     H165717   8.486   0.653   7.520
21825WAT     H265718   8.383   0.530   7.551
21826WAT      O65719   7.590   4.057   0.880
21826WAT     H165720   7.557   3.965   0.905
21826WAT     H265721   7.583   4.117   0.960
21827WAT      O65722   3.479   4.341   7.864
21827WAT     H165723   3.428   4.370   7.783
21827WAT     H265724   3.468   4.242   7.877
21828WAT      O65725   9.193   5.298   6.551
21828WAT     H165726   9.174   5.205   6.581
21828WAT     H265727   9.200   5.358   6.630
21829WAT      O65728   6.681   6.989   2.088
21829WAT     H165729   6.772   7.021   2.115
21829WAT     H265730   6.614   7.018   2.156
21830WAT      O65731   3.808   4.026   2.924
21830WAT     H165732   3.808   4.078   2.838
21830WAT     H265733   3.885   3.963   2.924
21831WAT      O65734   8.251   9.475   7.836
21831WAT     H165735   8.327   9.538   7.856
21831WAT     H265736   8.206   9.503   7.751
21832WAT      O65737   1.086   4.454   7.463
21832WAT     H165738   1.133   4.420   7.381
21832WAT     H265739   1.024   4.384   7.497
21833WAT      O65740   8.165   6.765   4.206
21833WAT     H165741   8.105   6.743   4.129
21833WAT     H265742   8.193   6.680   4.251
21834WAT      O65743   9.208   8.862   3.648
21834WAT     H165744   9.141   8.855   3.574
21834WAT     H265745   9.232   8.770   3.680
21835WAT      O65746   7.540   6.229   3.635
21835WAT     H165747   7.612   6.160   3.629
21835WAT     H265748   7.450   6.184   3.633
21836WAT      O65749   3.812   4.738   0.497
21836WAT     H165750   3.774   4.830   0.487
21836WAT     H265751   3.840   4.723   0.592
21837WAT      O65752   5.128   1.442   3.675
21837WAT     H165753   5.064   1.388   3.730
21837WAT     H265754   5.080   1.478   3.595
21838WAT      O65755   5.653   7.494   1.927
21838WAT     H165756   5.589   7.524   1.998
21838WAT     H265757   5.610   7.424   1.870
21839WAT      O65758   3.050   0.373   3.233
21839WAT     H165759   3.020   0.388   3.327
21839WAT     H265760   3.118   0.443   3.209
21840WAT      O65761   8.892   1.772   8.752
21840WAT     H165762   8.866   1.785   8.657
21840WAT     H265763   8.952   1.846   8.781
21841WAT      O65764   5.968   9.529   9.736
21841WAT     H165765   6.018   9.451   9.774
21841WAT     H265766   5.979   9.608   9.795
21842WAT      O65767   8.334   2.892   1.736
21842WAT     H165768   8.303   2.986   1.718
21842WAT     H265769   8.349   2.880   1.834
21843WAT      O65770   5.514   5.225   8.175
21843WAT     H165771   5.552   5.141   8.212
21843WAT     H265772   5.588   5.288   8.153
21844WAT      O65773   6.617   3.182   1.371
21844WAT     H165774   6.630   3.194   1.273
21844WAT     H265775   6.628   3.270   1.417
21845WAT      O65776   2.547   2.011   7.400
21845WAT     H165777   2.639   2.025   7.365
21845WAT     H265778   2.484   1.991   7.325
21846WAT      O65779   3.655   6.265   5.764
21846WAT     H165780   3.604   6.206   5.827
21846WAT     H265781   3.687   6.210   5.687
21847WAT      O65782   1.100   7.592   1.532
21847WAT     H165783   1.070   7.517   1.592
21847WAT     H265784   1.144   7.663   1.588
21848WAT      O65785   2.040   3.686   2.407
21848WAT     H165786   2.022   3.636   2.492
21848WAT     H265787   2.038   3.623   2.330
21849WAT      O65788   2.092   8.378   1.011
21849WAT     H165789   1.993   8.386   1.026
21849WAT     H265790   2.128   8.466   0.979
21850WAT      O65791   9.042   2.502   8.617
21850WAT     H165792   9.028   2.485   8.714
21850WAT     H265793   8.988   2.581   8.588
21851WAT      O65794   9.506   1.535   8.162
21851WAT     H165795   9.598   1.564   8.136
21851WAT     H265796   9.509   1.442   8.198
21852WAT      O65797   9.382   8.533   7.480
21852WAT     H165798   9.435   8.583   7.549
21852WAT     H265799   9.318   8.471   7.525
21853WAT      O65800   4.553   2.271   8.385
21853WAT     H165801   4.573   2.228   8.296
21853WAT     H265802   4.575   2.207   8.458
21854WAT      O65803   9.046   9.652   5.936
21854WAT     H165804   9.144   9.655   5.916
21854WAT     H265805   9.016   9.557   5.942
21855WAT      O65806   2.557   5.809   8.417
21855WAT     H165807   2.476   5.861   8.388
21855WAT     H265808   2.636   5.837   8.364
21856WAT      O65809   9.839   9.641   5.050
21856WAT     H165810   9.828   9.572   5.122
21856WAT     H265811   9.924   9.624   5.000
21857WAT      O65812   6.669   0.791   7.978
21857WAT     H165813   6.618   0.816   7.896
21857WAT     H265814   6.610   0.802   8.058
21858WAT      O65815   6.593   9.443   4.899
21858WAT     H165816   6.554   9.351   4.893
21858WAT     H265817   6.539   9.506   4.843
21859WAT      O65818   0.504   7.847   6.091
21859WAT     H165819   0.502   7.817   6.186
21859WAT     H265820   0.599   7.856   6.061
21860WAT      O65821   1.568   0.728   5.990
21860WAT     H165822   1.512   0.791   6.043
21860WAT     H265823   1.645   0.696   6.045
21861WAT      O65824   6.005   2.915   7.887
21861WAT     H165825   6.038   2.995   7.937
21861WAT     H265826   5.935   2.869   7.941
21862WAT      O65827   3.143   6.152   6.841
21862WAT     H165828   3.190   6.164   6.929
21862WAT     H265829   3.050   6.186   6.848
21863WAT      O65830   5.237   0.050   2.404
21863WAT     H165831   5.285   0.072   2.319
21863WAT     H265832   5.223  -0.049   2.409
21864WAT      O65833   8.983   1.392   3.095
21864WAT     H165834   8.978   1.308   3.042
21864WAT     H265835   8.949   1.468   3.039
21865WAT      O65836   4.456   9.715   2.357
21865WAT     H165837   4.489   9.650   2.289
21865WAT     H265838   4.534   9.766   2.394
21866WAT      O65839   1.279   9.780   3.419
21866WAT     H165840   1.215   9.857   3.427
21866WAT     H265841   1.237   9.705   3.369
21867WAT      O65842   3.853   6.638   9.110
21867WAT     H165843   3.918   6.683   9.049
21867WAT     H265844   3.864   6.538   9.102
21868WAT      O65845   0.803   0.043   6.245
21868WAT     H165846   0.752   0.118   6.286
21868WAT     H265847   0.740  -0.031   6.220
21869WAT      O65848   6.933   7.708   6.547
21869WAT     H165849   6.972   7.772   6.613
21869WAT     H265850   7.006   7.651   6.509
21870WAT      O65851   9.839   6.001   0.806
21870WAT     H165852   9.743   6.007   0.836
21870WAT     H265853   9.869   5.906   0.810
21871WAT      O65854   6.773   2.123   9.603
21871WAT     H165855   6.718   2.132   9.520
21871WAT     H265856   6.717   2.145   9.683
21872WAT      O65857   1.256   3.073   3.836
21872WAT     H165858   1.234   3.027   3.922
21872WAT     H265859   1.237   3.011   3.759
21873WAT      O65860   2.269   0.402   5.231
21873WAT     H165861   2.358   0.364   5.254
21873WAT     H265862   2.215   0.414   5.315
21874WAT      O65863   4.609   5.945   0.918
21874WAT     H165864   4.530   6.001   0.893
21874WAT     H265865   4.645   5.976   1.006
21875WAT      O65866   5.461   1.376   5.251
21875WAT     H165867   5.512   1.362   5.336
21875WAT     H265868   5.500   1.454   5.201
21876WAT      O65869   3.758   1.109   1.495
21876WAT     H165870   3.720   1.181   1.553
21876WAT     H265871   3.847   1.081   1.529
21877WAT      O65872   7.370   4.376   9.271
21877WAT     H165873   7.315   4.374   9.187
21877WAT     H265874   7.314   4.409   9.347
21878WAT      O65875   0.630   6.752   8.291
21878WAT     H165876   0.708   6.751   8.229
21878WAT     H265877   0.557   6.694   8.253
21879WAT      O65878   0.221   5.901   8.499
21879WAT     H165879   0.139   5.942   8.538
21879WAT     H265880   0.211   5.801   8.497
21880WAT      O65881   1.685   4.265   5.308
21880WAT     H165882   1.674   4.168   5.326
21880WAT     H265883   1.634   4.318   5.377
21881WAT      O65884   4.438   6.154   5.493
21881WAT     H165885   4.537   6.169   5.502
21881WAT     H265886   4.391   6.199   5.569
21882WAT      O65887   4.361   8.858   4.503
21882WAT     H165888   4.262   8.848   4.498
21882WAT     H265889   4.387   8.894   4.592
21883WAT      O65890   3.548   2.900   3.482
21883WAT     H165891   3.528   2.825   3.419
21883WAT     H265892   3.464   2.950   3.503
21884WAT      O65893   0.546   8.669   1.390
21884WAT     H165894   0.471   8.654   1.326
21884WAT     H265895   0.582   8.762   1.379
21885WAT      O65896   0.881   4.593   6.205
21885WAT     H165897   0.796   4.632   6.171
21885WAT     H265898   0.957   4.655   6.182
21886WAT      O65899   6.783   2.272   7.171
21886WAT     H165900   6.710   2.207   7.147
21886WAT     H265901   6.816   2.317   7.088
21887WAT      O65902   4.118   6.354   8.296
21887WAT     H165903   4.030   6.307   8.306
21887WAT     H265904   4.177   6.329   8.372
21888WAT      O65905   5.929   4.340   6.443
21888WAT     H165906   5.891   4.251   6.418
21888WAT     H265907   5.913   4.358   6.540
21889WAT      O65908   8.925   8.950   0.709
21889WAT     H165909   8.906   9.048   0.705
21889WAT     H265910   8.869   8.908   0.780
21890WAT      O65911   7.548   2.956   6.522
21890WAT     H165912   7.567   2.889   6.451
21890WAT     H265913   7.549   2.911   6.611
21891WAT      O65914   2.134   7.754   1.413
21891WAT     H165915   2.107   7.672   1.361
21891WAT     H265916   2.168   7.823   1.349
21892WAT      O65917   5.573   8.315   8.869
21892WAT     H165918   5.519   8.232   8.855
21892WAT     H265919   5.527   8.374   8.936
21893WAT      O65920   5.670   6.168   1.325
21893WAT     H165921   5.598   6.230   1.294
21893WAT     H265922   5.634   6.075   1.329
21894WAT      O65923   1.225   0.820   3.998
21894WAT     H165924   1.296   0.888   3.980
21894WAT     H265925   1.235   0.743   3.936
21895WAT      O65926   0.886   3.824   0.277
21895WAT     H165927   0.974   3.819   0.324
21895WAT     H265928   0.837   3.738   0.288
21896WAT      O65929   4.617   6.784   8.097
21896WAT     H165930   4.572   6.860   8.050
21896WAT     H265931   4.548   6.730   8.146
21897WAT      O65932   7.553   8.685   1.081
21897WAT     H165933   7.617   8.710   1.154
21897WAT     H265934   7.598   8.621   1.018
21898WAT      O65935   2.628   0.619   7.238
21898WAT     H165936   2.672   0.585   7.155
21898WAT     H265937   2.528   0.617   7.226
21899WAT      O65938   7.981   7.933   7.336
21899WAT     H165939   7.995   8.016   7.389
21899WAT     H265940   7.976   7.854   7.398
21900WAT      O65941   3.266   5.831   3.553
21900WAT     H165942   3.359   5.813   3.521
21900WAT     H265943   3.229   5.748   3.596
21901WAT      O65944   4.448   9.685   7.107
21901WAT     H165945   4.532   9.695   7.053
21901WAT     H265946   4.369   9.684   7.045
21902WAT      O65947   8.836   2.044   5.490
21902WAT     H165948   8.920   2.093   5.512
21902WAT     H265949   8.807   1.991   5.570
21903WAT      O65950   4.449   4.722   8.953
21903WAT     H165951   4.417   4.653   9.018
21903WAT     H265952   4.497   4.795   9.002
21904WAT      O65953   4.966   4.288   4.782
21904WAT     H165954   4.936   4.382   4.762
21904WAT     H265955   5.053   4.290   4.830
21905WAT      O65956   2.179   1.171   7.223
21905WAT     H165957   2.233   1.151   7.142
21905WAT     H265958   2.231   1.229   7.285
21906WAT      O65959   2.423   3.349   2.257
21906WAT     H165960   2.359   3.319   2.186
21906WAT     H265961   2.392   3.316   2.346
21907WAT      O65962   7.044   2.152   8.532
21907WAT     H165963   6.953   2.182   8.503
21907WAT     H265964   7.069   2.201   8.616
21908WAT      O65965   8.187   4.642   1.026
21908WAT     H165966   8.279   4.679   1.040
21908WAT     H265967   8.186   4.544   1.048
21909WAT      O65968   8.634   8.145   2.908
21909WAT     H165969   8.570   8.114   2.837
21909WAT     H265970   8.725   8.153   2.869
21910WAT      O65971   4.454   2.304   4.122
21910WAT     H165972   4.507   2.343   4.047
21910WAT     H265973   4.482   2.209   4.137
21911WAT      O65974   6.420   9.031   8.467
21911WAT     H165975   6.419   8.931   8.463
21911WAT     H265976   6.338   9.067   8.424
21912WAT      O65977   1.685   2.600   6.412
21912WAT     H165978   1.706   2.641   6.323
21912WAT     H265979   1.593   2.562   6.410
21913WAT      O65980   1.016   1.771   3.343
21913WAT     H165981   1.071   1.829   3.404
21913WAT     H265982   1.042   1.788   3.249
21914WAT      O65983   5.381   6.047   9.537
21914WAT     H165984   5.328   6.041   9.621
21914WAT     H265985   5.353   6.129   9.486
21915WAT      O65986   5.109   1.288   2.810
21915WAT     H165987   5.124   1.349   2.732
21915WAT     H265988   5.197   1.255   2.844
21916WAT      O65989   5.509   3.864   7.532
21916WAT     H165990   5.534   3.927   7.605
21916WAT     H265991   5.474   3.915   7.454
21917WAT      O65992   4.876   3.838   3.168
21917WAT     H165993   4.858   3.767   3.236
21917WAT     H265994   4.799   3.901   3.165
21918WAT      O65995   4.387   1.801   2.366
21918WAT     H165996   4.461   1.866   2.380
21918WAT     H265997   4.423   1.720   2.320
21919WAT      O65998   8.649   5.254   1.998
21919WAT     H165999   8.741   5.222   1.973
21919WAT     H266000   8.655   5.311   2.080
21920WAT      O66001   6.586   5.228   5.152
21920WAT     H166002   6.512   5.164   5.133
21920WAT     H266003   6.582   5.257   5.248
21921WAT      O66004   2.443   1.491   7.103
21921WAT     H166005   2.379   1.444   7.042
21921WAT     H266006   2.526   1.436   7.112
21922WAT      O66007   8.155   3.396   2.847
21922WAT     H166008   8.071   3.370   2.800
21922WAT     H266009   8.172   3.494   2.833
21923WAT      O66010   0.675   2.873   1.843
21923WAT     H166011   0.657   2.834   1.933
21923WAT     H266012   0.773   2.872   1.825
21924WAT      O66013   8.338   6.009   8.941
21924WAT     H166014   8.415   6.021   9.004
21924WAT     H266015   8.365   6.039   8.850
21925WAT      O66016   2.689   6.832   5.258
21925WAT     H166017   2.781   6.804   5.286
21925WAT     H266018   2.638   6.752   5.227
21926WAT      O66019   3.036   1.308   5.609
21926WAT     H166020   2.984   1.235   5.652
21926WAT     H266021   3.104   1.343   5.673
21927WAT      O66022   4.131   5.389   3.221
21927WAT     H166023   4.069   5.414   3.295
21927WAT     H266024   4.170   5.471   3.180
21928WAT      O66025   1.137   9.038   0.729
21928WAT     H166026   1.066   8.977   0.763
21928WAT     H266027   1.120   9.059   0.633
21929WAT      O66028   4.198   2.437   5.038
21929WAT     H166029   4.242   2.393   4.960
21929WAT     H266030   4.105   2.403   5.048
21930WAT      O66031   8.970   8.790   7.195
21930WAT     H166032   9.037   8.810   7.123
21930WAT     H266033   8.890   8.848   7.183
21931WAT      O66034   5.131   0.964   1.578
21931WAT     H166035   5.176   0.899   1.639
21931WAT     H266036   5.139   1.057   1.616
21932WAT      O66037   9.678   3.829   8.787
21932WAT     H166038   9.742   3.781   8.847
21932WAT     H266039   9.729   3.890   8.727
21933WAT      O66040   8.562   9.371   6.278
21933WAT     H166041   8.518   9.376   6.368
21933WAT     H266042   8.653   9.411   6.284
21934WAT      O66043  -0.001   8.580   2.835
21934WAT     H166044   0.091   8.570   2.799
21934WAT     H266045  -0.000   8.645   2.911
21935WAT      O66046   9.510   6.972   4.504
21935WAT     H166047   9.481   6.984   4.409
21935WAT     H266048   9.464   6.892   4.543
21936WAT      O66049   6.275   1.975   8.481
21936WAT     H166050   6.369   1.946   8.465
21936WAT     H266051   6.275   2.055   8.541
21937WAT      O66052   0.982   6.866   9.722
21937WAT     H166053   1.005   6.770   9.738
21937WAT     H266054   0.904   6.871   9.660
21938WAT      O66055   6.540   8.667   7.949
21938WAT     H166056   6.638   8.674   7.930
21938WAT     H266057   6.489   8.688   7.865
21939WAT      O66058   3.616   5.501   6.651
21939WAT     H166059   3.700   5.474   6.699
21939WAT     H266060   3.588   5.427   6.589
21940WAT      O66061   7.229   9.085   9.627
21940WAT     H166062   7.286   9.032   9.565
21940WAT     H266063   7.167   9.024   9.676
21941WAT      O66064   2.102   7.899   6.549
21941WAT     H166065   2.136   7.806   6.566
21941WAT     H266066   2.043   7.898   6.468
21942WAT      O66067   9.096   9.326   4.440
21942WAT     H166068   9.050   9.350   4.354
21942WAT     H266069   9.053   9.374   4.516
21943WAT      O66070   0.758   9.176   3.249
21943WAT     H166071   0.718   9.263   3.276
21943WAT     H266072   0.711   9.141   3.167
21944WAT      O66073   4.193   3.861   9.834
21944WAT     H166074   4.170   3.808   9.916
21944WAT     H266075   4.157   3.814   9.753
21945WAT      O66076   1.490   3.505   5.263
21945WAT     H166077   1.432   3.481   5.340
21945WAT     H266078   1.575   3.545   5.296
21946WAT      O66079   0.585   1.386   1.769
21946WAT     H166080   0.527   1.465   1.751
21946WAT     H266081   0.540   1.303   1.737
21947WAT      O66082   2.394   4.135   3.021
21947WAT     H166083   2.370   4.232   3.026
21947WAT     H266084   2.368   4.090   3.107
21948WAT      O66085   8.208   5.025   3.516
21948WAT     H166086   8.283   4.963   3.490
21948WAT     H266087   8.153   4.983   3.588
21949WAT      O66088   3.020   1.468   1.234
21949WAT     H166089   3.010   1.505   1.142
21949WAT     H266090   3.021   1.543   1.300
21950WAT      O66091   3.392   0.958   1.486
21950WAT     H166092   3.462   0.950   1.557
21950WAT     H266093   3.344   0.870   1.477
21951WAT      O66094   2.005   9.017   5.945
21951WAT     H166095   1.972   9.102   5.903
21951WAT     H266096   2.008   8.945   5.875
21952WAT      O66097   7.177   0.317   4.268
21952WAT     H166098   7.276   0.323   4.251
21952WAT     H266099   7.159   0.332   4.365
21953WAT      O66100   3.170   3.974   5.800
21953WAT     H166101   3.247   4.032   5.826
21953WAT     H266102   3.204   3.892   5.754
21954WAT      O66103   0.198   2.950   8.257
21954WAT     H166104   0.225   2.956   8.161
21954WAT     H266105   0.193   2.854   8.284
21955WAT      O66106   9.202   2.148   0.147
21955WAT     H166107   9.230   2.089   0.223
21955WAT     H266108   9.283   2.184   0.101
21956WAT      O66109   9.734   6.606   9.324
21956WAT     H166110   9.771   6.608   9.231
21956WAT     H266111   9.807   6.590   9.390
21957WAT      O66112   8.179   7.349   9.842
21957WAT     H166113   8.103   7.406   9.811
21957WAT     H266114   8.266   7.392   9.817
21958WAT      O66115   8.555   9.581   3.866
21958WAT     H166116   8.606   9.497   3.848
21958WAT     H266117   8.528   9.585   3.962
21959WAT      O66118   7.151   0.162   5.001
21959WAT     H166119   7.092   0.084   5.024
21959WAT     H266120   7.221   0.132   4.937
21960WAT      O66121   4.507   7.156   6.637
21960WAT     H166122   4.495   7.146   6.736
21960WAT     H266123   4.497   7.252   6.612
21961WAT      O66124   6.288   0.287   4.283
21961WAT     H166125   6.263   0.191   4.293
21961WAT     H266126   6.263   0.338   4.365
21962WAT      O66127   6.937   9.332   8.892
21962WAT     H166128   6.909   9.338   8.796
21962WAT     H266129   6.870   9.276   8.942
21963WAT      O66130   0.633   7.026   4.659
21963WAT     H166131   0.544   7.014   4.615
21963WAT     H266132   0.632   7.109   4.715
21964WAT      O66133   7.915   0.092   8.852
21964WAT     H166134   7.843   0.153   8.886
21964WAT     H266135   7.958   0.044   8.929
21965WAT      O66136   2.034   7.259   7.814
21965WAT     H166137   1.997   7.327   7.751
21965WAT     H266138   1.991   7.170   7.797
21966WAT      O66139   7.351   9.545   8.976
21966WAT     H166140   7.283   9.567   9.046
21966WAT     H266141   7.326   9.459   8.931
21967WAT      O66142   6.935   0.572   0.089
21967WAT     H166143   6.905   0.650   0.143
21967WAT     H266144   6.955   0.495   0.149
21968WAT      O66145   6.860   6.605   5.898
21968WAT     H166146   6.836   6.531   5.961
21968WAT     H266147   6.845   6.693   5.943
21969WAT      O66148   4.776   8.716   1.508
21969WAT     H166149   4.755   8.732   1.411
21969WAT     H266150   4.744   8.625   1.534
21970WAT      O66151   2.443   6.118   0.071
21970WAT     H166152   2.497   6.069   0.002
21970WAT     H266153   2.461   6.077   0.161
21971WAT      O66154   6.605   7.122   6.104
21971WAT     H166155   6.604   7.108   6.005
21971WAT     H266156   6.627   7.035   6.149
21972WAT      O66157   8.632   7.139   8.977
21972WAT     H166158   8.658   7.057   8.924
21972WAT     H266159   8.537   7.161   8.958
21973WAT      O66160   7.672   9.331   9.438
21973WAT     H166161   7.734   9.288   9.503
21973WAT     H266162   7.718   9.408   9.393
21974WAT      O66163   7.223   7.214   8.576
21974WAT     H166164   7.227   7.205   8.676
21974WAT     H266165   7.249   7.306   8.549
21975WAT      O66166   9.164   3.532   9.428
21975WAT     H166167   9.196   3.611   9.480
21975WAT     H266168   9.218   3.451   9.453
21976WAT      O66169   9.394   7.372   3.994
21976WAT     H166170   9.445   7.300   4.041
21976WAT     H266171   9.420   7.374   3.897
21977WAT      O66172   9.274   6.683   0.521
21977WAT     H166173   9.245   6.719   0.610
21977WAT     H266174   9.286   6.584   0.528
21978WAT      O66175   9.808   2.221   4.660
21978WAT     H166176   9.731   2.269   4.617
21978WAT     H266177   9.799   2.123   4.642
21979WAT      O66178   9.361   6.113   1.530
21979WAT     H166179   9.364   6.208   1.559
21979WAT     H266180   9.277   6.096   1.479
21980WAT      O66181   2.278   4.208   1.838
21980WAT     H166182   2.263   4.305   1.856
21980WAT     H266183   2.312   4.163   1.920
21981WAT      O66184   9.485   5.752   3.793
21981WAT     H166185   9.410   5.798   3.840
21981WAT     H266186   9.453   5.665   3.756
21982WAT      O66187   1.140   8.782   1.085
21982WAT     H166188   1.088   8.743   1.009
21982WAT     H266189   1.138   8.881   1.079
21983WAT      O66190   2.911   7.924   1.329
21983WAT     H166191   2.851   7.859   1.283
21983WAT     H266192   3.004   7.913   1.295
21984WAT      O66193   4.921   1.225   6.494
21984WAT     H166194   4.826   1.257   6.491
21984WAT     H266195   4.955   1.232   6.587
21985WAT      O66196   2.188   3.353   2.456
21985WAT     H166197   2.213   3.275   2.514
21985WAT     H266198   2.113   3.327   2.395
21986WAT      O66199   0.254   1.873   9.464
21986WAT     H166200   0.156   1.860   9.450
21986WAT     H266201   0.304   1.795   9.427
21987WAT      O66202   7.679   4.205   3.700
21987WAT     H166203   7.616   4.136   3.666
21987WAT     H266204   7.746   4.162   3.761
21988WAT      O66205   4.347   1.739   6.150
21988WAT     H166206   4.425   1.676   6.144
21988WAT     H266207   4.372   1.817   6.208
21989WAT      O66208   7.520   5.490   9.748
21989WAT     H166209   7.530   5.459   9.653
21989WAT     H266210   7.542   5.415   9.810
21990WAT      O66211   2.595   2.240   2.995
21990WAT     H166212   2.538   2.225   2.914
21990WAT     H266213   2.691   2.228   2.971
21991WAT      O66214   8.718   2.720   6.482
21991WAT     H166215   8.787   2.786   6.509
21991WAT     H266216   8.662   2.694   6.561
21992WAT      O66217   3.576   7.662   5.615
21992WAT     H166218   3.502   7.599   5.637
21992WAT     H266219   3.591   7.724   5.691
21993WAT      O66220   5.787   5.367   2.772
21993WAT     H166221   5.808   5.428   2.695
21993WAT     H266222   5.698   5.323   2.757
21994WAT      O66223   4.890   1.404   7.948
21994WAT     H166224   4.927   1.335   8.011
21994WAT     H266225   4.962   1.433   7.885
21995WAT      O66226   8.519   1.057   2.251
21995WAT     H166227   8.453   1.124   2.285
21995WAT     H266228   8.520   1.059   2.151
21996WAT      O66229   1.288   2.296   8.887
21996WAT     H166230   1.354   2.226   8.861
21996WAT     H266231   1.330   2.386   8.877
21997WAT      O66232   4.206   5.240   5.094
21997WAT     H166233   4.260   5.316   5.130
21997WAT     H266234   4.130   5.220   5.156
21998WAT      O66235   4.209   1.798   1.077
21998WAT     H166236   4.298   1.839   1.095
21998WAT     H266237   4.218   1.731   1.003
21999WAT      O66238   0.848   6.701   5.901
21999WAT     H166239   0.894   6.732   5.817
21999WAT     H266240   0.769   6.760   5.919
22000WAT      O66241   1.200   0.858   7.859
22000WAT     H166242   1.106   0.839   7.831
22000WAT     H266243   1.202   0.940   7.916
22001WAT      O66244   2.966   9.059   8.350
22001WAT     H166245   3.064   9.077   8.341
22001WAT     H266246   2.934   9.097   8.436
22002WAT      O66247   2.757   7.206   6.038
22002WAT     H166248   2.822   7.136   6.009
22002WAT     H266249   2.780   7.236   6.130
22003WAT      O66250   0.983   3.842   2.486
22003WAT     H166251   0.887   3.851   2.460
22003WAT     H266252   1.042   3.880   2.415
22004WAT      O66253   5.371   1.194   1.972
22004WAT     H166254   5.367   1.291   1.995
22004WAT     H266255   5.412   1.143   2.047
22005WAT      O66256   6.759   6.428   6.972
22005WAT     H166257   6.793   6.488   7.044
22005WAT     H266258   6.814   6.344   6.970
22006WAT      O66259   0.177   5.418   9.559
22006WAT     H166260   0.223   5.454   9.640
22006WAT     H266261   0.243   5.412   9.484
22007WAT      O66262   6.198   7.165   6.879
22007WAT     H166263   6.244   7.127   6.960
22007WAT     H266264   6.127   7.229   6.908
22008WAT      O66265   6.704   5.441   9.105
22008WAT     H166266   6.666   5.500   9.176
22008WAT     H266267   6.732   5.496   9.027
22009WAT      O66268   4.549   7.236   9.378
22009WAT     H166269   4.557   7.334   9.399
22009WAT     H266270   4.455   7.206   9.395
22010WAT      O66271   8.165   4.471   6.466
22010WAT     H166272   8.124   4.449   6.378
22010WAT     H266273   8.254   4.426   6.473
22011WAT      O66274   5.161   7.112   4.617
22011WAT     H166275   5.144   7.104   4.518
22011WAT     H266276   5.259   7.118   4.634
22012WAT      O66277   0.343   8.341   0.767
22012WAT     H166278   0.275   8.404   0.803
22012WAT     H266279   0.419   8.333   0.832
22013WAT      O66280   8.162   0.243   5.275
22013WAT     H166281   8.063   0.237   5.276
22013WAT     H266282   8.196   0.271   5.365
22014WAT      O66283   7.361   9.329   3.593
22014WAT     H166284   7.280   9.369   3.636
22014WAT     H266285   7.443   9.371   3.632
22015WAT      O66286   7.229   9.335   0.095
22015WAT     H166287   7.311   9.295   0.053
22015WAT     H266288   7.152   9.273   0.081
22016WAT      O66289   8.164   7.912   1.912
22016WAT     H166290   8.232   7.925   1.840
22016WAT     H266291   8.176   7.981   1.983
22017WAT      O66292   2.922   6.688   6.178
22017WAT     H166293   2.888   6.620   6.242
22017WAT     H266294   2.847   6.744   6.144
22018WAT      O66295   4.690   7.627   6.486
22018WAT     H166296   4.731   7.640   6.396
22018WAT     H266297   4.762   7.610   6.553
22019WAT      O66298   0.290   5.494   0.199
22019WAT     H166299   0.321   5.504   0.105
22019WAT     H266300   0.190   5.498   0.202
22020WAT      O66301   8.181   2.967   7.010
22020WAT     H166302   8.238   2.960   6.928
22020WAT     H266303   8.184   3.060   7.046
22021WAT      O66304   4.090   3.865   7.434
22021WAT     H166305   4.094   3.841   7.531
22021WAT     H266306   4.138   3.796   7.381
22022WAT      O66307   9.843   9.550   2.791
22022WAT     H166308   9.865   9.645   2.816
22022WAT     H266309   9.879   9.532   2.699
22023WAT      O66310   6.064   1.191   5.972
22023WAT     H166311   6.159   1.165   5.950
22023WAT     H266312   6.019   1.115   6.019
22024WAT      O66313   1.864   7.890   8.883
22024WAT     H166314   1.850   7.803   8.836
22024WAT     H266315   1.815   7.888   8.970
22025WAT      O66316   7.496   8.454   9.832
22025WAT     H166317   7.464   8.548   9.829
22025WAT     H266318   7.464   8.410   9.916
22026WAT      O66319   1.908   5.675   7.607
22026WAT     H166320   1.939   5.697   7.700
22026WAT     H266321   1.812   5.703   7.597
22027WAT      O66322   1.848   9.227   0.951
22027WAT     H166323   1.944   9.254   0.955
22027WAT     H266324   1.837   9.153   0.885
22028WAT      O66325   1.550   7.523   8.689
22028WAT     H166326   1.623   7.467   8.648
22028WAT     H266327   1.481   7.543   8.619
22029WAT      O66328   8.740   1.535   7.963
22029WAT     H166329   8.731   1.464   8.033
22029WAT     H266330   8.804   1.605   7.995
22030WAT      O66331   0.568   3.993   3.512
22030WAT     H166332   0.529   4.084   3.499
22030WAT     H266333   0.569   3.971   3.610
22031WAT      O66334   0.672   2.719   9.600
22031WAT     H166335   0.708   2.678   9.516
22031WAT     H266336   0.678   2.819   9.593
22032WAT      O66337   0.526   5.606   6.295
22032WAT     H166338   0.537   5.642   6.202
22032WAT     H266339   0.569   5.667   6.360
22033WAT      O66340   9.415   8.323   5.221
22033WAT     H166341   9.384   8.416   5.242
22033WAT     H266342   9.469   8.324   5.137
22034WAT      O66343   3.914   5.765   7.379
22034WAT     H166344   3.986   5.754   7.447
22034WAT     H266345   3.898   5.862   7.361
22035WAT      O66346   2.714   4.164   5.704
22035WAT     H166347   2.770   4.245   5.689
22035WAT     H266348   2.743   4.091   5.642
22036WAT      O66349   7.038   3.335   0.533
22036WAT     H166350   7.015   3.414   0.590
22036WAT     H266351   7.093   3.366   0.455
22037WAT      O66352   9.186   4.424   9.088
22037WAT     H166353   9.133   4.361   9.030
22037WAT     H266354   9.283   4.415   9.067
22038WAT      O66355   5.278   6.254   6.376
22038WAT     H166356   5.333   6.260   6.293
22038WAT     H266357   5.339   6.246   6.455
22039WAT      O66358   6.951   0.813   3.114
22039WAT     H166359   7.021   0.827   3.184
22039WAT     H266360   6.898   0.897   3.103
22040WAT      O66361   7.930   9.481   8.933
22040WAT     H166362   8.004   9.543   8.961
22040WAT     H266363   7.907   9.498   8.837
22041WAT      O66364   0.719   8.801   5.044
22041WAT     H166365   0.620   8.810   5.037
22041WAT     H266366   0.742   8.759   5.132
22042WAT      O66367   7.668   9.665   8.869
22042WAT     H166368   7.759   9.669   8.827
22042WAT     H266369   7.650   9.750   8.918
22043WAT      O66370   4.737   2.033   5.642
22043WAT     H166371   4.702   1.986   5.724
22043WAT     H266372   4.793   1.970   5.589
22044WAT      O66373   4.493   5.567   0.663
22044WAT     H166374   4.425   5.528   0.601
22044WAT     H266375   4.585   5.547   0.628
22045WAT      O66376   2.123   7.844   2.976
22045WAT     H166377   2.143   7.809   2.884
22045WAT     H266378   2.032   7.885   2.976
22046WAT      O66379   7.147   8.159   6.577
22046WAT     H166380   7.144   8.092   6.503
22046WAT     H266381   7.242   8.177   6.602
22047WAT      O66382   5.107   5.607   1.329
22047WAT     H166383   5.120   5.701   1.361
22047WAT     H266384   5.021   5.601   1.278
22048WAT      O66385   1.485   9.529   5.448
22048WAT     H166386   1.407   9.571   5.402
22048WAT     H266387   1.466   9.525   5.547
22049WAT      O66388   5.068   0.367   1.606
22049WAT     H166389   5.130   0.289   1.611
22049WAT     H266390   5.065   0.413   1.694
22050WAT      O66391   0.120   0.401   3.307
22050WAT     H166392   0.118   0.308   3.272
22050WAT     H266393   0.040   0.417   3.365
22051WAT      O66394   4.034   6.382   5.286
22051WAT     H166395   4.052   6.321   5.209
22051WAT     H266396   4.115   6.439   5.303
22052WAT      O66397   8.517   6.877   6.916
22052WAT     H166398   8.494   6.795   6.968
22052WAT     H266399   8.445   6.895   6.849
22053WAT      O66400   3.722   0.135   5.194
22053WAT     H166401   3.715   0.180   5.283
22053WAT     H266402   3.804   0.167   5.146
22054WAT      O66403   3.407   7.685   4.363
22054WAT     H166404   3.381   7.594   4.396
22054WAT     H266405   3.506   7.687   4.347
22055WAT      O66406   6.846   2.315   4.150
22055WAT     H166407   6.836   2.397   4.093
22055WAT     H266408   6.938   2.313   4.189
22056WAT      O66409   7.778   8.897   4.753
22056WAT     H166410   7.754   8.840   4.675
22056WAT     H266411   7.821   8.840   4.824
22057WAT      O66412   8.726   2.424   9.309
22057WAT     H166413   8.680   2.361   9.246
22057WAT     H266414   8.821   2.395   9.321
22058WAT      O66415   4.779   1.117   5.559
22058WAT     H166416   4.708   1.051   5.585
22058WAT     H266417   4.833   1.079   5.484
22059WAT      O66418   1.446   8.574   8.773
22059WAT     H166419   1.405   8.521   8.847
22059WAT     H266420   1.452   8.518   8.691
22060WAT      O66421   0.836   2.156   9.790
22060WAT     H166422   0.812   2.088   9.720
22060WAT     H266423   0.790   2.132   9.876
22061WAT      O66424   7.378   0.065   1.374
22061WAT     H166425   7.438   0.122   1.430
22061WAT     H266426   7.414  -0.028   1.371
22062WAT      O66427   7.819   2.524   1.788
22062WAT     H166428   7.795   2.441   1.738
22062WAT     H266429   7.893   2.504   1.853
22063WAT      O66430   1.331   7.302   4.808
22063WAT     H166431   1.269   7.280   4.732
22063WAT     H266432   1.320   7.234   4.880
22064WAT      O66433   6.144   1.675   2.202
22064WAT     H166434   6.115   1.640   2.291
22064WAT     H266435   6.234   1.638   2.179
22065WAT      O66436   3.815   5.062   4.759
22065WAT     H166437   3.871   5.123   4.704
22065WAT     H266438   3.841   5.070   4.855
22066WAT      O66439   9.319   0.652   1.678
22066WAT     H166440   9.367   0.569   1.707
22066WAT     H266441   9.224   0.630   1.658
22067WAT      O66442   1.990   4.727   1.600
22067WAT     H166443   1.933   4.657   1.642
22067WAT     H266444   2.080   4.689   1.579
22068WAT      O66445   4.181   1.340   4.052
22068WAT     H166446   4.096   1.288   4.051
22068WAT     H266447   4.248   1.295   4.112
22069WAT      O66448   4.288   9.349   9.396
22069WAT     H166449   4.368   9.298   9.365
22069WAT     H266450   4.268   9.422   9.331
22070WAT      O66451   0.429   2.595   6.246
22070WAT     H166452   0.384   2.505   6.252
22070WAT     H266453   0.468   2.619   6.335
22071WAT      O66454   1.079   8.137   8.413
22071WAT     H166455   1.176   8.162   8.412
22071WAT     H266456   1.048   8.129   8.508
22072WAT      O66457   6.012   0.299   9.707
22072WAT     H166458   5.979   0.384   9.666
22072WAT     H266459   5.936   0.250   9.748
22073WAT      O66460   3.146   0.222   0.364
22073WAT     H166461   3.096   0.309   0.362
22073WAT     H266462   3.084   0.149   0.393
22074WAT      O66463   0.025   5.461   5.196
22074WAT     H166464   0.122   5.453   5.173
22074WAT     H266465  -0.006   5.375   5.236
22075WAT      O66466   5.503   7.132   7.404
22075WAT     H166467   5.518   7.040   7.438
22075WAT     H266468   5.429   7.176   7.455
22076WAT      O66469   6.225   7.063   0.273
22076WAT     H166470   6.219   7.088   0.370
22076WAT     H266471   6.174   6.978   0.258
22077WAT      O66472   8.875   6.774   3.651
22077WAT     H166473   8.786   6.742   3.685
22077WAT     H266474   8.863   6.864   3.610
22078WAT      O66475   6.789   6.663   2.577
22078WAT     H166476   6.865   6.632   2.520
22078WAT     H266477   6.734   6.730   2.526
22079WAT      O66478   2.828   8.640   9.173
22079WAT     H166479   2.902   8.679   9.228
22079WAT     H266480   2.748   8.626   9.231
22080WAT      O66481   5.915   0.433   3.613
22080WAT     H166482   5.975   0.477   3.546
22080WAT     H266483   5.967   0.362   3.661
22081WAT      O66484   3.215   7.122   8.544
22081WAT     H166485   3.127   7.100   8.501
22081WAT     H266486   3.236   7.219   8.529
22082WAT      O66487   6.421   1.511   0.217
22082WAT     H166488   6.469   1.587   0.175
22082WAT     H266489   6.447   1.504   0.313
22083WAT      O66490   3.840   0.907   1.737
22083WAT     H166491   3.909   0.963   1.692
22083WAT     H266492   3.883   0.827   1.777
22084WAT      O66493   5.717   0.888   1.611
22084WAT     H166494   5.667   0.829   1.674
22084WAT     H266495   5.667   0.973   1.599
22085WAT      O66496   8.100   4.666   7.796
22085WAT     H166497   8.083   4.573   7.827
22085WAT     H266498   8.016   4.704   7.759
22086WAT      O66499   4.998   8.257   1.805
22086WAT     H166500   5.053   8.175   1.817
22086WAT     H266501   4.907   8.242   1.843
22087WAT      O66502   0.347   9.652   3.635
22087WAT     H166503   0.250   9.642   3.616
22087WAT     H266504   0.387   9.561   3.653
22088WAT      O66505   9.464   1.118   5.748
22088WAT     H166506   9.444   1.138   5.652
22088WAT     H266507   9.390   1.152   5.805
22089WAT      O66508   2.995   2.190   9.198
22089WAT     H166509   3.034   2.186   9.105
22089WAT     H266510   3.068   2.174   9.265
22090WAT      O66511   9.765   5.346   9.332
22090WAT     H166512   9.789   5.280   9.404
22090WAT     H266513   9.815   5.431   9.347
22091WAT      O66514   1.662   6.418   5.277
22091WAT     H166515   1.625   6.387   5.189
22091WAT     H266516   1.743   6.365   5.299
22092WAT      O66517   5.233   9.672   7.321
22092WAT     H166518   5.218   9.765   7.287
22092WAT     H266519   5.248   9.675   7.420
22093WAT      O66520   2.194   3.894   8.483
22093WAT     H166521   2.106   3.859   8.514
22093WAT     H266522   2.214   3.980   8.529
22094WAT      O66523   3.145   9.109   0.933
22094WAT     H166524   3.050   9.081   0.917
22094WAT     H266525   3.205   9.058   0.872
22095WAT      O66526   6.060   9.310   1.802
22095WAT     H166527   6.119   9.230   1.815
22095WAT     H266528   6.051   9.329   1.705
22096WAT      O66529   3.424   6.713   5.039
22096WAT     H166530   3.487   6.653   5.087
22096WAT     H266531   3.441   6.808   5.067
22097WAT      O66532   4.942   7.030   2.005
22097WAT     H166533   4.923   7.063   1.912
22097WAT     H266534   5.030   7.065   2.036
22098WAT      O66535   5.650   7.575   7.451
22098WAT     H166536   5.667   7.478   7.435
22098WAT     H266537   5.660   7.625   7.365
22099WAT      O66538   2.968   1.579   0.276
22099WAT     H166539   3.008   1.516   0.210
22099WAT     H266540   2.914   1.527   0.343
22100WAT      O66541   8.964   6.263   3.988
22100WAT     H166542   9.008   6.196   3.928
22100WAT     H266543   8.916   6.215   4.061
22101WAT      O66544   8.054   3.026   9.846
22101WAT     H166545   8.138   3.081   9.845
22101WAT     H266546   7.998   3.049   9.767
22102WAT      O66547   6.271   0.452   5.207
22102WAT     H166548   6.329   0.371   5.214
22102WAT     H266549   6.226   0.469   5.294
22103WAT      O66550   6.397   9.172   3.372
22103WAT     H166551   6.495   9.163   3.351
22103WAT     H266552   6.386   9.198   3.468
22104WAT      O66553   4.884   0.765   7.039
22104WAT     H166554   4.906   0.804   7.128
22104WAT     H266555   4.786   0.778   7.021
22105WAT      O66556   6.359   1.094   2.816
22105WAT     H166557   6.316   1.110   2.728
22105WAT     H266558   6.299   1.039   2.874
22106WAT      O66559   2.679   6.379   5.510
22106WAT     H166560   2.773   6.401   5.537
22106WAT     H266561   2.641   6.453   5.455
22107WAT      O66562   7.594   2.653   3.322
22107WAT     H166563   7.594   2.711   3.240
22107WAT     H266564   7.544   2.699   3.395
22108WAT      O66565   1.181   3.246   6.995
22108WAT     H166566   1.176   3.146   6.993
22108WAT     H266567   1.252   3.274   7.060
22109WAT      O66568   8.393   3.881   6.317
22109WAT     H166569   8.298   3.914   6.312
22109WAT     H266570   8.439   3.899   6.230
22110WAT      O66571   9.305   7.263   3.098
22110WAT     H166572   9.313   7.256   2.998
22110WAT     H266573   9.308   7.360   3.124
22111WAT      O66574   1.282   4.843   5.919
22111WAT     H166575   1.331   4.853   6.006
22111WAT     H266576   1.189   4.881   5.928
22112WAT      O66577   2.032   7.065   5.632
22112WAT     H166578   2.069   7.096   5.720
22112WAT     H266579   2.080   7.110   5.557
22113WAT      O66580   2.169   9.789   3.973
22113WAT     H166581   2.095   9.848   3.941
22113WAT     H266582   2.134   9.696   3.986
22114WAT      O66583   9.618   6.864   9.461
22114WAT     H166584   9.714   6.886   9.441
22114WAT     H266585   9.611   6.767   9.486
22115WAT      O66586   7.976   7.238   9.137
22115WAT     H166587   8.029   7.214   9.218
22115WAT     H266588   7.909   7.166   9.117
22116WAT      O66589   0.545   8.054   3.301
22116WAT     H166590   0.468   8.032   3.240
22116WAT     H266591   0.556   8.154   3.306
22117WAT      O66592   7.651   4.486   9.768
22117WAT     H166593   7.686   4.452   9.681
22117WAT     H266594   7.680   4.426   9.842
22118WAT      O66595   2.134   4.608   5.822
22118WAT     H166596   2.222   4.651   5.843
22118WAT     H266597   2.081   4.598   5.906
22119WAT      O66598   9.229   9.826   2.826
22119WAT     H166599   9.239   9.807   2.924
22119WAT     H266600   9.134   9.807   2.799
22120WAT      O66601   0.017   2.833   2.988
22120WAT     H166602  -0.057   2.824   2.921
22120WAT     H266603  -0.010   2.898   3.059
22121WAT      O66604   9.297   9.165   6.702
22121WAT     H166605   9.250   9.196   6.619
22121WAT     H266606   9.231   9.129   6.767
22122WAT      O66607   1.225   4.245   9.375
22122WAT     H166608   1.267   4.336   9.369
22122WAT     H266609   1.237   4.197   9.288
22123WAT      O66610   0.669   4.034   8.775
22123WAT     H166611   0.741   4.094   8.809
22123WAT     H266612   0.587   4.088   8.757
22124WAT      O66613   5.639   7.009   9.093
22124WAT     H166614   5.573   7.076   9.058
22124WAT     H266615   5.717   7.004   9.030
22125WAT      O66616   8.202   4.284   0.126
22125WAT     H166617   8.288   4.311   0.170
22125WAT     H266618   8.146   4.233   0.191
22126WAT      O66619   4.420   2.550   6.004
22126WAT     H166620   4.501   2.548   5.946
22126WAT     H266621   4.412   2.640   6.047
22127WAT      O66622   3.746   7.292   5.319
22127WAT     H166623   3.740   7.356   5.242
22127WAT     H266624   3.716   7.337   5.402
22128WAT      O66625   8.648   1.221   3.333
22128WAT     H166626   8.632   1.201   3.429
22128WAT     H266627   8.704   1.304   3.324
22129WAT      O66628   3.821   1.390   3.499
22129WAT     H166629   3.816   1.360   3.404
22129WAT     H266630   3.900   1.450   3.510
22130WAT      O66631   9.729   8.272   7.298
22130WAT     H166632   9.812   8.316   7.332
22130WAT     H266633   9.662   8.342   7.274
22131WAT      O66634   3.790   7.298   3.801
22131WAT     H166635   3.781   7.247   3.716
22131WAT     H266636   3.709   7.355   3.815
22132WAT      O66637   1.931   7.852   9.325
22132WAT     H166638   2.025   7.879   9.303
22132WAT     H266639   1.903   7.894   9.410
22133WAT      O66640   5.777   2.343   1.834
22133WAT     H166641   5.785   2.385   1.744
22133WAT     H266642   5.685   2.307   1.845
22134WAT      O66643   6.212   2.421   1.510
22134WAT     H166644   6.187   2.516   1.526
22134WAT     H266645   6.214   2.372   1.597
22135WAT      O66646   1.990   8.292   7.275
22135WAT     H166647   1.893   8.290   7.249
22135WAT     H266648   1.998   8.274   7.373
22136WAT      O66649   2.906   8.326   0.834
22136WAT     H166650   2.873   8.398   0.773
22136WAT     H266651   2.862   8.240   0.811
22137WAT      O66652   3.184   4.498   3.265
22137WAT     H166653   3.252   4.425   3.265
22137WAT     H266654   3.092   4.459   3.267
22138WAT      O66655   6.063   4.955   8.257
22138WAT     H166656   6.056   4.896   8.338
22138WAT     H266657   6.145   5.011   8.264
22139WAT      O66658   7.254   5.049   2.175
22139WAT     H166659   7.348   5.063   2.206
22139WAT     H266660   7.194   5.037   2.255
22140WAT      O66661   9.042   9.733   3.389
22140WAT     H166662   9.116   9.670   3.368
22140WAT     H266663   8.954   9.686   3.381
22141WAT      O66664   0.047   1.239   4.287
22141WAT     H166665   0.024   1.309   4.354
22141WAT     H266666  -0.015   1.246   4.208
22142WAT      O66667   9.111   2.555   1.903
22142WAT     H166668   9.021   2.560   1.860
22142WAT     H266669   9.170   2.625   1.863
22143WAT      O66670   7.862   9.327   2.815
22143WAT     H166671   7.830   9.347   2.722
22143WAT     H266672   7.803   9.258   2.857
22144WAT      O66673   5.075   4.011   2.657
22144WAT     H166674   5.172   3.986   2.652
22144WAT     H266675   5.046   4.049   2.569
22145WAT      O66676   5.185   0.796   1.122
22145WAT     H166677   5.176   0.860   1.198
22145WAT     H266678   5.138   0.833   1.042
22146WAT      O66679   9.490   2.615   1.132
22146WAT     H166680   9.530   2.640   1.044
22146WAT     H266681   9.438   2.692   1.168
22147WAT      O66682   3.800   8.873   1.833
22147WAT     H166683   3.898   8.881   1.816
22147WAT     H266684   3.783   8.869   1.932
22148WAT      O66685   8.492   5.946   1.528
22148WAT     H166686   8.573   5.975   1.477
22148WAT     H266687   8.410   5.974   1.478
22149WAT      O66688   8.470   3.616   6.238
22149WAT     H166689   8.413   3.636   6.159
22149WAT     H266690   8.460   3.689   6.306
22150WAT      O66691   3.962   4.157   4.478
22150WAT     H166692   4.035   4.089   4.476
22150WAT     H266693   3.979   4.222   4.551
22151WAT      O66694   8.440   8.754   4.839
22151WAT     H166695   8.504   8.768   4.915
22151WAT     H266696   8.447   8.660   4.805
22152WAT      O66697   1.452   4.006   6.683
22152WAT     H166698   1.449   3.924   6.626
22152WAT     H266699   1.546   4.027   6.708
22153WAT      O66700   4.033   3.829   1.889
22153WAT     H166701   3.984   3.897   1.835
22153WAT     H266702   4.095   3.777   1.829
22154WAT      O66703   2.137   2.080   5.358
22154WAT     H166704   2.210   2.148   5.353
22154WAT     H266705   2.082   2.095   5.440
22155WAT      O66706   6.868   5.713   9.152
22155WAT     H166707   6.955   5.666   9.166
22155WAT     H266708   6.857   5.784   9.222
22156WAT      O66709   7.969   0.811   3.500
22156WAT     H166710   8.021   0.799   3.416
22156WAT     H266711   7.872   0.825   3.477
22157WAT      O66712   6.483   0.818   8.223
22157WAT     H166713   6.561   0.802   8.283
22157WAT     H266714   6.433   0.899   8.253
22158WAT      O66715   3.473   4.479   8.909
22158WAT     H166716   3.374   4.475   8.921
22158WAT     H266717   3.497   4.557   8.851
22159WAT      O66718   7.549   9.420   2.493
22159WAT     H166719   7.527   9.360   2.416
22159WAT     H266720   7.464   9.450   2.537
22160WAT      O66721   8.835   2.315   0.119
22160WAT     H166722   8.814   2.316   0.217
22160WAT     H266723   8.803   2.229   0.079
22161WAT      O66724   6.413   5.815   1.721
22161WAT     H166725   6.340   5.878   1.748
22161WAT     H266726   6.428   5.823   1.623
22162WAT      O66727   6.782   5.520   5.767
22162WAT     H166728   6.684   5.502   5.765
22162WAT     H266729   6.802   5.606   5.720
22163WAT      O66730   8.988   9.415   2.790
22163WAT     H166731   8.924   9.475   2.836
22163WAT     H266732   8.939   9.361   2.721
22164WAT      O66733   9.375   5.702   6.618
22164WAT     H166734   9.390   5.760   6.538
22164WAT     H266735   9.430   5.619   6.610
22165WAT      O66736   0.156   7.011   3.531
22165WAT     H166737   0.178   7.102   3.566
22165WAT     H266738   0.088   7.019   3.459
22166WAT      O66739   8.026   5.031   5.663
22166WAT     H166740   8.086   4.952   5.671
22166WAT     H266741   7.982   5.049   5.751
22167WAT      O66742   1.147   6.175   8.133
22167WAT     H166743   1.219   6.176   8.202
22167WAT     H266744   1.187   6.197   8.043
22168WAT      O66745   1.928   5.221   7.065
22168WAT     H166746   1.896   5.152   7.130
22168WAT     H266747   1.942   5.178   6.976
22169WAT      O66748   3.259   1.138   8.138
22169WAT     H166749   3.286   1.221   8.185
22169WAT     H266750   3.331   1.110   8.074
22170WAT      O66751   7.579   5.753   2.976
22170WAT     H166752   7.481   5.770   2.967
22170WAT     H266753   7.625   5.773   2.890
22171WAT      O66754   7.860   8.182   3.833
22171WAT     H166755   7.897   8.090   3.823
22171WAT     H266756   7.872   8.212   3.928
22172WAT      O66757   2.454   7.872   2.348
22172WAT     H166758   2.443   7.785   2.396
22172WAT     H266759   2.546   7.876   2.309
22173WAT      O66760   3.904   9.288   4.259
22173WAT     H166761   3.849   9.205   4.269
22173WAT     H266762   3.880   9.333   4.173
22174WAT      O66763   1.968   4.944   9.705
22174WAT     H166764   1.951   4.856   9.660
22174WAT     H266765   1.881   4.987   9.728
22175WAT      O66766   9.016   3.566   3.915
22175WAT     H166767   8.950   3.561   3.840
22175WAT     H266768   9.007   3.654   3.961
22176WAT      O66769   5.139   7.924   6.811
22176WAT     H166770   5.079   7.984   6.866
22176WAT     H266771   5.087   7.844   6.782
22177WAT      O66772   6.451   9.248   1.994
22177WAT     H166773   6.424   9.269   2.088
22177WAT     H266774   6.519   9.175   1.995
22178WAT      O66775   5.432   8.843   8.804
22178WAT     H166776   5.382   8.856   8.889
22178WAT     H266777   5.513   8.787   8.821
22179WAT      O66778   8.639   8.897   1.442
22179WAT     H166779   8.655   8.990   1.476
22179WAT     H266780   8.575   8.901   1.365
22180WAT      O66781   2.732   5.903   0.353
22180WAT     H166782   2.737   5.806   0.329
22180WAT     H266783   2.775   5.918   0.442
22181WAT      O66784   6.790   9.563   8.683
22181WAT     H166785   6.840   9.606   8.758
22181WAT     H266786   6.700   9.534   8.715
22182WAT      O66787   7.340   8.613   4.223
22182WAT     H166788   7.336   8.663   4.310
22182WAT     H266789   7.253   8.566   4.208
22183WAT      O66790   0.667   5.788   8.449
22183WAT     H166791   0.627   5.807   8.360
22183WAT     H266792   0.620   5.711   8.492
22184WAT      O66793   6.228   0.889   7.473
22184WAT     H166794   6.305   0.940   7.434
22184WAT     H266795   6.239   0.883   7.572
22185WAT      O66796   0.102   3.664   1.576
22185WAT     H166797   0.122   3.567   1.565
22185WAT     H266798   0.187   3.715   1.584
22186WAT      O66799   2.163   8.524   9.614
22186WAT     H166800   2.131   8.609   9.657
22186WAT     H266801   2.129   8.520   9.520
22187WAT      O66802   8.078   6.780   8.617
22187WAT     H166803   7.999   6.820   8.570
22187WAT     H266804   8.046   6.727   8.695
22188WAT      O66805   3.169   1.348   6.983
22188WAT     H166806   3.127   1.424   6.934
22188WAT     H266807   3.134   1.262   6.948
22189WAT      O66808   7.767   4.153   1.435
22189WAT     H166809   7.845   4.099   1.403
22189WAT     H266810   7.799   4.223   1.500
22190WAT      O66811   5.426   1.340   8.339
22190WAT     H166812   5.424   1.240   8.341
22190WAT     H266813   5.431   1.376   8.432
22191WAT      O66814   4.939   4.920   8.286
22191WAT     H166815   4.968   4.892   8.378
22191WAT     H266816   4.841   4.902   8.276
22192WAT      O66817   7.202   0.077   9.211
22192WAT     H166818   7.261   0.057   9.290
22192WAT     H266819   7.233   0.161   9.166
22193WAT      O66820   8.876   7.905   0.336
22193WAT     H166821   8.966   7.898   0.379
22193WAT     H266822   8.886   7.945   0.245
22194WAT      O66823   8.632   5.960   5.224
22194WAT     H166824   8.685   5.953   5.309
22194WAT     H266825   8.691   5.940   5.146
22195WAT      O66826   9.680   7.400   3.463
22195WAT     H166827   9.591   7.433   3.432
22195WAT     H266828   9.683   7.300   3.454
22196WAT      O66829   4.418   3.490   0.623
22196WAT     H166830   4.502   3.450   0.588
22196WAT     H266831   4.425   3.590   0.623
22197WAT      O66832   5.032   7.250   7.319
22197WAT     H166833   5.043   7.212   7.227
22197WAT     H266834   4.946   7.217   7.359
22198WAT      O66835   6.893   9.794   6.508
22198WAT     H166836   6.990   9.772   6.515
22198WAT     H266837   6.856   9.812   6.599
22199WAT      O66838   8.062   0.072   7.953
22199WAT     H166839   8.106   0.043   7.868
22199WAT     H266840   7.974   0.116   7.932
22200WAT      O66841   6.743   9.611   7.767
22200WAT     H166842   6.800   9.617   7.849
22200WAT     H266843   6.647   9.627   7.792
22201WAT      O66844   1.141   1.934   5.931
22201WAT     H166845   1.045   1.960   5.926
22201WAT     H266846   1.170   1.933   6.027
22202WAT      O66847   4.240   0.804   2.161
22202WAT     H166848   4.164   0.796   2.225
22202WAT     H266849   4.208   0.784   2.068
22203WAT      O66850   8.427   9.412   3.483
22203WAT     H166851   8.357   9.348   3.514
22203WAT     H266852   8.435   9.488   3.548
22204WAT      O66853   9.059   8.706   3.171
22204WAT     H166854   8.990   8.767   3.130
22204WAT     H266855   9.130   8.688   3.103
22205WAT      O66856   3.200   2.156   3.780
22205WAT     H166857   3.287   2.108   3.775
22205WAT     H266858   3.177   2.172   3.877
22206WAT      O66859   4.121   8.272   5.948
22206WAT     H166860   4.056   8.292   5.875
22206WAT     H266861   4.082   8.207   6.012
22207WAT      O66862   4.118   3.124   5.094
22207WAT     H166863   4.211   3.144   5.064
22207WAT     H266864   4.060   3.203   5.075
22208WAT      O66865   6.077   9.468   3.199
22208WAT     H166866   5.995   9.506   3.241
22208WAT     H266867   6.156   9.488   3.256
22209WAT      O66868   6.348   3.632   3.297
22209WAT     H166869   6.338   3.639   3.198
22209WAT     H266870   6.266   3.590   3.336
22210WAT      O66871   9.449   3.290   7.803
22210WAT     H166872   9.419   3.379   7.840
22210WAT     H266873   9.379   3.255   7.741
22211WAT      O66874   6.833   3.801   2.893
22211WAT     H166875   6.826   3.801   2.993
22211WAT     H266876   6.866   3.712   2.862
22212WAT      O66877   4.188   4.286   6.013
22212WAT     H166878   4.265   4.304   6.074
22212WAT     H266879   4.130   4.367   6.007
22213WAT      O66880   5.630   2.359   5.474
22213WAT     H166881   5.544   2.405   5.493
22213WAT     H266882   5.649   2.293   5.547
22214WAT      O66883   6.574   5.614   5.982
22214WAT     H166884   6.582   5.515   5.990
22214WAT     H266885   6.664   5.654   5.966
22215WAT      O66886   5.358   9.830   6.265
22215WAT     H166887   5.405   9.813   6.178
22215WAT     H266888   5.289   9.902   6.251
22216WAT      O66889   4.940   8.154   9.239
22216WAT     H166890   4.962   8.250   9.220
22216WAT     H266891   4.841   8.145   9.251
22217WAT      O66892   1.249   0.886   0.472
22217WAT     H166893   1.155   0.853   0.477
22217WAT     H266894   1.309   0.811   0.443
22218WAT      O66895   2.844   5.140   4.876
22218WAT     H166896   2.905   5.198   4.822
22218WAT     H266897   2.822   5.058   4.822
22219WAT      O66898   6.853   2.482   3.249
22219WAT     H166899   6.948   2.512   3.243
22219WAT     H266900   6.831   2.425   3.170
22220WAT      O66901   0.491   4.104   4.727
22220WAT     H166902   0.441   4.138   4.648
22220WAT     H266903   0.478   4.166   4.805
22221WAT      O66904   8.293   0.114   7.390
22221WAT     H166905   8.353   0.116   7.310
22221WAT     H266906   8.345   0.138   7.472
22222WAT      O66907   8.413   1.587   1.741
22222WAT     H166908   8.415   1.489   1.724
22222WAT     H266909   8.433   1.636   1.657
22223WAT      O66910   7.157   1.183   4.159
22223WAT     H166911   7.095   1.231   4.096
22223WAT     H266912   7.242   1.235   4.167
22224WAT      O66913   3.629   0.649   9.410
22224WAT     H166914   3.673   0.738   9.396
22224WAT     H266915   3.683   0.595   9.473
22225WAT      O66916   5.996   2.302   6.707
22225WAT     H166917   5.919   2.278   6.648
22225WAT     H266918   5.970   2.286   6.803
22226WAT      O66919   8.057   8.342   9.808
22226WAT     H166920   8.021   8.434   9.823
22226WAT     H266921   7.986   8.284   9.768
22227WAT      O66922   2.448   2.160   7.620
22227WAT     H166923   2.350   2.153   7.604
22227WAT     H266924   2.497   2.116   7.544
22228WAT      O66925   2.183   7.942   9.251
22228WAT     H166926   2.199   7.998   9.333
22228WAT     H266927   2.250   7.967   9.180
22229WAT      O66928   4.538   0.620   8.592
22229WAT     H166929   4.490   0.558   8.654
22229WAT     H266930   4.494   0.617   8.502
22230WAT      O66931   0.317   3.875   3.784
22230WAT     H166932   0.260   3.868   3.702
22230WAT     H266933   0.339   3.783   3.817
22231WAT      O66934   3.167   3.085   2.095
22231WAT     H166935   3.116   3.145   2.033
22231WAT     H266936   3.104   3.036   2.155
22232WAT      O66937   6.476   1.661   6.457
22232WAT     H166938   6.531   1.593   6.505
22232WAT     H266939   6.425   1.715   6.524
22233WAT      O66940   1.382   7.770   4.652
22233WAT     H166941   1.297   7.803   4.611
22233WAT     H266942   1.361   7.714   4.732
22234WAT      O66943   7.117   4.408   4.857
22234WAT     H166944   7.163   4.447   4.777
22234WAT     H266945   7.018   4.421   4.848
22235WAT      O66946   0.894   9.577   7.818
22235WAT     H166947   0.829   9.539   7.884
22235WAT     H266948   0.845   9.634   7.752
22236WAT      O66949   2.998   8.384   8.468
22236WAT     H166950   2.914   8.392   8.523
22236WAT     H266951   2.976   8.400   8.372
22237WAT      O66952   3.450   0.278   2.376
22237WAT     H166953   3.471   0.373   2.356
22237WAT     H266954   3.494   0.251   2.462
22238WAT      O66955   4.193   6.756   3.437
22238WAT     H166956   4.109   6.754   3.491
22238WAT     H266957   4.272   6.755   3.497
22239WAT      O66958   3.725   6.590   9.823
22239WAT     H166959   3.787   6.649   9.771
22239WAT     H266960   3.778   6.517   9.868
22240WAT      O66961   6.935   2.667   7.669
22240WAT     H166962   6.892   2.753   7.642
22240WAT     H266963   6.939   2.662   7.769
22241WAT      O66964   5.247   9.773   2.710
22241WAT     H166965   5.215   9.794   2.617
22241WAT     H266966   5.265   9.674   2.717
22242WAT      O66967   9.472   4.926   7.262
22242WAT     H166968   9.383   4.938   7.218
22242WAT     H266969   9.511   4.837   7.237
22243WAT      O66970   9.338   6.814   8.036
22243WAT     H166971   9.412   6.754   8.067
22243WAT     H266972   9.251   6.777   8.068
22244WAT      O66973   7.479   0.102   0.734
22244WAT     H166974   7.530   0.110   0.820
22244WAT     H266975   7.485   0.188   0.684
22245WAT      O66976   6.696   9.053   2.298
22245WAT     H166977   6.781   9.037   2.349
22245WAT     H266978   6.619   9.012   2.347
22246WAT      O66979   0.807   6.039   5.032
22246WAT     H166980   0.774   5.966   4.971
22246WAT     H266981   0.733   6.104   5.049
22247WAT      O66982   2.898   4.575   1.601
22247WAT     H166983   2.988   4.616   1.616
22247WAT     H266984   2.862   4.603   1.513
22248WAT      O66985   2.025   0.149   5.797
22248WAT     H166986   1.945   0.188   5.841
22248WAT     H266987   2.096   0.132   5.865
22249WAT      O66988   4.960   7.642   7.243
22249WAT     H166989   4.865   7.643   7.213
22249WAT     H266990   5.006   7.725   7.212
22250WAT      O66991   3.656   3.868   7.677
22250WAT     H166992   3.711   3.795   7.636
22250WAT     H266993   3.669   3.952   7.626
22251WAT      O66994   1.006   5.973   9.551
22251WAT     H166995   1.042   6.060   9.585
22251WAT     H266996   1.038   5.899   9.611
22252WAT      O66997   4.840   8.190   8.909
22252WAT     H166998   4.816   8.132   8.831
22252WAT     H266999   4.766   8.186   8.977
22253WAT      O67000   2.805   4.873   4.260
22253WAT     H167001   2.895   4.881   4.217
22253WAT     H267002   2.734   4.887   4.190
22254WAT      O67003   2.438   0.510   7.731
22254WAT     H167004   2.458   0.454   7.811
22254WAT     H267005   2.424   0.451   7.651
22255WAT      O67006   9.586   4.450   0.235
22255WAT     H167007   9.606   4.353   0.220
22255WAT     H267008   9.568   4.466   0.332
22256WAT      O67009   3.648   5.664   9.801
22256WAT     H167010   3.645   5.657   9.701
22256WAT     H267011   3.646   5.760   9.827
22257WAT      O67012   0.938   1.821   2.595
22257WAT     H167013   0.842   1.819   2.567
22257WAT     H267014   0.976   1.728   2.591
22258WAT      O67015   2.717   6.460   9.275
22258WAT     H167016   2.643   6.397   9.297
22258WAT     H267017   2.785   6.459   9.349
22259WAT      O67018   2.973   5.363   7.631
22259WAT     H167019   2.978   5.263   7.630
22259WAT     H267020   2.889   5.393   7.586
22260WAT      O67021   1.511   3.115   4.262
22260WAT     H167022   1.558   3.151   4.342
22260WAT     H267023   1.412   3.128   4.273
22261WAT      O67024   2.483   1.022   9.480
22261WAT     H167025   2.445   0.979   9.562
22261WAT     H267026   2.486   0.955   9.406
22262WAT      O67027   8.068   4.276   2.875
22262WAT     H167028   8.041   4.179   2.869
22262WAT     H267029   8.157   4.288   2.832
22263WAT      O67030   7.765   2.839   7.219
22263WAT     H167031   7.858   2.830   7.183
22263WAT     H267032   7.720   2.749   7.216
22264WAT      O67033   0.180   9.529   1.511
22264WAT     H167034   0.101   9.581   1.544
22264WAT     H267035   0.264   9.568   1.549
22265WAT      O67036   6.301   9.484   4.162
22265WAT     H167037   6.301   9.528   4.072
22265WAT     H267038   6.394   9.454   4.184
22266WAT      O67039   3.896   6.203   7.640
22266WAT     H167040   3.989   6.170   7.625
22266WAT     H267041   3.840   6.127   7.675
22267WAT      O67042   1.809   5.239   9.109
22267WAT     H167043   1.809   5.311   9.179
22267WAT     H267044   1.903   5.211   9.090
22268WAT      O67045   9.272   5.646   8.585
22268WAT     H167046   9.347   5.584   8.563
22268WAT     H267047   9.218   5.608   8.660
22269WAT      O67048   2.426   3.356   0.210
22269WAT     H167049   2.456   3.281   0.152
22269WAT     H267050   2.504   3.393   0.260
22270WAT      O67051   7.612   4.441   1.959
22270WAT     H167052   7.568   4.516   1.911
22270WAT     H267053   7.711   4.457   1.963
22271WAT      O67054   0.322   6.470   1.088
22271WAT     H167055   0.360   6.474   0.996
22271WAT     H267056   0.222   6.464   1.082
22272WAT      O67057   8.741   5.686   4.701
22272WAT     H167058   8.642   5.677   4.688
22272WAT     H267059   8.771   5.623   4.773
22273WAT      O67060   7.029   1.502   6.987
22273WAT     H167061   6.973   1.478   6.908
22273WAT     H267062   7.013   1.598   7.011
22274WAT      O67063   5.739   6.607   8.579
22274WAT     H167064   5.765   6.562   8.494
22274WAT     H267065   5.671   6.678   8.560
22275WAT      O67066   8.927   0.057   0.125
22275WAT     H167067   8.875  -0.004   0.184
22275WAT     H267068   9.025   0.043   0.141
22276WAT      O67069   2.009   5.727   1.499
22276WAT     H167070   2.038   5.802   1.439
22276WAT     H267071   1.910   5.720   1.497
22277WAT      O67072   0.987   1.456   5.199
22277WAT     H167073   0.991   1.484   5.295
22277WAT     H267074   0.931   1.521   5.148
22278WAT      O67075   3.369   9.018   8.901
22278WAT     H167076   3.360   9.099   8.960
22278WAT     H267077   3.278   8.979   8.886
22279WAT      O67078   3.000   3.926   1.460
22279WAT     H167079   2.904   3.924   1.488
22279WAT     H267080   3.025   4.019   1.434
22280WAT      O67081   4.901   7.386   2.904
22280WAT     H167082   4.905   7.379   3.003
22280WAT     H267083   4.841   7.462   2.879
22281WAT      O67084   8.604   3.696   7.637
22281WAT     H167085   8.585   3.601   7.611
22281WAT     H267086   8.656   3.698   7.722
22282WAT      O67087   6.932   3.004   5.494
22282WAT     H167088   6.972   3.084   5.449
22282WAT     H267089   6.959   2.921   5.445
22283WAT      O67090   7.759   6.053   1.389
22283WAT     H167091   7.815   5.970   1.384
22283WAT     H267092   7.818   6.133   1.397
22284WAT      O67093   1.551   9.341   8.559
22284WAT     H167094   1.598   9.288   8.630
22284WAT     H267095   1.453   9.324   8.565
22285WAT      O67096   7.486   4.491   0.859
22285WAT     H167097   7.457   4.432   0.934
22285WAT     H267098   7.465   4.586   0.881
22286WAT      O67099   0.983   4.544   4.128
22286WAT     H167100   0.924   4.468   4.153
22286WAT     H267101   1.011   4.594   4.210
22287WAT      O67102   4.473   2.751   8.284
22287WAT     H167103   4.409   2.742   8.208
22287WAT     H267104   4.543   2.818   8.261
22288WAT      O67105   3.139   1.452   2.277
22288WAT     H167106   3.208   1.491   2.338
22288WAT     H267107   3.117   1.519   2.206
22289WAT      O67108   9.342   8.308   6.560
22289WAT     H167109   9.274   8.293   6.632
22289WAT     H267110   9.370   8.220   6.522
22290WAT      O67111   0.622   2.192   3.264
22290WAT     H167112   0.565   2.255   3.315
22290WAT     H267113   0.648   2.115   3.322
22291WAT      O67114   3.960   1.653   4.892
22291WAT     H167115   3.874   1.603   4.890
22291WAT     H267116   3.949   1.737   4.945
22292WAT      O67117   9.733   4.240   7.746
22292WAT     H167118   9.764   4.160   7.694
22292WAT     H267119   9.788   4.251   7.828
22293WAT      O67120   0.537   5.271   7.453
22293WAT     H167121   0.630   5.258   7.487
22293WAT     H267122   0.533   5.252   7.355
22294WAT      O67123   4.846   8.937   7.597
22294WAT     H167124   4.913   8.929   7.671
22294WAT     H267125   4.878   9.005   7.531
22295WAT      O67126   7.351   3.744   4.122
22295WAT     H167127   7.314   3.717   4.033
22295WAT     H267128   7.380   3.839   4.119
22296WAT      O67129   1.151   7.148   7.339
22296WAT     H167130   1.211   7.080   7.381
22296WAT     H267131   1.058   7.112   7.334
22297WAT      O67132   9.038   5.441   3.949
22297WAT     H167133   9.018   5.503   3.873
22297WAT     H267134   8.983   5.358   3.938
22298WAT      O67135   0.171   9.733   5.520
22298WAT     H167136   0.180   9.711   5.617
22298WAT     H267137   0.097   9.679   5.481
22299WAT      O67138   4.365   5.419   0.440
22299WAT     H167139   4.389   5.339   0.496
22299WAT     H267140   4.432   5.427   0.365
22300WAT      O67141   4.766   1.313   5.312
22300WAT     H167142   4.757   1.216   5.330
22300WAT     H267143   4.677   1.357   5.318
22301WAT      O67144   6.201   2.261   3.917
22301WAT     H167145   6.272   2.300   3.858
22301WAT     H267146   6.113   2.303   3.894
22302WAT      O67147   6.340   1.353   8.487
22302WAT     H167148   6.405   1.411   8.438
22302WAT     H267149   6.281   1.307   8.421
22303WAT      O67150   0.512   5.482   6.614
22303WAT     H167151   0.419   5.446   6.603
22303WAT     H267152   0.565   5.421   6.673
22304WAT      O67153   0.207   2.514   4.370
22304WAT     H167154   0.294   2.558   4.388
22304WAT     H267155   0.195   2.435   4.430
22305WAT      O67156   7.288   5.214   7.863
22305WAT     H167157   7.241   5.155   7.797
22305WAT     H267158   7.385   5.192   7.865
22306WAT      O67159   7.329   5.412   6.181
22306WAT     H167160   7.399   5.343   6.162
22306WAT     H267161   7.331   5.435   6.279
22307WAT      O67162   8.974   4.494   2.662
22307WAT     H167163   8.957   4.450   2.750
22307WAT     H267164   8.912   4.573   2.653
22308WAT      O67165   2.623   5.059   3.841
22308WAT     H167166   2.599   4.963   3.826
22308WAT     H267167   2.722   5.067   3.855
22309WAT      O67168   9.384   3.886   2.687
22309WAT     H167169   9.379   3.853   2.593
22309WAT     H267170   9.478   3.877   2.721
22310WAT      O67171   9.256   2.153   6.123
22310WAT     H167172   9.188   2.225   6.108
22310WAT     H267173   9.216   2.081   6.179
22311WAT      O67174   5.496   2.658   5.083
22311WAT     H167175   5.421   2.591   5.087
22311WAT     H267176   5.576   2.616   5.041
22312WAT      O67177   5.284   6.739   6.200
22312WAT     H167178   5.343   6.703   6.128
22312WAT     H267179   5.235   6.663   6.244
22313WAT      O67180   8.142   7.952   3.331
22313WAT     H167181   8.097   7.959   3.420
22313WAT     H267182   8.148   8.043   3.290
22314WAT      O67183   1.516   6.101   6.385
22314WAT     H167184   1.584   6.044   6.338
22314WAT     H267185   1.435   6.046   6.406
22315WAT      O67186   9.697   8.354   2.816
22315WAT     H167187   9.657   8.345   2.908
22315WAT     H267188   9.757   8.433   2.814
22316WAT      O67189   3.659   6.251   8.649
22316WAT     H167190   3.759   6.244   8.656
22316WAT     H267191   3.636   6.319   8.580
22317WAT      O67192   5.332   5.208   7.810
22317WAT     H167193   5.307   5.207   7.907
22317WAT     H267194   5.420   5.256   7.799
22318WAT      O67195   9.144   2.649   1.144
22318WAT     H167196   9.059   2.601   1.124
22318WAT     H267197   9.200   2.651   1.061
22319WAT      O67198   0.587   9.626   7.176
22319WAT     H167199   0.656   9.579   7.121
22319WAT     H267200   0.631   9.690   7.238
22320WAT      O67201   2.214   1.528   0.341
22320WAT     H167202   2.145   1.499   0.275
22320WAT     H267203   2.296   1.560   0.292
22321WAT      O67204   4.913   9.238   2.466
22321WAT     H167205   4.940   9.147   2.436
22321WAT     H267206   4.951   9.256   2.557
22322WAT      O67207   5.961   4.727   9.876
22322WAT     H167208   6.029   4.745   9.804
22322WAT     H267209   5.876   4.696   9.834
22323WAT      O67210   4.278   4.188   0.921
22323WAT     H167211   4.372   4.218   0.939
22323WAT     H267212   4.217   4.267   0.930
22324WAT      O67213   8.021   7.013   7.529
22324WAT     H167214   7.995   7.075   7.604
22324WAT     H267215   8.031   7.065   7.445
22325WAT      O67216   3.905   2.362   7.485
22325WAT     H167217   3.954   2.443   7.519
22325WAT     H267218   3.807   2.381   7.483
22326WAT      O67219   8.467   3.727   0.370
22326WAT     H167220   8.514   3.638   0.376
22326WAT     H267221   8.500   3.777   0.291
22327WAT      O67222   3.205   9.630   9.260
22327WAT     H167223   3.293   9.582   9.260
22327WAT     H267224   3.146   9.591   9.331
22328WAT      O67225   1.216   1.910   9.051
22328WAT     H167226   1.203   1.863   9.139
22328WAT     H267227   1.132   1.902   8.997
22329WAT      O67228   5.061   9.637   6.766
22329WAT     H167229   5.158   9.639   6.788
22329WAT     H267230   5.039   9.712   6.703
22330WAT      O67231   9.183   9.618   9.367
22330WAT     H167232   9.122   9.545   9.336
22330WAT     H267233   9.217   9.596   9.459
22331WAT      O67234   6.683   1.450   7.043
22331WAT     H167235   6.610   1.426   7.107
22331WAT     H267236   6.754   1.380   7.046
22332WAT      O67237   1.506   3.271   2.666
22332WAT     H167238   1.538   3.194   2.720
22332WAT     H267239   1.413   3.296   2.693
22333WAT      O67240   1.880   1.892   3.600
22333WAT     H167241   1.901   1.985   3.631
22333WAT     H267242   1.932   1.871   3.517
22334WAT      O67243   2.805   8.685   6.971
22334WAT     H167244   2.823   8.734   6.886
22334WAT     H267245   2.722   8.629   6.961
22335WAT      O67246   1.183   4.704   1.813
22335WAT     H167247   1.132   4.685   1.729
22335WAT     H267248   1.124   4.687   1.892
22336WAT      O67249   4.208   3.283   9.182
22336WAT     H167250   4.120   3.283   9.135
22336WAT     H267251   4.206   3.215   9.255
22337WAT      O67252   9.615   6.299   3.138
22337WAT     H167253   9.516   6.314   3.132
22337WAT     H267254   9.649   6.264   3.052
22338WAT      O67255   3.701   8.905   2.623
22338WAT     H167256   3.777   8.898   2.687
22338WAT     H267257   3.732   8.882   2.530
22339WAT      O67258   4.324   8.531   3.825
22339WAT     H167259   4.393   8.542   3.754
22339WAT     H267260   4.247   8.593   3.807
22340WAT      O67261   6.286   0.402   9.272
22340WAT     H167262   6.211   0.459   9.304
22340WAT     H267263   6.267   0.370   9.179
22341WAT      O67264   3.654   0.583   1.200
22341WAT     H167265   3.562   0.586   1.239
22341WAT     H267266   3.721   0.605   1.270
22342WAT      O67267   0.775   2.723   5.101
22342WAT     H167268   0.691   2.669   5.108
22342WAT     H267269   0.825   2.696   5.019
22343WAT      O67270   9.404   7.853   7.973
22343WAT     H167271   9.411   7.940   7.923
22343WAT     H267272   9.494   7.812   7.981
22344WAT      O67273   6.962   4.200   6.691
22344WAT     H167274   6.896   4.138   6.734
22344WAT     H267275   7.046   4.150   6.670
22345WAT      O67276   7.332   7.587   5.714
22345WAT     H167277   7.421   7.632   5.707
22345WAT     H267278   7.269   7.626   5.647
22346WAT      O67279   0.738   5.103   4.694
22346WAT     H167280   0.745   5.161   4.775
22346WAT     H267281   0.651   5.119   4.648
22347WAT      O67282   2.799   6.610   3.406
22347WAT     H167283   2.848   6.528   3.376
22347WAT     H267284   2.751   6.651   3.328
22348WAT      O67285   2.655   8.422   2.457
22348WAT     H167286   2.665   8.519   2.478
22348WAT     H267287   2.558   8.400   2.447
22349WAT      O67288   7.827   8.476   3.542
22349WAT     H167289   7.839   8.543   3.469
22349WAT     H267290   7.765   8.403   3.512
22350WAT      O67291   2.181   4.012   3.660
22350WAT     H167292   2.083   3.991   3.666
22350WAT     H267293   2.235   3.932   3.686
22351WAT      O67294   8.258   6.754   7.694
22351WAT     H167295   8.284   6.847   7.720
22351WAT     H267296   8.216   6.708   7.773
22352WAT      O67297   1.931   3.824   4.213
22352WAT     H167298   1.916   3.828   4.114
22352WAT     H267299   2.028   3.808   4.231
22353WAT      O67300   9.120   5.570   2.688
22353WAT     H167301   9.057   5.581   2.611
22353WAT     H267302   9.132   5.658   2.735
22354WAT      O67303   1.118   0.457   1.710
22354WAT     H167304   1.082   0.364   1.716
22354WAT     H267305   1.218   0.454   1.718
22355WAT      O67306   6.098   1.428   4.155
22355WAT     H167307   6.109   1.527   4.145
22355WAT     H267308   6.153   1.396   4.232
22356WAT      O67309   5.408   3.376   7.377
22356WAT     H167310   5.333   3.312   7.392
22356WAT     H267311   5.492   3.325   7.356
22357WAT      O67312   6.466   6.970   8.137
22357WAT     H167313   6.413   6.891   8.166
22357WAT     H267314   6.520   7.005   8.214
22358WAT      O67315   0.202   0.314   8.867
22358WAT     H167316   0.214   0.410   8.844
22358WAT     H267317   0.217   0.258   8.786
22359WAT      O67318   4.228   2.268   7.094
22359WAT     H167319   4.142   2.314   7.114
22359WAT     H267320   4.250   2.206   7.170
22360WAT      O67321   3.603   3.626   8.689
22360WAT     H167322   3.629   3.529   8.695
22360WAT     H267323   3.544   3.639   8.609
22361WAT      O67324   7.333   0.528   3.611
22361WAT     H167325   7.345   0.433   3.582
22361WAT     H267326   7.378   0.542   3.699
22362WAT      O67327   2.184   8.925   2.927
22362WAT     H167328   2.153   8.908   3.021
22362WAT     H267329   2.165   9.020   2.903
22363WAT      O67330   6.925   2.072   0.778
22363WAT     H167331   7.017   2.037   0.763
22363WAT     H267332   6.910   2.153   0.721
22364WAT      O67333   6.814   5.073   0.956
22364WAT     H167334   6.883   5.064   1.027
22364WAT     H267335   6.750   4.996   0.961
22365WAT      O67336   3.854   7.569   8.079
22365WAT     H167337   3.840   7.636   8.006
22365WAT     H267338   3.950   7.541   8.081
22366WAT      O67339   3.612   0.385   7.383
22366WAT     H167340   3.512   0.374   7.384
22366WAT     H267341   3.651   0.344   7.465
22367WAT      O67342   5.327   3.219   6.269
22367WAT     H167343   5.231   3.246   6.274
22367WAT     H267344   5.333   3.123   6.242
22368WAT      O67345   7.630   3.479   7.674
22368WAT     H167346   7.578   3.551   7.720
22368WAT     H267347   7.696   3.519   7.611
22369WAT      O67348   3.507   3.621   4.329
22369WAT     H167349   3.425   3.679   4.330
22369WAT     H267350   3.583   3.670   4.372
22370WAT      O67351   8.944   2.024   2.547
22370WAT     H167352   8.899   2.103   2.588
22370WAT     H267353   8.876   1.964   2.505
22371WAT      O67354   4.012   7.694   6.376
22371WAT     H167355   4.054   7.637   6.306
22371WAT     H267356   4.084   7.733   6.434
22372WAT      O67357   7.204   2.549   8.564
22372WAT     H167358   7.115   2.527   8.604
22372WAT     H267359   7.194   2.556   8.464
22373WAT      O67360   4.709   6.459   9.605
22373WAT     H167361   4.749   6.447   9.696
22373WAT     H267362   4.609   6.455   9.612
22374WAT      O67363   1.459   5.811   2.085
22374WAT     H167364   1.374   5.820   2.136
22374WAT     H267365   1.468   5.718   2.051
22375WAT      O67366   1.292   2.138   1.341
22375WAT     H167367   1.217   2.199   1.315
22375WAT     H267368   1.379   2.188   1.335
22376WAT      O67369   2.361   0.635   1.006
22376WAT     H167370   2.411   0.664   1.088
22376WAT     H267371   2.386   0.695   0.930
22377WAT      O67372   4.915   6.606   3.857
22377WAT     H167373   4.935   6.599   3.759
22377WAT     H267374   5.001   6.611   3.908
22378WAT      O67375   1.476   3.873   0.603
22378WAT     H167376   1.562   3.849   0.647
22378WAT     H267377   1.486   3.868   0.503
22379WAT      O67378   5.801   2.932   0.052
22379WAT     H167379   5.701   2.924   0.043
22379WAT     H267380   5.845   2.867  -0.009
22380WAT      O67381   4.036   2.274   4.347
22380WAT     H167382   4.135   2.283   4.356
22380WAT     H267383   3.996   2.256   4.436
22381WAT      O67384   8.734   4.865   4.724
22381WAT     H167385   8.813   4.807   4.744
22381WAT     H267386   8.669   4.815   4.668
22382WAT      O67387   4.969   8.025   6.334
22382WAT     H167388   5.013   7.942   6.367
22382WAT     H267389   4.923   8.006   6.247
22383WAT      O67390   3.977   1.773   6.582
22383WAT     H167391   3.888   1.779   6.627
22383WAT     H267392   4.045   1.741   6.648
22384WAT      O67393   6.209   7.365   9.549
22384WAT     H167394   6.184   7.276   9.587
22384WAT     H267395   6.166   7.376   9.459
22385WAT      O67396   4.320   7.713   8.532
22385WAT     H167397   4.260   7.787   8.501
22385WAT     H267398   4.277   7.666   8.609
22386WAT      O67399   8.755   2.024   1.291
22386WAT     H167400   8.660   2.011   1.322
22386WAT     H267401   8.777   2.121   1.295
22387WAT      O67402   7.725   6.838   2.104
22387WAT     H167403   7.771   6.767   2.157
22387WAT     H267404   7.792   6.904   2.072
22388WAT      O67405   2.724   9.280   7.660
22388WAT     H167406   2.765   9.285   7.751
22388WAT     H267407   2.624   9.289   7.668
22389WAT      O67408   0.220   9.757   6.150
22389WAT     H167409   0.171   9.747   6.237
22389WAT     H267410   0.306   9.804   6.166
22390WAT      O67411   6.614   5.868   5.498
22390WAT     H167412   6.681   5.859   5.571
22390WAT     H267413   6.527   5.897   5.536
22391WAT      O67414   4.310   1.976   8.832
22391WAT     H167415   4.313   2.001   8.735
22391WAT     H267416   4.345   1.883   8.843
22392WAT      O67417   4.638   1.245   8.893
22392WAT     H167418   4.549   1.290   8.905
22392WAT     H267419   4.688   1.290   8.819
22393WAT      O67420   4.925   2.646   5.289
22393WAT     H167421   4.847   2.600   5.331
22393WAT     H267422   4.912   2.651   5.190
22394WAT      O67423   2.152   5.151   2.866
22394WAT     H167424   2.167   5.108   2.955
22394WAT     H267425   2.157   5.082   2.794
22395WAT      O67426   0.334   7.042   2.256
22395WAT     H167427   0.271   6.979   2.211
22395WAT     H267428   0.386   7.092   2.187
22396WAT      O67429   3.944   0.223   0.514
22396WAT     H167430   3.983   0.296   0.571
22396WAT     H267431   3.917   0.261   0.426
22397WAT      O67432   8.999   2.743   7.751
22397WAT     H167433   8.946   2.725   7.668
22397WAT     H267434   9.038   2.657   7.785
22398WAT      O67435   3.957   4.276   0.971
22398WAT     H167436   3.925   4.282   1.066
22398WAT     H267437   3.971   4.181   0.947
22399WAT      O67438   9.587   4.514   9.758
22399WAT     H167439   9.629   4.558   9.837
22399WAT     H267440   9.599   4.415   9.764
22400WAT      O67441   3.171   9.266   6.806
22400WAT     H167442   3.262   9.266   6.765
22400WAT     H267443   3.174   9.219   6.894
22401WAT      O67444   8.233   8.785   3.730
22401WAT     H167445   8.282   8.700   3.749
22401WAT     H267446   8.277   8.861   3.776
22402WAT      O67447   4.506   0.776   7.343
22402WAT     H167448   4.604   0.755   7.334
22402WAT     H267449   4.472   0.736   7.429
22403WAT      O67450   6.607   1.861   1.923
22403WAT     H167451   6.700   1.887   1.946
22403WAT     H267452   6.568   1.927   1.858
22404WAT      O67453   9.266   5.743   1.593
22404WAT     H167454   9.185   5.796   1.619
22404WAT     H267455   9.300   5.774   1.504
22405WAT      O67456   3.048   0.062   2.749
22405WAT     H167457   3.136   0.076   2.794
22405WAT     H267458   3.017  -0.031   2.766
22406WAT      O67459   0.218   0.759   8.564
22406WAT     H167460   0.184   0.787   8.654
22406WAT     H267461   0.161   0.799   8.493
22407WAT      O67462   7.763   1.856   5.503
22407WAT     H167463   7.809   1.846   5.591
22407WAT     H267464   7.685   1.794   5.499
22408WAT      O67465   4.036   2.731   1.460
22408WAT     H167466   4.124   2.701   1.496
22408WAT     H267467   4.031   2.713   1.362
22409WAT      O67468   5.192   4.281   3.134
22409WAT     H167469   5.170   4.299   3.230
22409WAT     H267470   5.108   4.262   3.083
22410WAT      O67471   8.998   2.871   2.089
22410WAT     H167472   9.073   2.890   2.025
22410WAT     H267473   9.035   2.826   2.171
22411WAT      O67474   8.041   5.740   1.076
22411WAT     H167475   8.094   5.818   1.042
22411WAT     H267476   7.943   5.763   1.073
22412WAT      O67477   7.718   8.147   9.447
22412WAT     H167478   7.767   8.204   9.513
22412WAT     H267479   7.783   8.106   9.383
22413WAT      O67480   5.580   7.719   4.846
22413WAT     H167481   5.626   7.785   4.788
22413WAT     H267482   5.483   7.714   4.821
22414WAT      O67483   4.213   7.483   4.361
22414WAT     H167484   4.273   7.423   4.309
22414WAT     H267485   4.252   7.575   4.363
22415WAT      O67486   4.065   3.897   0.385
22415WAT     H167487   4.150   3.929   0.426
22415WAT     H267488   4.010   3.851   0.454
22416WAT      O67489   4.921   2.884   5.002
22416WAT     H167490   4.923   2.928   4.913
22416WAT     H267491   4.826   2.867   5.029
22417WAT      O67492   0.357   3.109   6.859
22417WAT     H167493   0.412   3.169   6.917
22417WAT     H267494   0.284   3.067   6.914
22418WAT      O67495   9.834   8.894   4.433
22418WAT     H167496   9.819   8.982   4.476
22418WAT     H267497   9.903   8.903   4.361
22419WAT      O67498   9.322   5.124   4.726
22419WAT     H167499   9.258   5.068   4.777
22419WAT     H267500   9.392   5.065   4.684
22420WAT      O67501   7.754   5.326   7.176
22420WAT     H167502   7.685   5.259   7.203
22420WAT     H267503   7.737   5.355   7.082
22421WAT      O67504   1.135   8.638   0.693
22421WAT     H167505   1.061   8.579   0.662
22421WAT     H267506   1.198   8.586   0.751
22422WAT      O67507   4.993   8.452   4.529
22422WAT     H167508   4.978   8.419   4.622
22422WAT     H267509   5.082   8.497   4.523
22423WAT      O67510   0.979   8.791   0.870
22423WAT     H167511   0.911   8.847   0.824
22423WAT     H267512   1.033   8.742   0.802
22424WAT      O67513   2.697   7.510   3.911
22424WAT     H167514   2.651   7.590   3.871
22424WAT     H267515   2.796   7.526   3.913
22425WAT      O67516   0.962   1.140   3.088
22425WAT     H167517   0.949   1.049   3.128
22425WAT     H267518   0.933   1.139   2.992
22426WAT      O67519   8.971   1.762   7.600
22426WAT     H167520   8.929   1.846   7.566
22426WAT     H267521   9.054   1.785   7.652
22427WAT      O67522   5.595   5.610   9.297
22427WAT     H167523   5.577   5.550   9.219
22427WAT     H267524   5.621   5.701   9.263
22428WAT      O67525   4.332   0.372   3.944
22428WAT     H167526   4.333   0.308   3.868
22428WAT     H267527   4.247   0.425   3.942
22429WAT      O67528   0.668   4.899   6.422
22429WAT     H167529   0.668   4.870   6.517
22429WAT     H267530   0.586   4.864   6.376
22430WAT      O67531   1.577   4.673   0.455
22430WAT     H167532   1.493   4.727   0.463
22430WAT     H267533   1.554   4.575   0.454
22431WAT      O67534   4.685   2.966   9.215
22431WAT     H167535   4.618   3.034   9.184
22431WAT     H267536   4.776   3.008   9.217
22432WAT      O67537   5.643   8.935   5.699
22432WAT     H167538   5.737   8.932   5.664
22432WAT     H267539   5.641   8.891   5.789
22433WAT      O67540   9.643   7.119   3.771
22433WAT     H167541   9.708   7.053   3.809
22433WAT     H267542   9.659   7.130   3.673
22434WAT      O67543   9.880   7.324   4.937
22434WAT     H167544   9.975   7.350   4.924
22434WAT     H267545   9.826   7.406   4.958
22435WAT      O67546   9.381   7.170   1.812
22435WAT     H167547   9.422   7.211   1.730
22435WAT     H267548   9.385   7.070   1.804
22436WAT      O67549   3.917   9.833   5.497
22436WAT     H167550   3.928   9.930   5.475
22436WAT     H267551   3.820   9.809   5.492
22437WAT      O67552   6.775   4.773   2.807
22437WAT     H167553   6.849   4.713   2.839
22437WAT     H267554   6.810   4.836   2.738
22438WAT      O67555   2.721   5.381   7.504
22438WAT     H167556   2.648   5.383   7.573
22438WAT     H267557   2.684   5.410   7.416
22439WAT      O67558   1.740   5.054   8.667
22439WAT     H167559   1.709   5.148   8.650
22439WAT     H267560   1.734   5.035   8.765
22440WAT      O67561   1.251   3.681   4.885
22440WAT     H167562   1.268   3.598   4.831
22440WAT     H267563   1.287   3.760   4.837
22441WAT      O67564   3.302   1.465   1.776
22441WAT     H167565   3.328   1.369   1.793
22441WAT     H267566   3.213   1.482   1.818
22442WAT      O67567   9.470   3.541   5.591
22442WAT     H167568   9.453   3.513   5.686
22442WAT     H267569   9.384   3.549   5.542
22443WAT      O67570   5.516   0.834   3.540
22443WAT     H167571   5.458   0.804   3.617
22443WAT     H267572   5.604   0.786   3.544
22444WAT      O67573   9.147   8.244   1.539
22444WAT     H167574   9.096   8.229   1.624
22444WAT     H267575   9.117   8.330   1.497
22445WAT      O67576   7.284   1.923   2.693
22445WAT     H167577   7.229   1.942   2.774
22445WAT     H267578   7.359   1.861   2.717
22446WAT      O67579   0.091   9.351   2.869
22446WAT     H167580   0.169   9.341   2.807
22446WAT     H267581   0.033   9.426   2.838
22447WAT      O67582   6.165   3.405   0.016
22447WAT     H167583   6.079   3.425   0.063
22447WAT     H267584   6.165   3.310  -0.014
22448WAT      O67585   0.616   5.856   2.956
22448WAT     H167586   0.559   5.886   2.879
22448WAT     H267587   0.565   5.868   3.041
22449WAT      O67588   7.162   6.451   5.191
22449WAT     H167589   7.064   6.447   5.213
22449WAT     H267590   7.182   6.385   5.118
22450WAT      O67591   9.271   5.395   1.721
22450WAT     H167592   9.304   5.479   1.765
22450WAT     H267593   9.349   5.336   1.699
22451WAT      O67594   3.866   4.945   6.762
22451WAT     H167595   3.831   4.970   6.852
22451WAT     H267596   3.795   4.961   6.693
22452WAT      O67597   7.083   0.586   3.494
22452WAT     H167598   7.047   0.626   3.578
22452WAT     H267599   7.172   0.544   3.512
22453WAT      O67600   2.244   2.748   9.643
22453WAT     H167601   2.222   2.728   9.738
22453WAT     H267602   2.297   2.673   9.604
22454WAT      O67603   0.420   8.769   3.325
22454WAT     H167604   0.428   8.787   3.423
22454WAT     H267605   0.364   8.688   3.310
22455WAT      O67606   0.745   6.670   0.635
22455WAT     H167607   0.784   6.626   0.716
22455WAT     H267608   0.723   6.600   0.567
22456WAT      O67609   8.946   7.420   1.779
22456WAT     H167610   9.042   7.440   1.794
22456WAT     H267611   8.893   7.504   1.785
22457WAT      O67612   9.460   6.655   5.819
22457WAT     H167613   9.520   6.575   5.807
22457WAT     H267614   9.453   6.705   5.733
22458WAT      O67615   9.647   9.235   0.417
22458WAT     H167616   9.590   9.193   0.488
22458WAT     H267617   9.588   9.275   0.346
22459WAT      O67618   0.137   2.199   0.749
22459WAT     H167619   0.150   2.185   0.651
22459WAT     H267620   0.097   2.289   0.765
22460WAT      O67621   3.209   1.454   3.065
22460WAT     H167622   3.202   1.376   3.128
22460WAT     H267623   3.131   1.515   3.078
22461WAT      O67624   0.169   1.941   6.804
22461WAT     H167625   0.133   2.016   6.859
22461WAT     H267626   0.120   1.857   6.827
22462WAT      O67627   7.048   0.929   2.880
22462WAT     H167628   7.051   1.028   2.869
22462WAT     H267629   6.996   0.906   2.962
22463WAT      O67630   9.863   1.168   1.181
22463WAT     H167631   9.841   1.263   1.161
22463WAT     H267632   9.945   1.164   1.238
22464WAT      O67633   3.971   6.731   0.335
22464WAT     H167634   4.039   6.672   0.292
22464WAT     H267635   3.882   6.687   0.331
22465WAT      O67636   7.166   1.889   9.719
22465WAT     H167637   7.113   1.863   9.800
22465WAT     H267638   7.229   1.962   9.742
22466WAT      O67639   3.084   3.567   3.662
22466WAT     H167640   3.105   3.664   3.647
22466WAT     H267641   3.087   3.547   3.760
22467WAT      O67642   3.527   7.102   7.032
22467WAT     H167643   3.435   7.088   7.068
22467WAT     H267644   3.563   7.014   7.000
22468WAT      O67645   7.853   4.265   3.469
22468WAT     H167646   7.888   4.354   3.499
22468WAT     H267647   7.774   4.239   3.526
22469WAT      O67648   0.376   4.967   9.436
22469WAT     H167649   0.359   4.906   9.359
22469WAT     H267650   0.295   4.971   9.495
22470WAT      O67651   3.470   8.395   9.056
22470WAT     H167652   3.550   8.341   9.029
22470WAT     H267653   3.478   8.487   9.017
22471WAT      O67654   2.065   6.124   4.971
22471WAT     H167655   2.052   6.218   4.941
22471WAT     H267656   2.087   6.066   4.892
22472WAT      O67657   9.753   2.479   2.635
22472WAT     H167658   9.786   2.436   2.551
22472WAT     H267659   9.720   2.409   2.698
22473WAT      O67660   8.481   2.113   4.329
22473WAT     H167661   8.388   2.093   4.297
22473WAT     H267662   8.544   2.112   4.252
22474WAT      O67663   3.824   9.491   7.542
22474WAT     H167664   3.796   9.462   7.634
22474WAT     H267665   3.768   9.568   7.513
22475WAT      O67666   4.583   3.308   4.089
22475WAT     H167667   4.661   3.253   4.120
22475WAT     H267668   4.609   3.405   4.089
22476WAT      O67669   0.432   3.551   1.314
22476WAT     H167670   0.509   3.605   1.349
22476WAT     H267671   0.366   3.612   1.270
22477WAT      O67672   0.446   7.040   0.003
22477WAT     H167673   0.462   7.090   0.088
22477WAT     H267674   0.368   7.080  -0.045
22478WAT      O67675   9.563   4.257   3.200
22478WAT     H167676   9.648   4.276   3.151
22478WAT     H267677   9.556   4.159   3.218
22479WAT      O67678   9.446   6.241   9.010
22479WAT     H167679   9.410   6.199   9.093
22479WAT     H267680   9.431   6.180   8.933
22480WAT      O67681   4.411   0.565   0.473
22480WAT     H167682   4.496   0.512   0.467
22480WAT     H267683   4.388   0.601   0.383
22481WAT      O67684   5.170   1.517   3.196
22481WAT     H167685   5.233   1.444   3.221
22481WAT     H267686   5.220   1.592   3.154
22482WAT      O67687   5.577   2.626   7.016
22482WAT     H167688   5.668   2.593   6.993
22482WAT     H267689   5.581   2.723   7.039
22483WAT      O67690   5.427   5.648   3.830
22483WAT     H167691   5.425   5.633   3.732
22483WAT     H267692   5.341   5.691   3.859
22484WAT      O67693   0.956   7.495   1.189
22484WAT     H167694   0.912   7.426   1.247
22484WAT     H267695   0.948   7.585   1.232
22485WAT      O67696   0.834   4.796   3.922
22485WAT     H167697   0.874   4.705   3.906
22485WAT     H267698   0.794   4.829   3.837
22486WAT      O67699   8.612   4.858   8.307
22486WAT     H167700   8.695   4.911   8.320
22486WAT     H267701   8.552   4.905   8.243
22487WAT      O67702   4.747   2.486   1.235
22487WAT     H167703   4.704   2.576   1.236
22487WAT     H267704   4.691   2.421   1.287
22488WAT      O67705   1.087   2.696   1.158
22488WAT     H167706   1.031   2.613   1.148
22488WAT     H267707   1.155   2.699   1.085
22489WAT      O67708   1.070   1.990   9.753
22489WAT     H167709   1.065   1.891   9.768
22489WAT     H267710   1.007   2.037   9.816
22490WAT      O67711   0.045   6.743   8.086
22490WAT     H167712   0.044   6.716   8.182
22490WAT     H267713   0.088   6.833   8.076
22491WAT      O67714   8.537   2.048   7.070
22491WAT     H167715   8.507   2.037   7.165
22491WAT     H267716   8.457   2.049   7.010
22492WAT      O67717   0.804   3.675   9.681
22492WAT     H167718   0.825   3.655   9.586
22492WAT     H267719   0.836   3.600   9.739
22493WAT      O67720   0.394   9.502   4.404
22493WAT     H167721   0.401   9.403   4.388
22493WAT     H267722   0.352   9.545   4.324
22494WAT      O67723   8.254   2.297   8.568
22494WAT     H167724   8.187   2.351   8.517
22494WAT     H267725   8.275   2.213   8.517
22495WAT      O67726   4.723   9.148   5.069
22495WAT     H167727   4.822   9.150   5.056
22495WAT     H267728   4.699   9.067   5.124
22496WAT      O67729   1.234   1.556   9.789
22496WAT     H167730   1.262   1.474   9.839
22496WAT     H267731   1.297   1.631   9.811
22497WAT      O67732   3.415   4.243   7.083
22497WAT     H167733   3.364   4.326   7.103
22497WAT     H267734   3.509   4.253   7.117
22498WAT      O67735   0.698   5.501   0.197
22498WAT     H167736   0.752   5.474   0.117
22498WAT     H267737   0.722   5.594   0.223
22499WAT      O67738   2.903   7.960   7.133
22499WAT     H167739   2.952   8.043   7.107
22499WAT     H267740   2.955   7.879   7.106
22500WAT      O67741   9.073   2.042   6.606
22500WAT     H167742   9.119   2.124   6.572
22500WAT     H267743   8.975   2.049   6.587
22501WAT      O67744   8.841   9.130   9.286
22501WAT     H167745   8.871   9.220   9.256
22501WAT     H267746   8.769   9.097   9.225
22502WAT      O67747   5.135   7.837   7.923
22502WAT     H167748   5.163   7.918   7.871
22502WAT     H267749   5.165   7.755   7.874
22503WAT      O67750   6.799   4.447   7.956
22503WAT     H167751   6.843   4.453   7.867
22503WAT     H267752   6.868   4.456   8.028
22504WAT      O67753   7.565   3.167   6.863
22504WAT     H167754   7.557   3.216   6.950
22504WAT     H267755   7.504   3.209   6.795
22505WAT      O67756   5.860   3.899   7.315
22505WAT     H167757   5.826   3.842   7.241
22505WAT     H267758   5.822   3.991   7.307
22506WAT      O67759   1.888   6.413   6.428
22506WAT     H167760   1.800   6.374   6.455
22506WAT     H267761   1.884   6.440   6.332
22507WAT      O67762   5.183   1.053   6.296
22507WAT     H167763   5.135   1.138   6.274
22507WAT     H267764   5.271   1.075   6.339
22508WAT      O67765   8.337   2.454   7.915
22508WAT     H167766   8.383   2.543   7.922
22508WAT     H267767   8.392   2.392   7.859
22509WAT      O67768   8.389   1.583   6.167
22509WAT     H167769   8.331   1.628   6.236
22509WAT     H267770   8.338   1.574   6.082
22510WAT      O67771   7.422   7.687   7.379
22510WAT     H167772   7.413   7.777   7.335
22510WAT     H267773   7.358   7.623   7.337
22511WAT      O67774   3.742   4.000   4.414
22511WAT     H167775   3.657   4.043   4.384
22511WAT     H267776   3.805   4.070   4.448
22512WAT      O67777   4.068   2.324   6.518
22512WAT     H167778   4.059   2.337   6.419
22512WAT     H267779   3.978   2.310   6.559
22513WAT      O67780   2.665   1.145   7.467
22513WAT     H167781   2.687   1.058   7.423
22513WAT     H267782   2.566   1.153   7.478
22514WAT      O67783   6.918   4.330   5.696
22514WAT     H167784   6.873   4.418   5.716
22514WAT     H267785   7.017   4.341   5.704
22515WAT      O67786   6.915   8.996   9.056
22515WAT     H167787   6.864   8.929   9.003
22515WAT     H267788   6.935   8.960   9.146
22516WAT      O67789   6.040   0.015   3.266
22516WAT     H167790   6.074   0.042   3.356
22516WAT     H267791   6.114  -0.029   3.215
22517WAT      O67792   3.115   7.373   1.566
22517WAT     H167793   3.110   7.276   1.590
22517WAT     H267794   3.210   7.404   1.570
22518WAT      O67795   3.335   4.447   7.624
22518WAT     H167796   3.396   4.449   7.545
22518WAT     H267797   3.296   4.538   7.639
22519WAT      O67798   9.405   7.528   3.151
22519WAT     H167799   9.443   7.550   3.061
22519WAT     H267800   9.464   7.567   3.222
22520WAT      O67801   7.860   5.448   1.251
22520WAT     H167802   7.925   5.372   1.243
22520WAT     H267803   7.776   5.416   1.294
22521WAT      O67804   3.981   2.284   3.816
22521WAT     H167805   3.987   2.383   3.826
22521WAT     H267806   4.065   2.242   3.850
22522WAT      O67807   0.646   0.210   6.363
22522WAT     H167808   0.596   0.138   6.411
22522WAT     H267809   0.590   0.246   6.288
22523WAT      O67810   1.151   1.831   5.344
22523WAT     H167811   1.201   1.838   5.430
22523WAT     H267812   1.193   1.759   5.288
22524WAT      O67813   1.218   5.501   2.885
22524WAT     H167814   1.133   5.549   2.860
22524WAT     H267815   1.205   5.454   2.972
22525WAT      O67816   9.800   0.906   4.688
22525WAT     H167817   9.764   0.867   4.773
22525WAT     H267818   9.866   0.978   4.710
22526WAT      O67819   9.340   0.049   3.313
22526WAT     H167820   9.260   0.109   3.314
22526WAT     H267821   9.417   0.097   3.272
22527WAT      O67822   9.413   4.063   7.226
22527WAT     H167823   9.330   4.116   7.244
22527WAT     H267824   9.396   3.967   7.246
22528WAT      O67825   6.362   0.723   4.938
22528WAT     H167826   6.269   0.756   4.956
22528WAT     H267827   6.412   0.715   5.024
22529WAT      O67828   8.498   0.811   3.194
22529WAT     H167829   8.408   0.840   3.226
22529WAT     H267830   8.488   0.755   3.112
22530WAT      O67831   9.644   3.375   5.456
22530WAT     H167832   9.569   3.424   5.498
22530WAT     H267833   9.665   3.293   5.510
22531WAT      O67834   8.099   1.755   9.187
22531WAT     H167835   8.014   1.703   9.180
22531WAT     H267836   8.083   1.850   9.160
22532WAT      O67837   2.933   0.572   9.440
22532WAT     H167838   3.027   0.605   9.427
22532WAT     H267839   2.879   0.642   9.486
22533WAT      O67840   1.710   0.823   0.575
22533WAT     H167841   1.622   0.866   0.592
22533WAT     H267842   1.782   0.875   0.621
22534WAT      O67843   1.433   3.490   9.695
22534WAT     H167844   1.368   3.435   9.641
22534WAT     H267845   1.516   3.504   9.642
22535WAT      O67846   6.597   9.669   5.314
22535WAT     H167847   6.691   9.638   5.299
22535WAT     H267848   6.599   9.758   5.360
22536WAT      O67849   8.411   5.101   5.075
22536WAT     H167850   8.439   5.005   5.079
22536WAT     H267851   8.348   5.121   5.150
22537WAT      O67852   9.162   5.172   4.165
22537WAT     H167853   9.255   5.135   4.172
22537WAT     H267854   9.162   5.267   4.198
22538WAT      O67855   2.136   8.995   5.409
22538WAT     H167856   2.101   8.906   5.436
22538WAT     H267857   2.231   8.986   5.378
22539WAT      O67858   3.939   2.661   8.052
22539WAT     H167859   3.908   2.565   8.055
22539WAT     H267860   4.028   2.668   8.098
22540WAT      O67861   6.242   2.838   7.152
22540WAT     H167862   6.317   2.816   7.215
22540WAT     H267863   6.260   2.797   7.063
22541WAT      O67864   9.015   8.004   4.837
22541WAT     H167865   9.109   8.039   4.835
22541WAT     H267866   8.993   7.960   4.750
22542WAT      O67867   4.107   0.587   6.880
22542WAT     H167868   4.084   0.626   6.969
22542WAT     H267869   4.175   0.646   6.835
22543WAT      O67870   8.660   2.997   3.482
22543WAT     H167871   8.584   3.060   3.499
22543WAT     H267872   8.624   2.905   3.467
22544WAT      O67873   5.523   7.988   1.533
22544WAT     H167874   5.434   7.959   1.569
22544WAT     H267875   5.580   7.907   1.516
22545WAT      O67876   2.364   5.719   0.587
22545WAT     H167877   2.445   5.776   0.601
22545WAT     H267878   2.355   5.654   0.663
22546WAT      O67879   9.735   5.373   7.173
22546WAT     H167880   9.678   5.302   7.214
22546WAT     H267881   9.750   5.446   7.240
22547WAT      O67882   9.526   2.809   6.698
22547WAT     H167883   9.582   2.889   6.679
22547WAT     H267884   9.430   2.836   6.704
22548WAT      O67885   9.553   8.494   0.791
22548WAT     H167886   9.598   8.496   0.880
22548WAT     H267887   9.497   8.576   0.780
22549WAT      O67888   5.678   4.512   2.038
22549WAT     H167889   5.724   4.429   2.004
22549WAT     H267890   5.720   4.539   2.124
22550WAT      O67891   1.074   5.022   7.551
22550WAT     H167892   0.976   5.023   7.531
22550WAT     H267893   1.104   5.115   7.576
22551WAT      O67894   3.395   0.940   3.981
22551WAT     H167895   3.447   0.895   3.908
22551WAT     H267896   3.311   0.978   3.944
22552WAT      O67897   8.880   8.167   0.444
22552WAT     H167898   8.874   8.067   0.446
22552WAT     H267899   8.862   8.199   0.351
22553WAT      O67900   0.256   6.496   7.883
22553WAT     H167901   0.337   6.479   7.826
22553WAT     H267902   0.229   6.411   7.929
22554WAT      O67903   7.583   4.020   0.273
22554WAT     H167904   7.518   4.074   0.327
22554WAT     H267905   7.532   3.968   0.204
22555WAT      O67906   3.443   4.368   9.378
22555WAT     H167907   3.358   4.357   9.326
22555WAT     H267908   3.513   4.409   9.320
22556WAT      O67909   8.295   4.013   2.263
22556WAT     H167910   8.269   3.978   2.173
22556WAT     H267911   8.311   4.111   2.257
22557WAT      O67912   7.636   9.426   8.758
22557WAT     H167913   7.553   9.430   8.702
22557WAT     H267914   7.643   9.509   8.813
22558WAT      O67915   0.841   6.716   7.672
22558WAT     H167916   0.768   6.783   7.686
22558WAT     H267917   0.883   6.732   7.582
22559WAT      O67918   2.714   6.684   6.740
22559WAT     H167919   2.665   6.692   6.653
22559WAT     H267920   2.676   6.749   6.806
22560WAT      O67921   8.741   1.280   1.124
22560WAT     H167922   8.811   1.352   1.124
22560WAT     H267923   8.665   1.307   1.065
22561WAT      O67924   8.056   8.103   4.540
22561WAT     H167925   8.104   8.016   4.553
22561WAT     H267926   8.116   8.179   4.565
22562WAT      O67927   7.389   7.111   3.391
22562WAT     H167928   7.310   7.130   3.332
22562WAT     H267929   7.398   7.012   3.403
22563WAT      O67930   5.284   9.074   7.816
22563WAT     H167931   5.282   9.136   7.737
22563WAT     H267932   5.364   9.015   7.810
22564WAT      O67933   8.188   2.758   2.608
22564WAT     H167934   8.189   2.848   2.566
22564WAT     H267935   8.251   2.756   2.686
22565WAT      O67936   1.870   8.719   6.694
22565WAT     H167937   1.893   8.802   6.744
22565WAT     H267938   1.923   8.642   6.731
22566WAT      O67939   5.653   2.827   2.553
22566WAT     H167940   5.684   2.757   2.618
22566WAT     H267941   5.732   2.877   2.518
22567WAT      O67942   4.616   2.958   1.893
22567WAT     H167943   4.611   2.889   1.822
22567WAT     H267944   4.525   2.969   1.935
22568WAT      O67945   4.525   7.751   4.333
22568WAT     H167946   4.548   7.848   4.325
22568WAT     H267947   4.444   7.740   4.389
22569WAT      O67948   5.962   6.784   5.635
22569WAT     H167949   5.987   6.879   5.621
22569WAT     H267950   6.044   6.727   5.630
22570WAT      O67951   1.543   7.734   7.766
22570WAT     H167952   1.508   7.645   7.797
22570WAT     H267953   1.545   7.736   7.667
22571WAT      O67954   5.283   9.123   4.473
22571WAT     H167955   5.220   9.196   4.501
22571WAT     H267956   5.293   9.124   4.374
22572WAT      O67957   9.637   7.918   8.715
22572WAT     H167958   9.632   7.875   8.624
22572WAT     H267959   9.701   7.995   8.712
22573WAT      O67960   2.958   3.912   7.335
22573WAT     H167961   3.024   3.919   7.411
22573WAT     H267962   2.876   3.965   7.357
22574WAT      O67963   1.920   2.366   9.320
22574WAT     H167964   1.955   2.275   9.297
22574WAT     H267965   1.839   2.385   9.264
22575WAT      O67966   0.442   7.673   2.075
22575WAT     H167967   0.369   7.629   2.128
22575WAT     H267968   0.439   7.772   2.089
22576WAT      O67969   5.058   1.695   2.230
22576WAT     H167970   4.972   1.644   2.227
22576WAT     H267971   5.120   1.651   2.295
22577WAT      O67972   1.705   8.955   6.066
22577WAT     H167973   1.669   8.970   6.159
22577WAT     H267974   1.670   8.869   6.030
22578WAT      O67975   5.102   7.544   3.364
22578WAT     H167976   5.050   7.467   3.402
22578WAT     H267977   5.200   7.526   3.375
22579WAT      O67978   5.842   8.360   7.899
22579WAT     H167979   5.922   8.376   7.842
22579WAT     H267980   5.760   8.355   7.841
22580WAT      O67981   5.128   5.895   6.023
22580WAT     H167982   5.204   5.899   5.958
22580WAT     H267983   5.152   5.946   6.106
22581WAT      O67984   3.216   6.046   3.074
22581WAT     H167985   3.218   6.104   3.155
22581WAT     H267986   3.240   6.099   2.993
22582WAT      O67987   4.692   1.943   7.336
22582WAT     H167988   4.766   1.971   7.274
22582WAT     H267989   4.631   2.019   7.352
22583WAT      O67990   1.248   8.134   0.167
22583WAT     H167991   1.192   8.052   0.171
22583WAT     H267992   1.339   8.114   0.202
22584WAT      O67993   7.189   9.770   8.023
22584WAT     H167994   7.166   9.788   8.118
22584WAT     H267995   7.109   9.734   7.975
22585WAT      O67996   2.304   0.447   1.526
22585WAT     H167997   2.274   0.538   1.501
22585WAT     H267998   2.403   0.440   1.517
22586WAT      O67999   2.960   6.049   3.715
22586WAT     H168000   2.903   6.129   3.734
22586WAT     H268001   3.017   6.028   3.794
22587WAT      O68002   8.750   2.068   7.360
22587WAT     H168003   8.818   2.066   7.433
22587WAT     H268004   8.795   2.047   7.273
22588WAT      O68005   1.843   0.486   1.684
22588WAT     H168006   1.868   0.583   1.676
22588WAT     H268007   1.925   0.430   1.671
22589WAT      O68008   9.287   6.638   4.817
22589WAT     H168009   9.359   6.644   4.886
22589WAT     H268010   9.217   6.573   4.847
22590WAT      O68011   9.418   2.106   4.032
22590WAT     H168012   9.402   2.204   4.020
22590WAT     H268013   9.492   2.077   3.971
22591WAT      O68014   3.831   7.041   6.627
22591WAT     H168015   3.779   7.118   6.589
22591WAT     H268016   3.929   7.057   6.612
22592WAT      O68017   1.875   5.563   2.206
22592WAT     H168018   1.875   5.464   2.217
22592WAT     H268019   1.790   5.601   2.242
22593WAT      O68020   7.468   4.302   6.655
22593WAT     H168021   7.446   4.318   6.751
22593WAT     H268022   7.486   4.390   6.610
22594WAT      O68023   0.813   3.067   4.009
22594WAT     H168024   0.716   3.059   4.032
22594WAT     H268025   0.834   3.162   3.986
22595WAT      O68026   9.608   2.333   2.017
22595WAT     H168027   9.670   2.405   1.986
22595WAT     H268028   9.514   2.366   2.013
22596WAT      O68029   8.507   5.323   4.699
22596WAT     H168030   8.501   5.422   4.710
22596WAT     H268031   8.526   5.301   4.603
22597WAT      O68032   7.951   8.347   8.528
22597WAT     H168033   8.010   8.333   8.608
22597WAT     H268034   7.897   8.264   8.512
22598WAT      O68035   0.347   5.834   6.992
22598WAT     H168036   0.430   5.874   6.952
22598WAT     H268037   0.315   5.893   7.066
22599WAT      O68038   9.284   5.940   8.562
22599WAT     H168039   9.323   5.853   8.590
22599WAT     H268040   9.187   5.930   8.544
22600WAT      O68041   3.837   9.032   0.351
22600WAT     H168042   3.739   9.046   0.361
22600WAT     H268043   3.856   8.934   0.339
22601WAT      O68044   7.959   3.174   8.152
22601WAT     H168045   7.863   3.203   8.146
22601WAT     H268046   7.972   3.116   8.233
22602WAT      O68047   9.469   3.842   4.779
22602WAT     H168048   9.553   3.788   4.790
22602WAT     H268049   9.464   3.910   4.851
22603WAT      O68050   2.358   6.945   1.978
22603WAT     H168051   2.373   7.006   1.900
22603WAT     H268052   2.280   6.978   2.031
22604WAT      O68053   1.154   7.495   0.194
22604WAT     H168054   1.097   7.469   0.116
22604WAT     H268055   1.251   7.489   0.168
22605WAT      O68056   9.764   0.468   3.461
22605WAT     H168057   9.787   0.514   3.547
22605WAT     H268058   9.709   0.388   3.480
22606WAT      O68059   5.584   7.704   0.368
22606WAT     H168060   5.552   7.679   0.276
22606WAT     H268061   5.510   7.691   0.434
22607WAT      O68062   5.889   1.849   6.136
22607WAT     H168063   5.967   1.797   6.170
22607WAT     H268064   5.828   1.870   6.212
22608WAT      O68065   3.937   5.682   0.346
22608WAT     H168066   3.912   5.632   0.429
22608WAT     H268067   4.036   5.681   0.335
22609WAT      O68068   4.551   0.202   9.200
22609WAT     H168069   4.485   0.135   9.233
22609WAT     H268070   4.553   0.201   9.100
22610WAT      O68071   9.668   3.441   2.754
22610WAT     H168072   9.584   3.485   2.786
22610WAT     H268073   9.693   3.477   2.664
22611WAT      O68074   3.712   0.698   0.972
22611WAT     H168075   3.685   0.636   1.047
22611WAT     H268076   3.764   0.775   1.009
22612WAT      O68077   7.216   8.432   7.814
22612WAT     H168078   7.149   8.448   7.741
22612WAT     H268079   7.275   8.356   7.788
22613WAT      O68080   1.163   0.673   5.518
22613WAT     H168081   1.252   0.628   5.521
22613WAT     H268082   1.134   0.683   5.422
22614WAT      O68083   9.213   7.909   2.681
22614WAT     H168084   9.253   7.834   2.629
22614WAT     H268085   9.230   7.895   2.779
22615WAT      O68086   0.514   9.745   1.378
22615WAT     H168087   0.424   9.783   1.399
22615WAT     H268088   0.542   9.774   1.286
22616WAT      O68089   8.053   9.360   4.299
22616WAT     H168090   7.961   9.322   4.298
22616WAT     H268091   8.071   9.403   4.387
22617WAT      O68092   9.106   4.579   8.296
22617WAT     H168093   9.167   4.638   8.350
22617WAT     H268094   9.158   4.532   8.226
22618WAT      O68095   2.731   8.592   1.192
22618WAT     H168096   2.705   8.671   1.246
22618WAT     H268097   2.723   8.614   1.094
22619WAT      O68098   7.451   3.318   2.894
22619WAT     H168099   7.474   3.321   2.797
22619WAT     H268100   7.454   3.410   2.932
22620WAT      O68101   6.166   7.396   6.491
22620WAT     H168102   6.245   7.362   6.542
22620WAT     H268103   6.136   7.482   6.531
22621WAT      O68104   1.971   0.271   4.915
22621WAT     H168105   1.963   0.233   4.823
22621WAT     H268106   1.880   0.280   4.955
22622WAT      O68107   9.413   5.537   3.617
22622WAT     H168108   9.508   5.505   3.608
22622WAT     H268109   9.362   5.473   3.673
22623WAT      O68110   2.538   0.588   4.036
22623WAT     H168111   2.493   0.561   3.950
22623WAT     H268112   2.479   0.566   4.113
22624WAT      O68113   5.181   8.458   8.799
22624WAT     H168114   5.268   8.488   8.760
22624WAT     H268115   5.114   8.448   8.725
22625WAT      O68116   4.565   4.208   1.433
22625WAT     H168117   4.649   4.196   1.378
22625WAT     H268118   4.579   4.169   1.524
22626WAT      O68119   0.103   4.455   7.681
22626WAT     H168120   0.093   4.386   7.752
22626WAT     H268121   0.040   4.435   7.605
22627WAT      O68122   7.970   0.792   9.475
22627WAT     H168123   8.027   0.873   9.462
22627WAT     H268124   8.010   0.714   9.428
22628WAT      O68125   0.932   8.910   8.290
22628WAT     H168126   0.853   8.952   8.244
22628WAT     H268127   0.900   8.848   8.361
22629WAT      O68128   4.064   5.199   0.498
22629WAT     H168129   4.125   5.138   0.550
22629WAT     H268130   4.009   5.144   0.436
22630WAT      O68131   0.375   9.754   4.000
22630WAT     H168132   0.428   9.794   3.925
22630WAT     H268133   0.416   9.779   4.088
22631WAT      O68134   4.739   4.205   3.200
22631WAT     H168135   4.716   4.119   3.154
22631WAT     H268136   4.761   4.187   3.295
22632WAT      O68137   3.945   8.423   3.368
22632WAT     H168138   4.004   8.379   3.436
22632WAT     H268139   3.970   8.520   3.360
22633WAT      O68140   0.012   5.296   4.236
22633WAT     H168141   0.054   5.334   4.153
22633WAT     H268142  -0.023   5.371   4.293
22634WAT      O68143   2.526   9.163   5.529
22634WAT     H168144   2.503   9.093   5.461
22634WAT     H268145   2.506   9.129   5.621
22635WAT      O68146   4.414   6.511   9.583
22635WAT     H168147   4.398   6.604   9.552
22635WAT     H268148   4.390   6.504   9.680
22636WAT      O68149   6.763   1.403   0.381
22636WAT     H168150   6.777   1.319   0.328
22636WAT     H268151   6.675   1.399   0.428
22637WAT      O68152   1.957   2.241   6.650
22637WAT     H168153   1.990   2.299   6.725
22637WAT     H268154   1.908   2.297   6.583
22638WAT      O68155   7.688   3.187   8.145
22638WAT     H168156   7.617   3.231   8.200
22638WAT     H268157   7.645   3.137   8.069
22639WAT      O68158   7.287   7.322   7.863
22639WAT     H168159   7.262   7.392   7.796
22639WAT     H268160   7.245   7.344   7.951
22640WAT      O68161   1.268   0.523   1.000
22640WAT     H168162   1.330   0.572   0.939
22640WAT     H268163   1.201   0.587   1.038
22641WAT      O68164   6.519   6.982   7.352
22641WAT     H168165   6.478   7.041   7.283
22641WAT     H268166   6.567   7.037   7.420
22642WAT      O68167   7.673   3.127   3.934
22642WAT     H168168   7.745   3.062   3.909
22642WAT     H268169   7.714   3.208   3.975
22643WAT      O68170   6.369   4.322   5.289
22643WAT     H168171   6.431   4.372   5.350
22643WAT     H268172   6.352   4.230   5.326
22644WAT      O68173   8.863   0.112   3.875
22644WAT     H168174   8.912   0.124   3.789
22644WAT     H268175   8.919   0.056   3.937
22645WAT      O68176   6.204   0.318   8.375
22645WAT     H168177   6.190   0.402   8.322
22645WAT     H268178   6.209   0.340   8.472
22646WAT      O68179   7.181   6.497   3.579
22646WAT     H168180   7.097   6.551   3.583
22646WAT     H268181   7.185   6.436   3.659
22647WAT      O68182   3.688   4.812   1.454
22647WAT     H168183   3.695   4.781   1.359
22647WAT     H268184   3.598   4.853   1.469
22648WAT      O68185   6.708   8.584   2.728
22648WAT     H168186   6.667   8.546   2.810
22648WAT     H268187   6.772   8.518   2.689
22649WAT      O68188   0.456   0.069   0.632
22649WAT     H168189   0.548   0.093   0.663
22649WAT     H268190   0.449   0.082   0.533
22650WAT      O68191   4.967   5.835   6.285
22650WAT     H168192   5.016   5.921   6.300
22650WAT     H268193   5.012   5.762   6.337
22651WAT      O68194   0.131   4.721   5.498
22651WAT     H168195   0.085   4.632   5.494
22651WAT     H268196   0.186   4.725   5.582
22652WAT      O68197   5.553   0.254   0.337
22652WAT     H168198   5.530   0.237   0.433
22652WAT     H268199   5.471   0.284   0.288
22653WAT      O68200   3.032   0.772   1.367
22653WAT     H168201   3.063   0.855   1.320
22653WAT     H268202   2.943   0.790   1.409
22654WAT      O68203   4.139   5.191   1.335
22654WAT     H168204   4.150   5.248   1.416
22654WAT     H268205   4.089   5.242   1.265
22655WAT      O68206   7.446   1.700   3.302
22655WAT     H168207   7.357   1.689   3.346
22655WAT     H268208   7.452   1.791   3.261
22656WAT      O68209   9.202   3.708   6.509
22656WAT     H168210   9.180   3.645   6.584
22656WAT     H268211   9.122   3.765   6.489
22657WAT      O68212   8.972   1.051   1.794
22657WAT     H168213   8.978   1.142   1.834
22657WAT     H268214   9.064   1.013   1.785
22658WAT      O68215   5.658   8.765   0.762
22658WAT     H168216   5.629   8.701   0.691
22658WAT     H268217   5.642   8.859   0.731
22659WAT      O68218   1.234   5.433   0.253
22659WAT     H168219   1.209   5.338   0.271
22659WAT     H268220   1.334   5.441   0.251
22660WAT      O68221   9.878   7.702   3.031
22660WAT     H168222   9.898   7.640   2.956
22660WAT     H268223   9.872   7.651   3.117
22661WAT      O68224   2.064   0.918   6.449
22661WAT     H168225   2.159   0.947   6.465
22661WAT     H268226   2.063   0.841   6.386
22662WAT      O68227   4.772   9.628   2.372
22662WAT     H168228   4.750   9.711   2.422
22662WAT     H268229   4.796   9.651   2.278
22663WAT      O68230   4.815   1.709   6.338
22663WAT     H168231   4.903   1.670   6.314
22663WAT     H268232   4.800   1.793   6.285
22664WAT      O68233   0.622   0.742   6.801
22664WAT     H168234   0.676   0.713   6.722
22664WAT     H268235   0.682   0.772   6.874
22665WAT      O68236   7.538   6.919   5.465
22665WAT     H168237   7.523   6.826   5.431
22665WAT     H268238   7.454   6.972   5.453
22666WAT      O68239   5.995   4.231   1.078
22666WAT     H168240   5.966   4.168   1.150
22666WAT     H268241   6.048   4.181   1.009
22667WAT      O68242   4.672   0.264   0.275
22667WAT     H168243   4.677   0.279   0.176
22667WAT     H268244   4.704   0.171   0.295
22668WAT      O68245   9.428   2.046   5.532
22668WAT     H168246   9.388   2.079   5.618
22668WAT     H268247   9.360   1.991   5.483
22669WAT      O68248   2.476   3.283   5.171
22669WAT     H168249   2.562   3.332   5.182
22669WAT     H268250   2.475   3.238   5.082
22670WAT      O68251   7.545   0.597   1.724
22670WAT     H168252   7.561   0.619   1.628
22670WAT     H268253   7.533   0.498   1.733
22671WAT      O68254   7.357   2.974   5.647
22671WAT     H168255   7.422   3.003   5.576
22671WAT     H268256   7.281   3.038   5.651
22672WAT      O68257   9.068   1.620   0.331
22672WAT     H168258   9.117   1.696   0.290
22672WAT     H268259   9.012   1.653   0.408
22673WAT      O68260   6.915   3.107   1.745
22673WAT     H168261   6.854   3.185   1.761
22673WAT     H268262   6.876   3.048   1.674
22674WAT      O68263   4.866   5.653   1.180
22674WAT     H168264   4.814   5.737   1.196
22674WAT     H268265   4.814   5.574   1.213
22675WAT      O68266   9.675   1.892   8.267
22675WAT     H168267   9.579   1.917   8.254
22675WAT     H268268   9.725   1.904   8.181
22676WAT      O68269   0.525   4.656   2.516
22676WAT     H168270   0.439   4.707   2.514
22676WAT     H268271   0.532   4.599   2.435
22677WAT      O68272   1.213   6.424   4.357
22677WAT     H168273   1.170   6.401   4.270
22677WAT     H268274   1.302   6.380   4.363
22678WAT      O68275   1.851   8.771   8.177
22678WAT     H168276   1.929   8.770   8.115
22678WAT     H268277   1.771   8.731   8.132
22679WAT      O68278   1.576   4.079   2.163
22679WAT     H168279   1.636   4.158   2.154
22679WAT     H268280   1.632   3.997   2.176
22680WAT      O68281   6.167   3.097   6.178
22680WAT     H168282   6.070   3.111   6.160
22680WAT     H268283   6.205   3.035   6.109
22681WAT      O68284   6.861   4.449   4.109
22681WAT     H168285   6.817   4.521   4.055
22681WAT     H268286   6.792   4.395   4.157
22682WAT      O68287   5.931   0.187   3.748
22682WAT     H168288   5.862   0.243   3.794
22682WAT     H268289   5.980   0.131   3.816
22683WAT      O68290   8.492   2.850   2.657
22683WAT     H168291   8.444   2.816   2.738
22683WAT     H268292   8.426   2.891   2.594
22684WAT      O68293   4.436   7.514   7.577
22684WAT     H168294   4.521   7.476   7.614
22684WAT     H268295   4.385   7.560   7.650
22685WAT      O68296   2.134   0.323   3.539
22685WAT     H168297   2.052   0.375   3.515
22685WAT     H268298   2.215   0.379   3.524
22686WAT      O68299   7.824   2.135   5.195
22686WAT     H168300   7.891   2.062   5.202
22686WAT     H268301   7.863   2.220   5.230
22687WAT      O68302   4.699   7.083   4.038
22687WAT     H168303   4.742   7.167   4.072
22687WAT     H268304   4.754   7.004   4.064
22688WAT      O68305   7.276   4.552   3.129
22688WAT     H168306   7.294   4.472   3.186
22688WAT     H268307   7.213   4.526   3.055
22689WAT      O68308   8.652   5.540   5.681
22689WAT     H168309   8.708   5.457   5.675
22689WAT     H268310   8.669   5.598   5.601
22690WAT      O68311   8.255   6.575   5.545
22690WAT     H168312   8.207   6.539   5.626
22690WAT     H268313   8.244   6.674   5.541
22691WAT      O68314   7.767   7.628   7.930
22691WAT     H168315   7.701   7.598   7.998
22691WAT     H268316   7.820   7.705   7.965
22692WAT      O68317   5.643   2.341   7.379
22692WAT     H168318   5.641   2.242   7.387
22692WAT     H268319   5.641   2.383   7.470
22693WAT      O68320   0.214   4.523   8.953
22693WAT     H168321   0.286   4.592   8.941
22693WAT     H268322   0.237   4.465   9.031
22694WAT      O68323   7.914   5.233   6.242
22694WAT     H168324   7.822   5.271   6.237
22694WAT     H268325   7.913   5.150   6.299
22695WAT      O68326   7.940   8.453   4.833
22695WAT     H168327   7.930   8.361   4.872
22695WAT     H268328   7.850   8.488   4.809
22696WAT      O68329   5.383   1.619   9.691
22696WAT     H168330   5.302   1.613   9.749
22696WAT     H268331   5.398   1.531   9.646
22697WAT      O68332   4.712   2.731   5.646
22697WAT     H168333   4.806   2.766   5.648
22697WAT     H268334   4.661   2.776   5.573
22698WAT      O68335   7.588   2.725   5.387
22698WAT     H168336   7.531   2.726   5.305
22698WAT     H268337   7.605   2.818   5.418
22699WAT      O68338   6.522   5.939   3.562
22699WAT     H168339   6.568   6.018   3.602
22699WAT     H268340   6.431   5.966   3.531
22700WAT      O68341   1.204   8.113   0.465
22700WAT     H168342   1.277   8.087   0.529
22700WAT     H268343   1.183   8.035   0.405
22701WAT      O68344   7.393   3.860   7.041
22701WAT     H168345   7.413   3.810   7.125
22701WAT     H268346   7.322   3.812   6.990
22702WAT      O68347   2.784   7.728   9.306
22702WAT     H168348   2.711   7.796   9.313
22702WAT     H268349   2.862   7.756   9.362
22703WAT      O68350   3.566   7.192   5.093
22703WAT     H168351   3.630   7.214   5.167
22703WAT     H268352   3.598   7.111   5.045
22704WAT      O68353   4.364   0.881   3.788
22704WAT     H168354   4.380   0.976   3.815
22704WAT     H268355   4.269   0.857   3.807
22705WAT      O68356   3.793   5.000   1.819
22705WAT     H168357   3.701   5.029   1.793
22705WAT     H268358   3.800   4.900   1.811
22706WAT      O68359   9.527   5.380   5.256
22706WAT     H168360   9.592   5.415   5.324
22706WAT     H268361   9.555   5.411   5.165
22707WAT      O68362   5.338   1.150   8.010
22707WAT     H168363   5.413   1.182   8.069
22707WAT     H268364   5.372   1.079   7.949
22708WAT      O68365   2.754   3.761   9.885
22708WAT     H168366   2.724   3.848   9.925
22708WAT     H268367   2.678   3.697   9.884
22709WAT      O68368   3.261   5.077   5.106
22709WAT     H168369   3.337   5.142   5.102
22709WAT     H268370   3.284   4.995   5.054
22710WAT      O68371   8.702   1.503   4.680
22710WAT     H168372   8.754   1.418   4.684
22710WAT     H268373   8.653   1.509   4.593
22711WAT      O68374   5.650   8.275   3.237
22711WAT     H168375   5.591   8.304   3.313
22711WAT     H268376   5.746   8.287   3.263
22712WAT      O68377   1.210   6.898   7.469
22712WAT     H168378   1.197   6.911   7.567
22712WAT     H268379   1.273   6.822   7.454
22713WAT      O68380   9.533   9.415   8.865
22713WAT     H168381   9.559   9.421   8.769
22713WAT     H268382   9.520   9.318   8.890
22714WAT      O68383   8.134   4.698   0.766
22714WAT     H168384   8.158   4.614   0.718
22714WAT     H268385   8.129   4.680   0.864
22715WAT      O68386   1.538   3.296   0.007
22715WAT     H168387   1.507   3.369  -0.054
22715WAT     H268388   1.587   3.227  -0.045
22716WAT      O68389   0.854   0.941   8.626
22716WAT     H168390   0.760   0.974   8.619
22716WAT     H268391   0.854   0.848   8.662
22717WAT      O68392   1.622   8.476   7.427
22717WAT     H168393   1.525   8.481   7.451
22717WAT     H268394   1.633   8.418   7.346
22718WAT      O68395   6.697   6.842   9.544
22718WAT     H168396   6.740   6.763   9.501
22718WAT     H268397   6.735   6.926   9.504
22719WAT      O68398   3.521   5.898   7.807
22719WAT     H168399   3.421   5.903   7.800
22719WAT     H268400   3.555   5.977   7.857
22720WAT      O68401   0.765   4.168   6.527
22720WAT     H168402   0.861   4.191   6.546
22720WAT     H268403   0.716   4.250   6.501
22721WAT      O68404   6.832   9.181   8.584
22721WAT     H168405   6.740   9.219   8.583
22721WAT     H268406   6.843   9.121   8.663
22722WAT      O68407   5.435   7.581   2.622
22722WAT     H168408   5.512   7.521   2.645
22722WAT     H268409   5.381   7.599   2.704
22723WAT      O68410   7.807   6.245   3.390
22723WAT     H168411   7.836   6.196   3.308
22723WAT     H268412   7.772   6.180   3.458
22724WAT      O68413   5.266   2.568   8.534
22724WAT     H168414   5.283   2.474   8.563
22724WAT     H268415   5.187   2.605   8.583
22725WAT      O68416   0.700   1.999   4.857
22725WAT     H168417   0.782   2.047   4.887
22725WAT     H268418   0.689   1.915   4.910
22726WAT      O68419   0.401   0.163   5.966
22726WAT     H168420   0.430   0.120   6.052
22726WAT     H268421   0.481   0.199   5.919
22727WAT      O68422   6.688   2.881   9.643
22727WAT     H168423   6.594   2.888   9.610
22727WAT     H268424   6.744   2.953   9.602
22728WAT      O68425   7.151   4.432   2.902
22728WAT     H168426   7.177   4.339   2.928
22728WAT     H268427   7.138   4.436   2.803
22729WAT      O68428   0.961   8.115   1.177
22729WAT     H168429   0.867   8.147   1.180
22729WAT     H268430   0.993   8.094   1.269
22730WAT      O68431   5.199   0.459   0.455
22730WAT     H168432   5.212   0.555   0.482
22730WAT     H268433   5.118   0.422   0.501
22731WAT      O68434   3.681   4.886   7.806
22731WAT     H168435   3.733   4.960   7.762
22731WAT     H268436   3.667   4.812   7.741
22732WAT      O68437   5.205   6.504   9.874
22732WAT     H168438   5.233   6.461   9.961
22732WAT     H268439   5.285   6.517   9.816
22733WAT      O68440   8.596   4.891   6.261
22733WAT     H168441   8.686   4.912   6.298
22733WAT     H268442   8.534   4.967   6.278
22734WAT      O68443   0.416   2.720   8.078
22734WAT     H168444   0.459   2.792   8.023
22734WAT     H268445   0.469   2.705   8.161
22735WAT      O68446   5.456   2.278   6.109
22735WAT     H168447   5.455   2.376   6.127
22735WAT     H268448   5.407   2.230   6.182
22736WAT      O68449   5.332   7.935   7.529
22736WAT     H168450   5.307   7.958   7.623
22736WAT     H268451   5.333   7.836   7.518
22737WAT      O68452   0.212   4.441   2.694
22737WAT     H168453   0.214   4.341   2.695
22737WAT     H268454   0.161   4.474   2.773
22738WAT      O68455   8.152   2.208   8.069
22738WAT     H168456   8.130   2.286   8.127
22738WAT     H268457   8.250   2.186   8.078
22739WAT      O68458   5.215   2.565   4.848
22739WAT     H168459   5.206   2.663   4.861
22739WAT     H268460   5.246   2.522   4.933
22740WAT      O68461   4.721   6.320   9.868
22740WAT     H168462   4.759   6.296   9.958
22740WAT     H268463   4.658   6.249   9.838
22741WAT      O68464   0.894   1.383   1.728
22741WAT     H168465   0.955   1.459   1.750
22741WAT     H268466   0.800   1.408   1.753
22742WAT      O68467   5.416   3.657   3.808
22742WAT     H168468   5.334   3.699   3.768
22742WAT     H268469   5.442   3.707   3.890
22743WAT      O68470   0.963   0.369   8.512
22743WAT     H168471   1.042   0.317   8.546
22743WAT     H268472   0.945   0.344   8.417
22744WAT      O68473   9.161   7.021   0.195
22744WAT     H168474   9.181   6.986   0.103
22744WAT     H268475   9.216   6.970   0.262
22745WAT      O68476   0.552   5.982   5.290
22745WAT     H168477   0.614   5.904   5.280
22745WAT     H268478   0.476   5.972   5.227
22746WAT      O68479   2.354   6.989   6.890
22746WAT     H168480   2.425   6.932   6.931
22746WAT     H268481   2.292   7.022   6.961
22747WAT      O68482   0.650   7.245   1.141
22747WAT     H168483   0.714   7.271   1.214
22747WAT     H268484   0.564   7.295   1.152
22748WAT      O68485   2.708   7.219   2.527
22748WAT     H168486   2.612   7.206   2.555
22748WAT     H268487   2.729   7.317   2.529
22749WAT      O68488   2.523   5.475   8.075
22749WAT     H168489   2.580   5.418   8.133
22749WAT     H268490   2.465   5.533   8.133
22750WAT      O68491   1.048   1.552   0.860
22750WAT     H168492   1.041   1.646   0.827
22750WAT     H268493   1.144   1.528   0.873
22751WAT      O68494   7.327   0.151   7.970
22751WAT     H168495   7.301   0.217   8.040
22751WAT     H268496   7.276   0.066   7.983
22752WAT      O68497   3.699   9.764   8.267
22752WAT     H168498   3.617   9.816   8.291
22752WAT     H268499   3.748   9.739   8.350
22753WAT      O68500   4.909   1.850   4.432
22753WAT     H168501   4.920   1.768   4.487
22753WAT     H268502   4.840   1.834   4.361
22754WAT      O68503   5.814   5.283   2.090
22754WAT     H168504   5.747   5.209   2.090
22754WAT     H268505   5.774   5.364   2.048
22755WAT      O68506   4.145   5.670   8.187
22755WAT     H168507   4.175   5.575   8.192
22755WAT     H268508   4.182   5.711   8.104
22756WAT      O68509   0.451   7.732   9.657
22756WAT     H168510   0.382   7.665   9.684
22756WAT     H268511   0.477   7.717   9.561
22757WAT      O68512   4.713   2.035   8.843
22757WAT     H168513   4.667   1.968   8.900
22757WAT     H268514   4.702   2.127   8.882
22758WAT      O68515   7.334   0.834   0.561
22758WAT     H168516   7.401   0.908   0.553
22758WAT     H268517   7.309   0.802   0.470
22759WAT      O68518   8.478   1.581   7.884
22759WAT     H168519   8.574   1.559   7.903
22759WAT     H268520   8.424   1.566   7.967
22760WAT      O68521   3.198   6.807   2.493
22760WAT     H168522   3.215   6.899   2.458
22760WAT     H268523   3.185   6.744   2.416
22761WAT      O68524   4.410   4.787   6.833
22761WAT     H168525   4.385   4.798   6.737
22761WAT     H268526   4.490   4.727   6.840
22762WAT      O68527   4.453   4.975   7.378
22762WAT     H168528   4.418   5.042   7.443
22762WAT     H268529   4.421   4.884   7.402
22763WAT      O68530   2.597   0.604   3.223
22763WAT     H168531   2.631   0.596   3.317
22763WAT     H268532   2.597   0.514   3.180
22764WAT      O68533   7.810   3.021   1.429
22764WAT     H168534   7.901   3.061   1.418
22764WAT     H268535   7.802   2.982   1.520
22765WAT      O68536   1.317   2.434   4.614
22765WAT     H168537   1.299   2.532   4.599
22765WAT     H268538   1.256   2.400   4.686
22766WAT      O68539   2.199   6.551   5.208
22766WAT     H168540   2.176   6.465   5.163
22766WAT     H268541   2.127   6.574   5.274
22767WAT      O68542   9.547   5.080   6.537
22767WAT     H168543   9.518   5.126   6.621
22767WAT     H268544   9.481   5.099   6.464
22768WAT      O68545   0.757   4.531   2.820
22768WAT     H168546   0.833   4.487   2.869
22768WAT     H268547   0.675   4.474   2.829
22769WAT      O68548   3.330   7.021   7.997
22769WAT     H168549   3.233   7.012   7.972
22769WAT     H268550   3.378   6.936   7.974
22770WAT      O68551   5.561   5.893   3.506
22770WAT     H168552   5.569   5.951   3.587
22770WAT     H268553   5.529   5.802   3.533
22771WAT      O68554   6.764   2.878   0.031
22771WAT     H168555   6.694   2.936   0.072
22771WAT     H268556   6.752   2.876  -0.069
22772WAT      O68557   3.870   9.759   7.836
22772WAT     H168558   3.935   9.828   7.868
22772WAT     H268559   3.873   9.754   7.736
22773WAT      O68560   3.538   0.373   0.509
22773WAT     H168561   3.600   0.319   0.567
22773WAT     H268562   3.504   0.451   0.561
22774WAT      O68563   9.813   4.492   2.668
22774WAT     H168564   9.854   4.574   2.629
22774WAT     H268565   9.714   4.502   2.672
22775WAT      O68566   6.528   7.463   3.729
22775WAT     H168567   6.476   7.389   3.688
22775WAT     H268568   6.625   7.442   3.728
22776WAT      O68569   8.483   5.426   2.381
22776WAT     H168570   8.465   5.349   2.320
22776WAT     H268571   8.548   5.398   2.452
22777WAT      O68572   7.273   4.680   0.172
22777WAT     H168573   7.332   4.702   0.249
22777WAT     H268574   7.245   4.584   0.178
22778WAT      O68575   6.176   5.012   8.784
22778WAT     H168576   6.219   5.099   8.805
22778WAT     H268577   6.094   5.028   8.729
22779WAT      O68578   7.746   1.849   3.149
22779WAT     H168579   7.843   1.827   3.160
22779WAT     H268580   7.707   1.871   3.239
22780WAT      O68581   0.605   7.960   9.742
22780WAT     H168582   0.540   8.035   9.733
22780WAT     H268583   0.565   7.876   9.708
22781WAT      O68584   7.513   3.314   2.542
22781WAT     H168585   7.495   3.322   2.443
22781WAT     H268586   7.533   3.219   2.565
22782WAT      O68587   6.284   4.731   7.242
22782WAT     H168588   6.203   4.683   7.279
22782WAT     H268589   6.267   4.829   7.240
22783WAT      O68590   4.263   6.110   1.742
22783WAT     H168591   4.308   6.022   1.751
22783WAT     H268592   4.274   6.145   1.649
22784WAT      O68593   8.593   0.996   5.632
22784WAT     H168594   8.515   0.996   5.569
22784WAT     H268595   8.678   0.992   5.579
22785WAT      O68596   2.509   7.342   7.662
22785WAT     H168597   2.417   7.312   7.637
22785WAT     H268598   2.549   7.391   7.585
22786WAT      O68599   3.252   5.953   7.769
22786WAT     H168600   3.186   5.882   7.748
22786WAT     H268601   3.215   6.013   7.840
22787WAT      O68602   8.366   2.288   8.808
22787WAT     H168603   8.458   2.303   8.772
22787WAT     H268604   8.302   2.277   8.731
22788WAT      O68605   8.601   9.282   0.831
22788WAT     H168606   8.591   9.376   0.797
22788WAT     H268607   8.587   9.282   0.931
22789WAT      O68608   2.801   3.244   0.052
22789WAT     H168609   2.787   3.339   0.025
22789WAT     H268610   2.896   3.230   0.080
22790WAT      O68611   5.917   8.087   0.724
22790WAT     H168612   5.830   8.087   0.674
22790WAT     H268613   5.905   8.036   0.810
22791WAT      O68614   7.514   5.825   8.264
22791WAT     H168615   7.468   5.892   8.323
22791WAT     H268616   7.540   5.868   8.178
22792WAT      O68617   0.789   5.484   5.140
22792WAT     H168618   0.763   5.567   5.092
22792WAT     H268619   0.882   5.493   5.175
22793WAT      O68620   0.936   1.877   4.661
22793WAT     H168621   0.887   1.845   4.580
22793WAT     H268622   0.967   1.971   4.646
22794WAT      O68623   5.050   5.500   3.757
22794WAT     H168624   4.958   5.464   3.766
22794WAT     H268625   5.116   5.433   3.790
22795WAT      O68626   3.478   7.533   3.169
22795WAT     H168627   3.421   7.475   3.110
22795WAT     H268628   3.537   7.590   3.113
22796WAT      O68629   2.456   7.727   2.772
22796WAT     H168630   2.459   7.636   2.815
22796WAT     H268631   2.483   7.719   2.677
22797WAT      O68632   1.245   1.865   3.729
22797WAT     H168633   1.228   1.898   3.636
22797WAT     H268634   1.228   1.767   3.733
22798WAT      O68635   1.843   1.033   6.540
22798WAT     H168636   1.778   1.076   6.477
22798WAT     H268637   1.926   1.008   6.489
22799WAT      O68638   6.444   3.254   2.718
22799WAT     H168639   6.466   3.235   2.814
22799WAT     H268640   6.488   3.339   2.690
22800WAT      O68641   8.595   1.267   9.529
22800WAT     H168642   8.675   1.219   9.565
22800WAT     H268643   8.520   1.202   9.516
22801WAT      O68644   1.631   0.441   0.446
22801WAT     H168645   1.688   0.486   0.377
22801WAT     H268646   1.544   0.413   0.405
22802WAT      O68647   5.159   6.831   0.932
22802WAT     H168648   5.100   6.753   0.911
22802WAT     H268649   5.239   6.829   0.871
22803WAT      O68650   2.907   3.852   5.850
22803WAT     H168651   2.999   3.885   5.832
22803WAT     H268652   2.853   3.925   5.894
22804WAT      O68653   3.683   0.616   8.381
22804WAT     H168654   3.735   0.551   8.435
22804WAT     H268655   3.602   0.571   8.343
22805WAT      O68656   6.350   8.153   8.143
22805WAT     H168657   6.407   8.078   8.109
22805WAT     H268658   6.393   8.194   8.223
22806WAT      O68659   1.243   8.574   3.803
22806WAT     H168660   1.198   8.661   3.826
22806WAT     H268661   1.182   8.520   3.745
22807WAT      O68662   2.004   8.261   9.318
22807WAT     H168663   2.044   8.186   9.370
22807WAT     H268664   2.055   8.275   9.233
22808WAT      O68665   2.505   5.256   1.412
22808WAT     H168666   2.536   5.184   1.474
22808WAT     H268667   2.523   5.345   1.453
22809WAT      O68668   5.446   6.946   8.018
22809WAT     H168669   5.496   6.877   7.964
22809WAT     H268670   5.348   6.926   8.015
22810WAT      O68671   4.217   4.760   9.253
22810WAT     H168672   4.121   4.785   9.268
22810WAT     H268673   4.276   4.838   9.273
22811WAT      O68674   9.602   9.724   3.881
22811WAT     H168675   9.601   9.644   3.942
22811WAT     H268676   9.511   9.735   3.839
22812WAT      O68677   3.324   2.797   5.152
22812WAT     H168678   3.385   2.732   5.106
22812WAT     H268679   3.379   2.861   5.206
22813WAT      O68680   7.056   3.975   4.059
22813WAT     H168681   7.020   4.067   4.046
22813WAT     H268682   7.000   3.927   4.127
22814WAT      O68683   8.811   1.974   3.416
22814WAT     H168684   8.851   1.959   3.506
22814WAT     H268685   8.799   2.072   3.400
22815WAT      O68686   8.127   8.189   4.894
22815WAT     H168687   8.143   8.216   4.799
22815WAT     H268688   8.029   8.189   4.913
22816WAT      O68689   7.183   2.583   1.881
22816WAT     H168690   7.160   2.486   1.872
22816WAT     H268691   7.179   2.627   1.791
22817WAT      O68692   6.892   8.760   5.022
22817WAT     H168693   6.974   8.789   4.973
22817WAT     H268694   6.839   8.840   5.050
22818WAT      O68695   1.899   5.880   3.390
22818WAT     H168696   1.981   5.877   3.447
22818WAT     H268697   1.925   5.864   3.295
22819WAT      O68698   1.256   7.179   1.817
22819WAT     H168699   1.280   7.129   1.734
22819WAT     H268700   1.296   7.133   1.897
22820WAT      O68701   6.702   6.050   5.329
22820WAT     H168702   6.664   5.998   5.406
22820WAT     H268703   6.627   6.090   5.276
22821WAT      O68704   1.364   3.950   2.316
22821WAT     H168705   1.372   3.999   2.403
22821WAT     H268706   1.429   3.988   2.251
22822WAT      O68707   0.223   8.866   7.916
22822WAT     H168708   0.318   8.867   7.886
22822WAT     H268709   0.213   8.800   7.991
22823WAT      O68710   5.689   1.617   4.102
22823WAT     H168711   5.613   1.622   4.167
22823WAT     H268712   5.719   1.522   4.093
22824WAT      O68713   1.599   3.850   3.585
22824WAT     H168714   1.646   3.930   3.624
22824WAT     H268715   1.599   3.858   3.485
22825WAT      O68716   5.702   5.172   8.895
22825WAT     H168717   5.607   5.141   8.902
22825WAT     H268718   5.754   5.108   8.840
22826WAT      O68719   1.376   1.626   6.614
22826WAT     H168720   1.364   1.529   6.639
22826WAT     H268721   1.381   1.681   6.697
22827WAT      O68722   4.557   4.778   8.143
22827WAT     H168723   4.551   4.877   8.128
22827WAT     H268724   4.580   4.732   8.057
22828WAT      O68725   0.879   3.856   1.566
22828WAT     H168726   0.922   3.774   1.603
22828WAT     H268727   0.932   3.937   1.593
22829WAT      O68728   2.955   2.139   3.196
22829WAT     H168729   2.954   2.142   3.096
22829WAT     H268730   2.910   2.056   3.227
22830WAT      O68731   0.972   6.944   5.686
22830WAT     H168732   0.982   7.039   5.656
22830WAT     H268733   1.011   6.934   5.778
22831WAT      O68734   5.845   0.339   5.278
22831WAT     H168735   5.897   0.310   5.359
22831WAT     H268736   5.765   0.392   5.308
22832WAT      O68737   5.023   1.823   3.773
22832WAT     H168738   4.982   1.821   3.864
22832WAT     H268739   4.982   1.896   3.719
22833WAT      O68740   2.548   3.896   2.740
22833WAT     H168741   2.592   3.973   2.694
22833WAT     H268742   2.548   3.816   2.679
22834WAT      O68743   7.362   4.656   4.321
22834WAT     H168744   7.317   4.734   4.366
22834WAT     H268745   7.303   4.575   4.328
22835WAT      O68746   4.874   5.893   3.837
22835WAT     H168747   4.967   5.858   3.849
22835WAT     H268748   4.817   5.860   3.912
22836WAT      O68749   4.708   4.492   9.758
22836WAT     H168750   4.696   4.433   9.679
22836WAT     H268751   4.639   4.470   9.827
22837WAT      O68752   0.611   8.200   3.841
22837WAT     H168753   0.691   8.249   3.875
22837WAT     H268754   0.611   8.201   3.741
22838WAT      O68755   3.597   4.479   0.649
22838WAT     H168756   3.679   4.520   0.689
22838WAT     H268757   3.603   4.484   0.549
22839WAT      O68758   3.241   7.925   8.792
22839WAT     H168759   3.224   7.878   8.878
22839WAT     H268760   3.269   7.859   8.722
22840WAT      O68761   6.315   6.386   6.009
22840WAT     H168762   6.261   6.452   6.060
22840WAT     H268763   6.255   6.323   5.961
22841WAT      O68764   5.760   9.708   4.174
22841WAT     H168765   5.769   9.669   4.265
22841WAT     H268766   5.710   9.645   4.115
22842WAT      O68767   2.302   3.871   7.213
22842WAT     H168768   2.317   3.814   7.294
22842WAT     H268769   2.366   3.948   7.214
22843WAT      O68770   4.178   0.100   7.225
22843WAT     H168771   4.257   0.116   7.166
22843WAT     H268772   4.130   0.187   7.239
22844WAT      O68773   5.705   2.101   5.571
22844WAT     H168774   5.787   2.134   5.524
22844WAT     H268775   5.724   2.090   5.668
22845WAT      O68776   6.953   2.795   3.336
22845WAT     H168777   6.861   2.834   3.326
22845WAT     H268778   7.002   2.842   3.410
22846WAT      O68779   4.930   1.160   7.240
22846WAT     H168780   4.983   1.244   7.237
22846WAT     H268781   4.835   1.178   7.212
22847WAT      O68782   4.575   7.413   1.630
22847WAT     H168783   4.556   7.459   1.544
22847WAT     H268784   4.499   7.352   1.653
22848WAT      O68785   2.602   9.785   2.403
22848WAT     H168786   2.618   9.778   2.502
22848WAT     H268787   2.669   9.846   2.362
22849WAT      O68788   3.014   5.532   2.680
22849WAT     H168789   3.056   5.618   2.707
22849WAT     H268790   3.080   5.476   2.630
22850WAT      O68791   4.629   0.677   4.957
22850WAT     H168792   4.664   0.649   4.867
22850WAT     H268793   4.538   0.638   4.970
22851WAT      O68794   9.081   2.286   7.636
22851WAT     H168795   9.057   2.362   7.696
22851WAT     H268796   9.082   2.317   7.541
22852WAT      O68797   4.172   2.704   8.196
22852WAT     H168798   4.162   2.725   8.293
22852WAT     H268799   4.239   2.631   8.184
22853WAT      O68800   5.034   7.727   3.551
22853WAT     H168801   5.079   7.696   3.635
22853WAT     H268802   5.063   7.669   3.474
22854WAT      O68803   0.159   2.960   4.099
22854WAT     H168804   0.123   3.053   4.105
22854WAT     H268805   0.084   2.894   4.107
22855WAT      O68806   5.215   9.451   8.325
22855WAT     H168807   5.302   9.497   8.342
22855WAT     H268808   5.215   9.362   8.371
22856WAT      O68809   3.327   0.117   7.259
22856WAT     H168810   3.314   0.018   7.252
22856WAT     H268811   3.372   0.150   7.177
22857WAT      O68812   3.589   9.348   8.392
22857WAT     H168813   3.526   9.420   8.363
22857WAT     H268814   3.636   9.310   8.313
22858WAT      O68815   3.225   7.607   9.381
22858WAT     H168816   3.316   7.566   9.389
22858WAT     H268817   3.161   7.557   9.439
22859WAT      O68818   2.992   0.527   8.969
22859WAT     H168819   2.961   0.622   8.974
22859WAT     H268820   3.091   0.524   8.980
22860WAT      O68821   0.743   9.280   4.223
22860WAT     H168822   0.780   9.359   4.174
22860WAT     H268823   0.661   9.306   4.273
22861WAT      O68824   7.033   2.676   2.975
22861WAT     H168825   7.061   2.634   3.061
22861WAT     H268826   7.026   2.775   2.986
22862WAT      O68827   9.328   7.048   4.273
22862WAT     H168828   9.385   7.079   4.197
22862WAT     H268829   9.303   6.952   4.260
22863WAT      O68830   4.735   1.111   7.841
22863WAT     H168831   4.707   1.201   7.875
22863WAT     H268832   4.750   1.116   7.742
22864WAT      O68833   9.560   4.033   8.363
22864WAT     H168834   9.468   4.067   8.344
22864WAT     H268835   9.624   4.110   8.369
22865WAT      O68836   9.369   6.989   9.130
22865WAT     H168837   9.317   6.905   9.144
22865WAT     H268838   9.360   7.018   9.035
22866WAT      O68839   7.564   4.989   3.615
22866WAT     H168840   7.506   4.962   3.538
22866WAT     H268841   7.557   4.920   3.687
22867WAT      O68842   1.717   8.941   1.700
22867WAT     H168843   1.658   8.910   1.626
22867WAT     H268844   1.801   8.888   1.701
22868WAT      O68845   7.896   8.687   6.213
22868WAT     H168846   7.884   8.786   6.212
22868WAT     H268847   7.812   8.643   6.247
22869WAT      O68848   2.003   2.235   1.452
22869WAT     H168849   2.080   2.175   1.433
22869WAT     H268850   1.962   2.210   1.540
22870WAT      O68851   6.128   0.352   7.241
22870WAT     H168852   6.114   0.428   7.305
22870WAT     H268853   6.186   0.283   7.284
22871WAT      O68854   2.716   1.045   3.163
22871WAT     H168855   2.685   0.988   3.087
22871WAT     H268856   2.715   0.991   3.248
22872WAT      O68857   2.727   5.790   4.931
22872WAT     H168858   2.678   5.703   4.938
22872WAT     H268859   2.702   5.836   4.846
22873WAT      O68860   4.196   9.776   2.024
22873WAT     H168861   4.246   9.827   2.094
22873WAT     H268862   4.254   9.764   1.943
22874WAT      O68863   7.607   0.209   2.431
22874WAT     H168864   7.648   0.137   2.487
22874WAT     H268865   7.672   0.239   2.361
22875WAT      O68866   2.419   5.657   5.253
22875WAT     H168867   2.509   5.641   5.212
22875WAT     H268868   2.396   5.581   5.314
22876WAT      O68869   5.226   3.146   9.762
22876WAT     H168870   5.302   3.112   9.708
22876WAT     H268871   5.258   3.171   9.853
22877WAT      O68872   1.011   1.881   5.098
22877WAT     H168873   0.960   1.796   5.088
22877WAT     H268874   1.069   1.876   5.179
22878WAT      O68875   8.731   1.812   2.873
22878WAT     H168876   8.732   1.909   2.900
22878WAT     H268877   8.665   1.799   2.799
22879WAT      O68878   1.344   6.120   5.167
22879WAT     H168879   1.323   6.123   5.069
22879WAT     H268880   1.278   6.177   5.217
22880WAT      O68881   7.382   4.882   6.145
22880WAT     H168882   7.321   4.918   6.216
22880WAT     H268883   7.402   4.786   6.165
22881WAT      O68884   9.673   9.049   8.892
22881WAT     H168885   9.751   9.108   8.870
22881WAT     H268886   9.594   9.106   8.914
22882WAT      O68887   3.762   4.929   9.552
22882WAT     H168888   3.821   5.007   9.571
22882WAT     H268889   3.700   4.951   9.476
22883WAT      O68890   3.435   2.998   1.115
22883WAT     H168891   3.339   2.974   1.126
22883WAT     H268892   3.443   3.083   1.063
22884WAT      O68893   0.857   4.826   3.571
22884WAT     H168894   0.936   4.862   3.520
22884WAT     H268895   0.788   4.897   3.580
22885WAT      O68896   7.088   7.543   6.056
22885WAT     H168897   7.082   7.518   5.959
22885WAT     H268898   7.106   7.461   6.110
22886WAT      O68899   8.098   4.242   7.431
22886WAT     H168900   8.037   4.236   7.353
22886WAT     H268901   8.181   4.189   7.414
22887WAT      O68902   8.665   0.404   0.685
22887WAT     H168903   8.609   0.373   0.762
22887WAT     H268904   8.656   0.503   0.675
22888WAT      O68905   8.014   4.993   1.785
22888WAT     H168906   7.953   4.999   1.864
22888WAT     H268907   8.032   5.086   1.751
22889WAT      O68908   1.277   2.294   6.504
22889WAT     H168909   1.193   2.257   6.543
22889WAT     H268910   1.255   2.367   6.440
22890WAT      O68911   7.828   4.795   8.004
22890WAT     H168912   7.856   4.769   7.912
22890WAT     H268913   7.748   4.741   8.031
22891WAT      O68914   4.974   9.551   4.970
22891WAT     H168915   4.933   9.639   4.946
22891WAT     H268916   5.073   9.562   4.980
22892WAT      O68917   1.294   1.524   3.089
22892WAT     H168918   1.324   1.486   3.177
22892WAT     H268919   1.356   1.597   3.061
22893WAT      O68920   5.597   2.596   9.587
22893WAT     H168921   5.520   2.659   9.596
22893WAT     H268922   5.664   2.634   9.523
22894WAT      O68923   5.917   2.188   1.540
22894WAT     H168924   5.917   2.112   1.605
22894WAT     H268925   5.980   2.167   1.465
22895WAT      O68926   9.026   3.762   0.922
22895WAT     H168927   8.973   3.777   0.839
22895WAT     H268928   8.964   3.760   1.001
22896WAT      O68929   3.968   7.546   0.814
22896WAT     H168930   4.061   7.560   0.779
22896WAT     H268931   3.905   7.538   0.736
22897WAT      O68932   3.414   0.696   3.290
22897WAT     H168933   3.363   0.783   3.294
22897WAT     H268934   3.377   0.640   3.215
22898WAT      O68935   0.759   0.666   3.647
22898WAT     H168936   0.746   0.750   3.699
22898WAT     H268937   0.698   0.665   3.568
22899WAT      O68938   3.805   6.278   1.877
22899WAT     H168939   3.826   6.213   1.803
22899WAT     H268940   3.850   6.365   1.859
22900WAT      O68941   2.605   3.608   3.369
22900WAT     H168942   2.622   3.666   3.289
22900WAT     H268943   2.690   3.595   3.420
22901WAT      O68944   9.303   0.568   3.113
22901WAT     H168945   9.359   0.634   3.063
22901WAT     H268946   9.256   0.507   3.048
22902WAT      O68947   7.459   2.061   6.263
22902WAT     H168948   7.516   2.130   6.307
22902WAT     H268949   7.420   2.000   6.332
22903WAT      O68950   3.539   1.855   5.766
22903WAT     H168951   3.518   1.790   5.840
22903WAT     H268952   3.504   1.819   5.680
22904WAT      O68953   5.615   3.060   0.846
22904WAT     H168954   5.556   2.981   0.864
22904WAT     H268955   5.588   3.137   0.904
22905WAT      O68956   0.947   0.572   3.291
22905WAT     H168957   0.967   0.546   3.385
22905WAT     H268958   0.970   0.668   3.277
22906WAT      O68959   5.362   1.917   0.189
22906WAT     H168960   5.275   1.961   0.167
22906WAT     H268961   5.432   1.948   0.124
22907WAT      O68962   6.011   7.626   2.386
22907WAT     H168963   5.939   7.650   2.452
22907WAT     H268964   6.084   7.577   2.433
22908WAT      O68965   4.370   1.671   3.312
22908WAT     H168966   4.326   1.582   3.306
22908WAT     H268967   4.301   1.742   3.327
22909WAT      O68968   4.882   7.949   6.096
22909WAT     H168969   4.802   7.976   6.043
22909WAT     H268970   4.951   7.910   6.035
22910WAT      O68971   2.476   3.491   8.057
22910WAT     H168972   2.484   3.406   8.109
22910WAT     H268973   2.525   3.482   7.970
22911WAT      O68974   8.862   6.080   0.739
22911WAT     H168975   8.770   6.041   0.747
22911WAT     H268976   8.858   6.166   0.689
22912WAT      O68977   3.383   0.680   2.170
22912WAT     H168978   3.441   0.627   2.109
22912WAT     H268979   3.437   0.752   2.214
22913WAT      O68980   5.588   8.824   4.721
22913WAT     H168981   5.665   8.766   4.696
22913WAT     H268982   5.502   8.773   4.710
22914WAT      O68983   6.864   7.216   4.076
22914WAT     H168984   6.903   7.136   4.122
22914WAT     H268985   6.919   7.297   4.098
22915WAT      O68986   5.665   5.427   3.176
22915WAT     H168987   5.599   5.381   3.117
22915WAT     H268988   5.669   5.524   3.153
22916WAT      O68989   2.919   5.925   4.239
22916WAT     H168990   2.938   5.827   4.250
22916WAT     H268991   2.949   5.973   4.321
22917WAT      O68992   7.391   8.594   3.199
22917WAT     H168993   7.403   8.693   3.208
22917WAT     H268994   7.460   8.558   3.136
22918WAT      O68995   7.299   8.141   3.173
22918WAT     H168996   7.303   8.229   3.125
22918WAT     H268997   7.377   8.134   3.236
22919WAT      O68998   9.338   5.459   0.638
22919WAT     H168999   9.264   5.525   0.647
22919WAT     H269000   9.302   5.371   0.606
22920WAT      O69001   4.051   4.405   3.582
22920WAT     H169002   4.004   4.488   3.613
22920WAT     H269003   3.991   4.326   3.592
22921WAT      O69004   6.068   8.614   5.630
22921WAT     H169005   6.155   8.659   5.646
22921WAT     H269006   6.080   8.542   5.561
22922WAT      O69007   4.917   5.735   5.572
22922WAT     H169008   4.877   5.676   5.502
22922WAT     H269009   4.957   5.816   5.529
22923WAT      O69010   8.215   0.617   2.214
22923WAT     H169011   8.202   0.645   2.309
22923WAT     H269012   8.191   0.692   2.153
22924WAT      O69013   8.032   5.704   3.217
22924WAT     H169014   8.019   5.631   3.150
22924WAT     H269015   8.054   5.664   3.306
22925WAT      O69016   2.749   7.683   9.042
22925WAT     H169017   2.810   7.605   9.024
22925WAT     H269018   2.767   7.719   9.133
22926WAT      O69019   2.621   8.167   5.963
22926WAT     H169020   2.710   8.147   6.005
22926WAT     H269021   2.548   8.150   6.029
22927WAT      O69022   1.642   9.787   6.652
22927WAT     H169023   1.700   9.775   6.732
22927WAT     H269024   1.546   9.782   6.680
22928WAT      O69025   5.558   2.195   8.849
22928WAT     H169026   5.459   2.203   8.844
22928WAT     H269027   5.583   2.139   8.929
22929WAT      O69028   9.492   7.816   3.972
22929WAT     H169029   9.500   7.915   3.979
22929WAT     H269030   9.470   7.791   3.877
22930WAT      O69031   8.820   6.819   5.472
22930WAT     H169032   8.902   6.819   5.415
22930WAT     H269033   8.793   6.725   5.491
22931WAT      O69034   1.085   0.462   7.619
22931WAT     H169035   1.097   0.553   7.577
22931WAT     H269036   1.150   0.398   7.578
22932WAT      O69037   1.460   7.976   7.487
22932WAT     H169038   1.551   7.986   7.526
22932WAT     H269039   1.415   8.066   7.483
22933WAT      O69040   0.084   2.756   6.792
22933WAT     H169041   0.180   2.751   6.766
22933WAT     H269042   0.077   2.768   6.891
22934WAT      O69043   7.092   8.223   6.282
22934WAT     H169044   7.042   8.157   6.226
22934WAT     H269045   7.030   8.293   6.317
22935WAT      O69046   1.241   0.044   3.156
22935WAT     H169047   1.271   0.023   3.249
22935WAT     H269048   1.168  -0.018   3.129
22936WAT      O69049   2.628   6.920   9.698
22936WAT     H169050   2.655   6.830   9.664
22936WAT     H269051   2.531   6.919   9.722
22937WAT      O69052   0.968   8.365   1.533
22937WAT     H169053   0.905   8.434   1.498
22937WAT     H269054   1.058   8.379   1.491
22938WAT      O69055   8.308   1.458   3.268
22938WAT     H169056   8.341   1.370   3.232
22938WAT     H269057   8.363   1.484   3.347
22939WAT      O69058   0.807   7.591   6.771
22939WAT     H169059   0.743   7.569   6.697
22939WAT     H269060   0.868   7.514   6.787
22940WAT      O69061   5.468   3.265   4.579
22940WAT     H169062   5.389   3.314   4.616
22940WAT     H269063   5.480   3.289   4.483
22941WAT      O69064   5.587   0.556   8.573
22941WAT     H169065   5.532   0.579   8.492
22941WAT     H269066   5.609   0.459   8.571
22942WAT      O69067   2.981   6.250   4.114
22942WAT     H169068   3.074   6.287   4.121
22942WAT     H269069   2.915   6.321   4.139
22943WAT      O69070   8.264   6.616   0.857
22943WAT     H169071   8.276   6.714   0.839
22943WAT     H269072   8.351   6.578   0.889
22944WAT      O69073   9.355   4.269   8.485
22944WAT     H169074   9.358   4.364   8.455
22944WAT     H269075   9.279   4.257   8.550
22945WAT      O69076   8.848   7.381   8.989
22945WAT     H169077   8.869   7.424   8.902
22945WAT     H269078   8.765   7.326   8.981
22946WAT      O69079   4.723   8.773   1.264
22946WAT     H169080   4.703   8.679   1.235
22946WAT     H269081   4.757   8.825   1.186
22947WAT      O69082   5.484   9.540   8.334
22947WAT     H169083   5.494   9.567   8.238
22947WAT     H269084   5.571   9.552   8.381
22948WAT      O69085   7.919   8.210   8.226
22948WAT     H169086   7.837   8.268   8.225
22948WAT     H269087   7.937   8.180   8.320
22949WAT      O69088   5.453   9.624   4.517
22949WAT     H169089   5.374   9.610   4.576
22949WAT     H269090   5.446   9.713   4.472
22950WAT      O69091   7.377   3.875   7.538
22950WAT     H169092   7.395   3.969   7.569
22950WAT     H269093   7.279   3.855   7.545
22951WAT      O69094   9.330   1.042   8.766
22951WAT     H169095   9.385   1.007   8.690
22951WAT     H269096   9.376   1.122   8.806
22952WAT      O69097   4.741   1.613   9.775
22952WAT     H169098   4.785   1.699   9.802
22952WAT     H269099   4.699   1.571   9.855
22953WAT      O69100   9.364   9.038   3.823
22953WAT     H169101   9.298   8.987   3.767
22953WAT     H269102   9.348   9.136   3.811
22954WAT      O69103   3.983   5.148   5.254
22954WAT     H169104   3.982   5.187   5.346
22954WAT     H269105   3.976   5.048   5.261
22955WAT      O69106   5.261   0.720   4.191
22955WAT     H169107   5.196   0.715   4.267
22955WAT     H269108   5.215   0.693   4.106
22956WAT      O69109   8.708   9.197   8.919
22956WAT     H169110   8.681   9.139   8.842
22956WAT     H269111   8.675   9.156   9.004
22957WAT      O69112   4.946   3.480   7.841
22957WAT     H169113   4.901   3.416   7.903
22957WAT     H269114   4.879   3.548   7.809
22958WAT      O69115   6.360   4.422   9.065
22958WAT     H169116   6.405   4.429   8.976
22958WAT     H269117   6.302   4.341   9.067
22959WAT      O69118   8.646   0.042   7.859
22959WAT     H169119   8.646   0.039   7.959
22959WAT     H269120   8.732   0.005   7.825
22960WAT      O69121   2.497   5.656   9.876
22960WAT     H169122   2.591   5.687   9.859
22960WAT     H269123   2.460   5.615   9.792
22961WAT      O69124   1.694   7.241   6.957
22961WAT     H169125   1.646   7.326   6.977
22961WAT     H269126   1.789   7.261   6.933
22962WAT      O69127   7.944   8.341   9.193
22962WAT     H169128   7.991   8.424   9.165
22962WAT     H269129   7.851   8.341   9.157
22963WAT      O69130   7.213   8.308   1.686
22963WAT     H169131   7.282   8.239   1.662
22963WAT     H269132   7.190   8.361   1.605
22964WAT      O69133   2.029   7.454   5.723
22964WAT     H169134   2.084   7.448   5.640
22964WAT     H269135   2.020   7.550   5.750
22965WAT      O69136   8.873   7.733   1.263
22965WAT     H169137   8.797   7.756   1.204
22965WAT     H269138   8.927   7.815   1.283
22966WAT      O69139   1.971   2.232   2.529
22966WAT     H169140   1.935   2.323   2.512
22966WAT     H269141   1.944   2.170   2.455
22967WAT      O69142   4.722   7.603   3.900
22967WAT     H169143   4.633   7.561   3.882
22967WAT     H269144   4.794   7.533   3.893
22968WAT      O69145   9.423   5.949   2.210
22968WAT     H169146   9.398   6.002   2.129
22968WAT     H269147   9.341   5.913   2.254
22969WAT      O69148   8.505   5.009   7.511
22969WAT     H169149   8.592   5.057   7.521
22969WAT     H269150   8.436   5.052   7.569
22970WAT      O69151   4.191   0.621   9.167
22970WAT     H169152   4.267   0.686   9.157
22970WAT     H269153   4.116   0.665   9.217
22971WAT      O69154   1.959   4.808   7.644
22971WAT     H169155   2.021   4.760   7.706
22971WAT     H269156   1.955   4.905   7.669
22972WAT      O69157   4.991   9.508   8.468
22972WAT     H169158   4.918   9.553   8.416
22972WAT     H269159   5.077   9.517   8.419
22973WAT      O69160   8.113   5.287   4.732
22973WAT     H169161   8.194   5.247   4.774
22973WAT     H269162   8.140   5.341   4.653
22974WAT      O69163   8.692   9.067   5.210
22974WAT     H169164   8.736   9.087   5.123
22974WAT     H269165   8.595   9.047   5.195
22975WAT      O69166   7.481   2.627   5.152
22975WAT     H169167   7.560   2.590   5.102
22975WAT     H269168   7.412   2.658   5.087
22976WAT      O69169   3.818   5.696   2.919
22976WAT     H169170   3.842   5.768   2.983
22976WAT     H269171   3.835   5.727   2.826
22977WAT      O69172   4.710   4.230   2.128
22977WAT     H169173   4.707   4.164   2.203
22977WAT     H269174   4.652   4.309   2.151
22978WAT      O69175   4.636   4.677   3.930
22978WAT     H169176   4.542   4.689   3.963
22978WAT     H269177   4.698   4.673   4.009
22979WAT      O69178   2.951   8.225   7.072
22979WAT     H169179   2.871   8.272   7.111
22979WAT     H269180   3.035   8.272   7.102
22980WAT      O69181   1.077   3.370   6.077
22980WAT     H169182   1.103   3.367   6.173
22980WAT     H269183   1.140   3.429   6.027
22981WAT      O69184   4.199   7.890   5.719
22981WAT     H169185   4.291   7.928   5.710
22981WAT     H269186   4.205   7.791   5.723
22982WAT      O69187   9.831   2.157   9.521
22982WAT     H169188   9.791   2.126   9.608
22982WAT     H269189   9.825   2.256   9.514
22983WAT      O69190   5.196   2.343   9.719
22983WAT     H169191   5.098   2.349   9.738
22983WAT     H269192   5.228   2.430   9.682
22984WAT      O69193   3.708   4.891   3.530
22984WAT     H169194   3.641   4.963   3.511
22984WAT     H269195   3.796   4.915   3.489
22985WAT      O69196   2.018   8.439   0.445
22985WAT     H169197   2.035   8.404   0.537
22985WAT     H269198   1.956   8.516   0.449
22986WAT      O69199   3.447   2.426   6.017
22986WAT     H169200   3.388   2.477   6.079
22986WAT     H269201   3.543   2.442   6.041
22987WAT      O69202   2.226   7.889   3.660
22987WAT     H169203   2.273   7.940   3.732
22987WAT     H269204   2.201   7.798   3.694
22988WAT      O69205   8.531   8.086   2.127
22988WAT     H169206   8.568   8.165   2.078
22988WAT     H269207   8.438   8.106   2.156
22989WAT      O69208   6.092   2.485   7.618
22989WAT     H169209   6.047   2.413   7.671
22989WAT     H269210   6.156   2.534   7.677
22990WAT      O69211   4.773   3.641   0.753
22990WAT     H169212   4.687   3.656   0.705
22990WAT     H269213   4.847   3.634   0.686
22991WAT      O69214   8.624   2.309   1.446
22991WAT     H169215   8.583   2.222   1.417
22991WAT     H269216   8.677   2.347   1.370
22992WAT      O69217   8.294   0.405   6.468
22992WAT     H169218   8.219   0.441   6.413
22992WAT     H269219   8.381   0.441   6.433
22993WAT      O69220   6.639   1.436   4.168
22993WAT     H169221   6.637   1.536   4.173
22993WAT     H269222   6.627   1.397   4.259
22994WAT      O69223   7.931   5.831   4.059
22994WAT     H169224   8.029   5.836   4.081
22994WAT     H269225   7.896   5.922   4.041
22995WAT      O69226   4.541   0.832   6.592
22995WAT     H169227   4.533   0.853   6.495
22995WAT     H269228   4.629   0.789   6.610
22996WAT      O69229   6.875   6.738   3.253
22996WAT     H169230   6.870   6.656   3.311
22996WAT     H269231   6.939   6.803   3.294
22997WAT      O69232   3.444   9.589   4.814
22997WAT     H169233   3.477   9.547   4.898
22997WAT     H269234   3.509   9.659   4.783
22998WAT      O69235   5.755   8.526   6.094
22998WAT     H169236   5.839   8.476   6.117
22998WAT     H269237   5.775   8.591   6.021
22999WAT      O69238   8.044   9.480   8.021
22999WAT     H169239   8.102   9.469   7.940
22999WAT     H269240   8.073   9.560   8.073
23000WAT      O69241   9.684   3.561   7.462
23000WAT     H169242   9.642   3.652   7.453
23000WAT     H269243   9.758   3.552   7.396
23001WAT      O69244   7.220   5.416   8.212
23001WAT     H169245   7.255   5.334   8.167
23001WAT     H269246   7.297   5.474   8.240
23002WAT      O69247   1.909   3.524   9.802
23002WAT     H169248   1.878   3.485   9.889
23002WAT     H269249   1.851   3.490   9.728
23003WAT      O69250   2.678   3.162   9.238
23003WAT     H169251   2.674   3.192   9.142
23003WAT     H269252   2.733   3.079   9.244
23004WAT      O69253   5.627   3.140   1.411
23004WAT     H169254   5.705   3.077   1.413
23004WAT     H269255   5.542   3.089   1.418
23005WAT      O69256   3.022   4.327   1.723
23005WAT     H169257   2.990   4.420   1.705
23005WAT     H269258   3.119   4.330   1.748
23006WAT      O69259   7.966   3.080   8.453
23006WAT     H169260   7.908   3.149   8.495
23006WAT     H269261   8.062   3.104   8.469
23007WAT      O69262   3.290   7.879   9.421
23007WAT     H169263   3.264   7.786   9.392
23007WAT     H269264   3.253   7.897   9.512
23008WAT      O69265   1.530   3.549   8.978
23008WAT     H169266   1.603   3.612   9.004
23008WAT     H269267   1.567   3.476   8.921
23009WAT      O69268   5.885   8.896   7.563
23009WAT     H169269   5.817   8.965   7.535
23009WAT     H269270   5.941   8.871   7.484
23010WAT      O69271   9.114   6.151   0.253
23010WAT     H169272   9.117   6.081   0.182
23010WAT     H269273   9.157   6.234   0.220
23011WAT      O69274   7.692   6.172   2.811
23011WAT     H169275   7.622   6.190   2.881
23011WAT     H269276   7.711   6.074   2.808
23012WAT      O69277   7.133   4.495   1.768
23012WAT     H169278   7.135   4.399   1.742
23012WAT     H269279   7.227   4.528   1.781
23013WAT      O69280   2.135   3.025   6.535
23013WAT     H169281   2.145   2.940   6.588
23013WAT     H269282   2.084   3.091   6.589
23014WAT      O69283   7.979   5.788   2.957
23014WAT     H169284   8.054   5.851   2.976
23014WAT     H269285   8.004   5.696   2.987
23015WAT      O69286   9.310   0.027   5.552
23015WAT     H169287   9.275   0.083   5.627
23015WAT     H269288   9.268   0.057   5.466
23016WAT      O69289   5.671   6.533   9.833
23016WAT     H169290   5.721   6.480   9.765
23016WAT     H269291   5.713   6.520   9.923
23017WAT      O69292   8.858   7.881   6.271
23017WAT     H169293   8.863   7.803   6.333
23017WAT     H269294   8.818   7.852   6.184
23018WAT      O69295   2.554   4.705   1.620
23018WAT     H169296   2.613   4.684   1.698
23018WAT     H269297   2.543   4.623   1.564
23019WAT      O69298   3.485   5.464   7.971
23019WAT     H169299   3.389   5.481   7.994
23019WAT     H269300   3.522   5.395   8.034
23020WAT      O69301   3.756   4.025   9.835
23020WAT     H169302   3.814   4.081   9.776
23020WAT     H269303   3.813   3.982   9.905
23021WAT      O69304   5.343   5.169   0.424
23021WAT     H169305   5.411   5.168   0.498
23021WAT     H269306   5.271   5.235   0.446
23022WAT      O69307   5.192   3.501   8.661
23022WAT     H169308   5.104   3.546   8.645
23022WAT     H269309   5.259   3.535   8.596
23023WAT      O69310   9.187   7.486   5.895
23023WAT     H169311   9.251   7.491   5.972
23023WAT     H269312   9.094   7.503   5.928
23024WAT      O69313   9.472   6.339   3.584
23024WAT     H169314   9.565   6.341   3.548
23024WAT     H269315   9.469   6.385   3.673
23025WAT      O69316   7.175   9.401   3.183
23025WAT     H169317   7.161   9.357   3.094
23025WAT     H269318   7.249   9.467   3.176
23026WAT      O69319   2.691   3.016   5.563
23026WAT     H169320   2.662   2.923   5.539
23026WAT     H269321   2.724   3.063   5.481
23027WAT      O69322   5.545   3.300   6.421
23027WAT     H169323   5.469   3.276   6.361
23027WAT     H269324   5.509   3.335   6.508
23028WAT      O69325   7.016   3.023   6.264
23028WAT     H169326   7.107   3.028   6.306
23028WAT     H269327   6.947   3.054   6.329
23029WAT      O69328   2.983   3.738   1.993
23029WAT     H169329   3.003   3.834   1.971
23029WAT     H269330   2.898   3.733   2.044
23030WAT      O69331   9.416   2.493   4.263
23030WAT     H169332   9.386   2.421   4.201
23030WAT     H269333   9.513   2.481   4.283
23031WAT      O69334   4.139   4.240   8.201
23031WAT     H169335   4.091   4.167   8.248
23031WAT     H269336   4.074   4.292   8.145
23032WAT      O69337   8.861   2.520   6.869
23032WAT     H169338   8.821   2.428   6.861
23032WAT     H269339   8.957   2.517   6.841
23033WAT      O69340   7.882   0.197   5.369
23033WAT     H169341   7.868   0.106   5.410
23033WAT     H269342   7.895   0.264   5.442
23034WAT      O69343   2.457   8.027   1.959
23034WAT     H169344   2.551   8.000   1.979
23034WAT     H269345   2.456   8.084   1.877
23035WAT      O69346   8.694   2.376   0.385
23035WAT     H169347   8.634   2.320   0.327
23035WAT     H269348   8.738   2.317   0.453
23036WAT      O69349   5.202   0.664   5.117
23036WAT     H169350   5.118   0.718   5.114
23036WAT     H269351   5.255   0.688   5.198
23037WAT      O69352   0.115   9.164   5.998
23037WAT     H169353   0.178   9.100   6.043
23037WAT     H269354   0.107   9.140   5.901
23038WAT      O69355   2.261   9.706   3.683
23038WAT     H169356   2.196   9.781   3.681
23038WAT     H269357   2.218   9.623   3.646
23039WAT      O69358   0.001   1.278   8.849
23039WAT     H169359   0.092   1.316   8.837
23039WAT     H269360  -0.053   1.339   8.907
23040WAT      O69361   0.193   5.733   5.793
23040WAT     H169362   0.145   5.820   5.782
23040WAT     H269363   0.220   5.698   5.703
23041WAT      O69364   0.275   0.576   9.144
23041WAT     H169365   0.329   0.544   9.222
23041WAT     H269366   0.257   0.674   9.153
23042WAT      O69367   8.612   3.971   5.249
23042WAT     H169368   8.612   3.885   5.300
23042WAT     H269369   8.701   3.984   5.205
23043WAT      O69370   9.524   7.694   0.621
23043WAT     H169371   9.458   7.662   0.689
23043WAT     H269372   9.525   7.794   0.621
23044WAT      O69373   7.920   1.251   8.918
23044WAT     H169374   7.947   1.275   9.011
23044WAT     H269375   7.998   1.212   8.870
23045WAT      O69376   5.709   1.044   6.369
23045WAT     H169377   5.782   1.104   6.335
23045WAT     H269378   5.750   0.965   6.414
23046WAT      O69379   3.030   9.524   1.763
23046WAT     H169380   3.006   9.616   1.732
23046WAT     H269381   3.112   9.528   1.820
23047WAT      O69382   5.703   8.012   9.114
23047WAT     H169383   5.667   7.927   9.153
23047WAT     H269384   5.791   7.994   9.070
23048WAT      O69385   0.016   5.680   8.361
23048WAT     H169386   0.098   5.631   8.390
23048WAT     H269387   0.016   5.690   8.262
23049WAT      O69388   2.429   2.266   6.608
23049WAT     H169389   2.395   2.227   6.694
23049WAT     H269390   2.518   2.309   6.624
23050WAT      O69391   9.570   9.833   7.668
23050WAT     H169392   9.481   9.811   7.708
23050WAT     H269393   9.594   9.928   7.690
23051WAT      O69394   1.662   0.307   7.991
23051WAT     H169395   1.644   0.209   7.998
23051WAT     H269396   1.590   0.350   7.936
23052WAT      O69397   8.006   6.379   2.555
23052WAT     H169398   8.103   6.403   2.550
23052WAT     H269399   7.979   6.333   2.470
23053WAT      O69400   1.792   5.205   5.851
23053WAT     H169401   1.741   5.153   5.919
23053WAT     H269402   1.761   5.180   5.759
23054WAT      O69403   9.788   8.717   3.839
23054WAT     H169404   9.839   8.693   3.922
23054WAT     H269405   9.850   8.758   3.773
23055WAT      O69406   7.298   7.829   1.122
23055WAT     H169407   7.282   7.895   1.048
23055WAT     H269408   7.309   7.877   1.208
23056WAT      O69409   3.710   0.292   5.462
23056WAT     H169410   3.637   0.331   5.406
23056WAT     H269411   3.689   0.305   5.558
23057WAT      O69412   3.437   1.684   0.855
23057WAT     H169413   3.392   1.737   0.927
23057WAT     H269414   3.386   1.600   0.839
23058WAT      O69415   7.341   4.260   3.543
23058WAT     H169416   7.313   4.214   3.627
23058WAT     H269417   7.441   4.271   3.543
23059WAT      O69418   3.708   9.839   4.037
23059WAT     H169419   3.773   9.795   3.975
23059WAT     H269420   3.657   9.909   3.988
23060WAT      O69421   9.367   7.683   2.525
23060WAT     H169422   9.440   7.722   2.469
23060WAT     H269423   9.406   7.627   2.598
23061WAT      O69424   7.655   7.430   2.102
23061WAT     H169425   7.586   7.502   2.090
23061WAT     H269426   7.704   7.445   2.188
23062WAT      O69427   9.844   5.883   7.120
23062WAT     H169428   9.812   5.976   7.105
23062WAT     H269429   9.850   5.865   7.218
23063WAT      O69430   5.799   7.068   0.289
23063WAT     H169431   5.747   6.983   0.280
23063WAT     H269432   5.741   7.146   0.267
23064WAT      O69433   0.006   6.919   6.411
23064WAT     H169434   0.009   6.868   6.325
23064WAT     H269435   0.003   7.017   6.391
23065WAT      O69436   1.811   6.513   4.319
23065WAT     H169437   1.750   6.515   4.239
23065WAT     H269438   1.901   6.480   4.291
23066WAT      O69439   3.512   1.563   5.073
23066WAT     H169440   3.513   1.656   5.035
23066WAT     H269441   3.604   1.539   5.103
23067WAT      O69442   4.635   9.445   3.871
23067WAT     H169443   4.698   9.461   3.947
23067WAT     H269444   4.583   9.361   3.888
23068WAT      O69445   8.225   9.085   3.081
23068WAT     H169446   8.309   9.090   3.026
23068WAT     H269447   8.152   9.046   3.025
23069WAT      O69448   2.886   3.651   0.231
23069WAT     H169449   2.915   3.733   0.281
23069WAT     H269450   2.851   3.678   0.141
23070WAT      O69451   2.069   2.059   4.825
23070WAT     H169452   2.029   2.126   4.887
23070WAT     H269453   2.029   1.969   4.843
23071WAT      O69454   1.451   9.130   1.098
23071WAT     H169455   1.355   9.117   1.120
23071WAT     H269456   1.507   9.069   1.154
23072WAT      O69457   3.932   8.865   2.798
23072WAT     H169458   3.965   8.892   2.888
23072WAT     H269459   3.954   8.769   2.781
23073WAT      O69460   9.593   6.760   7.846
23073WAT     H169461   9.650   6.837   7.818
23073WAT     H269462   9.501   6.771   7.808
23074WAT      O69463   5.136   3.464   6.897
23074WAT     H169464   5.167   3.534   6.961
23074WAT     H269465   5.043   3.486   6.867
23075WAT      O69466   5.329   0.828   7.399
23075WAT     H169467   5.276   0.877   7.469
23075WAT     H269468   5.426   0.841   7.416
23076WAT      O69469   4.788   9.187   7.252
23076WAT     H169470   4.824   9.171   7.160
23076WAT     H269471   4.797   9.104   7.307
23077WAT      O69472   3.264   1.538   9.740
23077WAT     H169473   3.338   1.484   9.780
23077WAT     H269474   3.302   1.605   9.676
23078WAT      O69475   9.607   3.806   7.352
23078WAT     H169476   9.510   3.799   7.328
23078WAT     H269477   9.617   3.867   7.430
23079WAT      O69478   7.854   8.974   2.834
23079WAT     H169479   7.862   8.976   2.933
23079WAT     H269480   7.945   8.978   2.793
23080WAT      O69481   3.398   5.349   3.082
23080WAT     H169482   3.462   5.279   3.112
23080WAT     H269483   3.371   5.330   2.987
23081WAT      O69484   9.444   4.469   5.580
23081WAT     H169485   9.362   4.515   5.543
23081WAT     H269486   9.416   4.392   5.637
23082WAT      O69487   8.056   5.523   6.004
23082WAT     H169488   8.154   5.536   5.989
23082WAT     H269489   8.037   5.425   6.012
23083WAT      O69490   2.545   5.850   6.665
23083WAT     H169491   2.612   5.863   6.738
23083WAT     H269492   2.551   5.757   6.630
23084WAT      O69493   3.773   2.647   8.377
23084WAT     H169494   3.834   2.726   8.369
23084WAT     H269495   3.745   2.636   8.472
23085WAT      O69496   5.334   2.158   9.190
23085WAT     H169497   5.335   2.224   9.115
23085WAT     H269498   5.319   2.066   9.153
23086WAT      O69499   8.231   0.966   1.788
23086WAT     H169500   8.301   1.005   1.848
23086WAT     H269501   8.254   0.871   1.768
23087WAT      O69502   7.479   9.640   0.669
23087WAT     H169503   7.465   9.736   0.691
23087WAT     H269504   7.432   9.617   0.584
23088WAT      O69505   2.851   4.318   1.010
23088WAT     H169506   2.864   4.246   0.942
23088WAT     H269507   2.918   4.309   1.083
23089WAT      O69508   1.935   3.114   5.367
23089WAT     H169509   2.029   3.125   5.333
23089WAT     H269510   1.916   3.017   5.383
23090WAT      O69511   6.538   0.659   0.388
23090WAT     H169512   6.461   0.694   0.335
23090WAT     H269513   6.547   0.561   0.375
23091WAT      O69514   0.154   6.992   8.012
23091WAT     H169515   0.055   7.002   8.003
23091WAT     H269516   0.185   7.041   8.094
23092WAT      O69517   2.902   8.969   7.953
23092WAT     H169518   2.875   8.904   8.025
23092WAT     H269519   2.836   8.964   7.878
23093WAT      O69520   6.022   8.984   1.121
23093WAT     H169521   5.976   8.967   1.208
23093WAT     H269522   6.118   8.958   1.129
23094WAT      O69523   7.023   5.832   2.716
23094WAT     H169524   7.040   5.802   2.622
23094WAT     H269525   6.969   5.764   2.764
23095WAT      O69526   6.419   3.342   4.682
23095WAT     H169527   6.433   3.294   4.596
23095WAT     H269528   6.337   3.306   4.727
23096WAT      O69529   1.677   4.622   6.618
23096WAT     H169530   1.646   4.714   6.644
23096WAT     H269531   1.749   4.629   6.549
23097WAT      O69532   4.581   0.749   8.007
23097WAT     H169533   4.552   0.665   8.053
23097WAT     H269534   4.511   0.777   7.942
23098WAT      O69535   3.901   8.733   6.573
23098WAT     H169536   3.905   8.810   6.636
23098WAT     H269537   3.815   8.683   6.588
23099WAT      O69538   4.870   0.431   3.609
23099WAT     H169539   4.795   0.493   3.587
23099WAT     H269540   4.835   0.349   3.654
23100WAT      O69541   8.808   8.954   2.593
23100WAT     H169542   8.880   8.885   2.588
23100WAT     H269543   8.743   8.939   2.519
23101WAT      O69544   0.868   7.053   7.359
23101WAT     H169545   0.840   6.966   7.399
23101WAT     H269546   0.813   7.072   7.277
23102WAT      O69547   4.892   8.695   3.756
23102WAT     H169548   4.929   8.621   3.812
23102WAT     H269549   4.949   8.776   3.765
23103WAT      O69550   5.392   3.984   4.196
23103WAT     H169551   5.336   4.059   4.162
23103WAT     H269552   5.338   3.927   4.258
23104WAT      O69553   8.977   5.896   7.825
23104WAT     H169554   9.035   5.912   7.745
23104WAT     H269555   9.034   5.897   7.907
23105WAT      O69556   4.852   4.084   6.556
23105WAT     H169557   4.919   4.121   6.619
23105WAT     H269558   4.897   4.055   6.471
23106WAT      O69559   5.888   1.987   2.388
23106WAT     H169560   5.962   2.049   2.360
23106WAT     H269561   5.811   2.040   2.422
23107WAT      O69562   0.389   3.620   0.360
23107WAT     H169563   0.347   3.537   0.323
23107WAT     H269564   0.334   3.700   0.334
23108WAT      O69565   9.414   4.128   7.569
23108WAT     H169566   9.418   4.159   7.665
23108WAT     H269567   9.401   4.207   7.510
23109WAT      O69568   2.663   4.098   2.567
23109WAT     H169569   2.760   4.089   2.545
23109WAT     H269570   2.608   4.066   2.489
23110WAT      O69571   5.284   5.197   9.638
23110WAT     H169572   5.221   5.223   9.565
23110WAT     H269573   5.291   5.098   9.642
23111WAT      O69574   7.104   7.571   8.081
23111WAT     H169575   7.005   7.568   8.068
23111WAT     H269576   7.146   7.625   8.009
23112WAT      O69577   9.029   4.318   4.212
23112WAT     H169578   9.100   4.313   4.142
23112WAT     H269579   8.950   4.265   4.182
23113WAT      O69580   5.763   6.472   2.367
23113WAT     H169581   5.779   6.479   2.466
23113WAT     H269582   5.672   6.436   2.351
23114WAT      O69583   4.341   1.676   5.494
23114WAT     H169584   4.404   1.656   5.569
23114WAT     H269585   4.271   1.605   5.489
23115WAT      O69586   6.777   0.719   7.582
23115WAT     H169587   6.754   0.622   7.582
23115WAT     H269588   6.843   0.738   7.655
23116WAT      O69589   2.364   5.397   4.359
23116WAT     H169590   2.408   5.409   4.448
23116WAT     H269591   2.332   5.485   4.326
23117WAT      O69592   4.285   7.937   7.158
23117WAT     H169593   4.320   7.957   7.250
23117WAT     H269594   4.331   7.997   7.092
23118WAT      O69595   8.669   0.659   0.080
23118WAT     H169596   8.595   0.691   0.022
23118WAT     H269597   8.713   0.580   0.038
23119WAT      O69598   1.394   0.095   9.752
23119WAT     H169599   1.451   0.051   9.682
23119WAT     H269600   1.350   0.025   9.808
23120WAT      O69601   7.959   5.805   2.407
23120WAT     H169602   7.940   5.815   2.505
23120WAT     H269603   8.023   5.729   2.393
23121WAT      O69604   2.869   1.731   2.131
23121WAT     H169605   2.817   1.646   2.142
23121WAT     H269606   2.862   1.763   2.037
23122WAT      O69607   6.370   9.145   5.958
23122WAT     H169608   6.322   9.075   6.011
23122WAT     H269609   6.460   9.161   5.997
23123WAT      O69610   0.109   8.121   9.359
23123WAT     H169611   0.073   8.033   9.389
23123WAT     H269612   0.092   8.132   9.261
23124WAT      O69613   4.143   9.356   0.378
23124WAT     H169614   4.203   9.304   0.317
23124WAT     H269615   4.189   9.440   0.406
23125WAT      O69616   3.127   1.146   2.958
23125WAT     H169617   3.028   1.138   2.960
23125WAT     H269618   3.157   1.181   2.869
23126WAT      O69619   7.508   5.541   8.762
23126WAT     H169620   7.596   5.498   8.742
23126WAT     H269621   7.510   5.636   8.733
23127WAT      O69622   6.518   3.002   6.113
23127WAT     H169623   6.559   2.989   6.022
23127WAT     H269624   6.434   2.949   6.120
23128WAT      O69625   0.228   8.781   5.919
23128WAT     H169626   0.132   8.761   5.938
23128WAT     H269627   0.282   8.698   5.931
23129WAT      O69628   7.683   1.324   4.678
23129WAT     H169629   7.679   1.404   4.739
23129WAT     H269630   7.613   1.331   4.608
23130WAT      O69631   2.981   2.148   6.383
23130WAT     H169632   2.971   2.174   6.287
23130WAT     H269633   2.983   2.231   6.440
23131WAT      O69634   5.174   6.904   8.051
23131WAT     H169635   5.126   6.823   8.017
23131WAT     H269636   5.148   6.921   8.146
23132WAT      O69637   6.308   8.524   1.623
23132WAT     H169638   6.267   8.582   1.693
23132WAT     H269639   6.245   8.516   1.546
23133WAT      O69640   1.637   9.818   4.723
23133WAT     H169641   1.591   9.734   4.696
23133WAT     H269642   1.602   9.894   4.669
23134WAT      O69643   2.527   0.584   6.873
23134WAT     H169644   2.460   0.627   6.934
23134WAT     H269645   2.530   0.633   6.786
23135WAT      O69646   4.208   8.081   0.428
23135WAT     H169647   4.118   8.090   0.472
23135WAT     H269648   4.200   8.107   0.332
23136WAT      O69649   5.010   4.143   1.834
23136WAT     H169650   4.964   4.229   1.810
23136WAT     H269651   4.989   4.074   1.765
23137WAT      O69652   2.992   5.676   8.601
23137WAT     H169653   2.985   5.626   8.515
23137WAT     H269654   2.970   5.773   8.585
23138WAT      O69655   5.776   0.482   2.861
23138WAT     H169656   5.819   0.567   2.892
23138WAT     H269657   5.690   0.503   2.816
23139WAT      O69658   4.920   3.521   0.526
23139WAT     H169659   4.972   3.436   0.512
23139WAT     H269660   4.933   3.581   0.447
23140WAT      O69661   2.520   3.441   7.801
23140WAT     H169662   2.468   3.522   7.774
23140WAT     H269663   2.457   3.363   7.812
23141WAT      O69664   6.663   5.844   6.626
23141WAT     H169665   6.600   5.790   6.571
23141WAT     H269666   6.749   5.856   6.576
23142WAT      O69667   6.411   2.321   7.976
23142WAT     H169668   6.377   2.235   8.015
23142WAT     H269669   6.363   2.398   8.016
23143WAT      O69670   4.950   3.297   2.749
23143WAT     H169671   4.869   3.244   2.723
23143WAT     H269672   4.923   3.390   2.773
23144WAT      O69673   5.229   3.439   1.277
23144WAT     H169674   5.315   3.491   1.283
23144WAT     H269675   5.233   3.377   1.198
23145WAT      O69676   0.731   8.885   1.356
23145WAT     H169677   0.746   8.872   1.258
23145WAT     H269678   0.819   8.879   1.404
23146WAT      O69679   3.221   0.041   9.390
23146WAT     H169680   3.140   0.064   9.444
23146WAT     H269681   3.208  -0.050   9.349
23147WAT      O69682   5.736   6.205   6.120
23147WAT     H169683   5.787   6.291   6.124
23147WAT     H269684   5.797   6.128   6.140
23148WAT      O69685   6.765   8.757   8.308
23148WAT     H169686   6.726   8.789   8.394
23148WAT     H269687   6.765   8.657   8.306
23149WAT      O69688   7.441   3.721   4.392
23149WAT     H169689   7.478   3.721   4.299
23149WAT     H269690   7.343   3.740   4.389
23150WAT      O69691   9.591   5.474   0.583
23150WAT     H169692   9.498   5.457   0.616
23150WAT     H269693   9.586   5.530   0.500
23151WAT      O69694   8.182   2.043   9.049
23151WAT     H169695   8.219   2.125   9.092
23151WAT     H269696   8.192   2.050   8.950
23152WAT      O69697   0.729   8.669   5.310
23152WAT     H169698   0.651   8.618   5.273
23152WAT     H269699   0.705   8.766   5.317
23153WAT      O69700   8.438   2.978   7.860
23153WAT     H169701   8.526   2.956   7.902
23153WAT     H269702   8.364   2.954   7.922
23154WAT      O69703   7.413   7.010   4.159
23154WAT     H169704   7.488   7.057   4.205
23154WAT     H269705   7.357   7.077   4.110
23155WAT      O69706   4.600   0.941   5.656
23155WAT     H169707   4.514   0.906   5.620
23155WAT     H269708   4.598   0.938   5.756
23156WAT      O69709   7.745   8.954   9.408
23156WAT     H169710   7.794   8.870   9.429
23156WAT     H269711   7.778   8.992   9.322
23157WAT      O69712   2.884   2.639   7.379
23157WAT     H169713   2.850   2.592   7.297
23157WAT     H269714   2.814   2.635   7.450
23158WAT      O69715   4.588   0.263   5.144
23158WAT     H169716   4.669   0.321   5.132
23158WAT     H269717   4.612   0.168   5.126
23159WAT      O69718   6.499   3.706   6.480
23159WAT     H169719   6.551   3.782   6.442
23159WAT     H269720   6.514   3.624   6.424
23160WAT      O69721   0.283   1.738   9.755
23160WAT     H169722   0.226   1.691   9.822
23160WAT     H269723   0.310   1.828   9.790
23161WAT      O69724   2.283   1.185   4.913
23161WAT     H169725   2.317   1.252   4.979
23161WAT     H269726   2.300   1.093   4.948
23162WAT      O69727   4.637   7.252   8.309
23162WAT     H169728   4.644   7.313   8.230
23162WAT     H269729   4.545   7.213   8.313
23163WAT      O69730   5.453   2.797   0.489
23163WAT     H169731   5.485   2.891   0.505
23163WAT     H269732   5.437   2.752   0.577
23164WAT      O69733   1.777   7.565   2.316
23164WAT     H169734   1.687   7.541   2.281
23164WAT     H269735   1.835   7.484   2.319
23165WAT      O69736   7.306   8.859   5.438
23165WAT     H169737   7.228   8.886   5.495
23165WAT     H269738   7.318   8.760   5.444
23166WAT      O69739   2.128   3.953   5.518
23166WAT     H169740   2.041   3.905   5.503
23166WAT     H269741   2.204   3.893   5.494
23167WAT      O69742   9.371   1.929   2.446
23167WAT     H169743   9.360   2.028   2.449
23167WAT     H269744   9.314   1.887   2.516
23168WAT      O69745   2.106   5.236   4.531
23168WAT     H169746   2.131   5.146   4.570
23168WAT     H269747   2.111   5.305   4.603
23169WAT      O69748   6.357   3.793   2.278
23169WAT     H169749   6.339   3.720   2.213
23169WAT     H269750   6.364   3.880   2.230
23170WAT      O69751   4.580   2.636   6.332
23170WAT     H169752   4.501   2.651   6.272
23170WAT     H269753   4.556   2.568   6.401
23171WAT      O69754   1.597   7.394   7.797
23171WAT     H169755   1.553   7.418   7.711
23171WAT     H269756   1.533   7.409   7.872
23172WAT      O69757   0.412   3.407   3.927
23172WAT     H169758   0.424   3.356   4.013
23172WAT     H269759   0.380   3.345   3.856
23173WAT      O69760   8.610   3.526   3.756
23173WAT     H169761   8.528   3.582   3.763
23173WAT     H269762   8.603   3.467   3.676
23174WAT      O69763   4.940   8.919   6.114
23174WAT     H169764   4.887   8.995   6.077
23174WAT     H269765   4.896   8.885   6.198
23175WAT      O69766   0.416   0.974   0.047
23175WAT     H169767   0.476   0.897   0.069
23175WAT     H269768   0.321   0.949   0.068
23176WAT      O69769   3.616   8.366   3.055
23176WAT     H169770   3.651   8.322   3.138
23176WAT     H269771   3.689   8.419   3.012
23177WAT      O69772   7.076   4.581   7.120
23177WAT     H169773   6.989   4.564   7.074
23177WAT     H269774   7.059   4.628   7.207
23178WAT      O69775   6.793   9.311   0.901
23178WAT     H169776   6.765   9.406   0.912
23178WAT     H269777   6.712   9.254   0.882
23179WAT      O69778   6.951   6.469   6.655
23179WAT     H169779   6.998   6.491   6.741
23179WAT     H269780   6.879   6.537   6.639
23180WAT      O69781   7.007   6.695   1.868
23180WAT     H169782   6.926   6.721   1.919
23180WAT     H269783   6.993   6.714   1.771
23181WAT      O69784   2.128   8.768   5.176
23181WAT     H169785   2.058   8.720   5.122
23181WAT     H269786   2.130   8.864   5.149
23182WAT      O69787   5.850   8.002   5.352
23182WAT     H169788   5.851   8.102   5.349
23182WAT     H269789   5.761   7.971   5.385
23183WAT      O69790   5.972   2.138   8.632
23183WAT     H169791   5.873   2.151   8.635
23183WAT     H269792   5.997   2.053   8.678
23184WAT      O69793   7.038   7.702   3.897
23184WAT     H169794   7.102   7.635   3.935
23184WAT     H269795   6.980   7.657   3.828
23185WAT      O69796   3.314   8.821   9.695
23185WAT     H169797   3.217   8.827   9.671
23185WAT     H269798   3.327   8.754   9.767
23186WAT      O69799   7.964   4.762   2.729
23186WAT     H169800   7.887   4.699   2.717
23186WAT     H269801   7.938   4.834   2.793
23187WAT      O69802   4.405   2.796   6.098
23187WAT     H169803   4.311   2.825   6.080
23187WAT     H269804   4.464   2.877   6.107
23188WAT      O69805   2.314   1.834   3.394
23188WAT     H169806   2.332   1.753   3.338
23188WAT     H269807   2.318   1.916   3.337
23189WAT      O69808   7.495   9.259   7.214
23189WAT     H169809   7.457   9.237   7.304
23189WAT     H269810   7.531   9.353   7.215
23190WAT      O69811   8.016   8.140   7.768
23190WAT     H169812   8.089   8.205   7.747
23190WAT     H269813   8.007   8.131   7.867
23191WAT      O69814   6.285   3.880   5.851
23191WAT     H169815   6.212   3.851   5.912
23191WAT     H269816   6.285   3.980   5.844
23192WAT      O69817   1.047   4.248   2.719
23192WAT     H169818   1.081   4.253   2.813
23192WAT     H269819   1.061   4.156   2.683
23193WAT      O69820   4.645   5.110   3.555
23193WAT     H169821   4.719   5.048   3.578
23193WAT     H269822   4.557   5.066   3.576
23194WAT      O69823   8.448   5.697   0.488
23194WAT     H169824   8.485   5.729   0.400
23194WAT     H269825   8.508   5.727   0.562
23195WAT      O69826   3.881   0.868   3.189
23195WAT     H169827   3.785   0.866   3.219
23195WAT     H269828   3.936   0.915   3.258
23196WAT      O69829   1.073   3.991   1.964
23196WAT     H169830   1.146   3.933   1.929
23196WAT     H269831   1.082   3.999   2.064
23197WAT      O69832   0.037   4.599   0.392
23197WAT     H169833   0.099   4.652   0.449
23197WAT     H269834  -0.057   4.610   0.425
23198WAT      O69835   8.443   6.261   6.928
23198WAT     H169836   8.361   6.245   6.873
23198WAT     H269837   8.427   6.339   6.989
23199WAT      O69838   2.278   4.058   6.613
23199WAT     H169839   2.298   4.013   6.527
23199WAT     H269840   2.306   4.154   6.608
23200WAT      O69841   5.748   9.180   0.283
23200WAT     H169842   5.708   9.130   0.207
23200WAT     H269843   5.792   9.116   0.346
23201WAT      O69844   1.238   6.897   8.726
23201WAT     H169845   1.274   6.904   8.818
23201WAT     H269846   1.281   6.820   8.678
23202WAT      O69847   7.979   9.289   6.298
23202WAT     H169848   8.061   9.279   6.242
23202WAT     H269849   7.912   9.219   6.271
23203WAT      O69850   1.203   1.949   4.906
23203WAT     H169851   1.125   1.904   4.948
23203WAT     H269852   1.229   2.029   4.961
23204WAT      O69853   7.507   2.415   1.771
23204WAT     H169854   7.476   2.501   1.731
23204WAT     H269855   7.574   2.433   1.843
23205WAT      O69856   1.216   2.015   9.518
23205WAT     H169857   1.192   2.109   9.493
23205WAT     H269858   1.158   1.985   9.594
23206WAT      O69859   9.728   6.516   6.410
23206WAT     H169860   9.697   6.596   6.358
23206WAT     H269861   9.749   6.543   6.504
23207WAT      O69862   7.209   6.192   6.619
23207WAT     H169863   7.282   6.139   6.662
23207WAT     H269864   7.247   6.276   6.581
23208WAT      O69865   7.306   2.506   3.404
23208WAT     H169866   7.331   2.596   3.440
23208WAT     H269867   7.388   2.450   3.393
23209WAT      O69868   8.750   0.965   5.855
23209WAT     H169869   8.754   0.872   5.817
23209WAT     H269870   8.694   1.023   5.795
23210WAT      O69871   7.644   8.983   6.574
23210WAT     H169872   7.675   8.959   6.666
23210WAT     H269873   7.671   9.077   6.554
23211WAT      O69874   3.562   4.613   2.353
23211WAT     H169875   3.477   4.648   2.313
23211WAT     H269876   3.543   4.527   2.401
23212WAT      O69877   5.935   6.096   1.364
23212WAT     H169878   5.949   6.012   1.312
23212WAT     H269879   5.843   6.132   1.344
23213WAT      O69880   0.785   5.347   8.259
23213WAT     H169881   0.788   5.270   8.195
23213WAT     H269882   0.776   5.432   8.208
23214WAT      O69883   0.327   6.428   8.403
23214WAT     H169884   0.332   6.363   8.326
23214WAT     H269885   0.354   6.519   8.372
23215WAT      O69886   9.772   5.505   4.691
23215WAT     H169887   9.737   5.412   4.683
23215WAT     H269888   9.774   5.532   4.787
23216WAT      O69889   5.698   7.167   4.833
23216WAT     H169890   5.690   7.112   4.916
23216WAT     H269891   5.679   7.263   4.854
23217WAT      O69892   8.544   4.589   0.108
23217WAT     H169893   8.450   4.621   0.096
23217WAT     H269894   8.569   4.531   0.031
23218WAT      O69895   4.959   3.001   8.826
23218WAT     H169896   5.056   3.015   8.848
23218WAT     H269897   4.904   3.066   8.878
23219WAT      O69898   4.079   1.113   8.902
23219WAT     H169899   3.991   1.067   8.911
23219WAT     H269900   4.118   1.129   8.993
23220WAT      O69901   6.253   9.045   6.762
23220WAT     H169902   6.351   9.025   6.762
23220WAT     H269903   6.230   9.101   6.842
23221WAT      O69904   1.196   5.247   6.047
23221WAT     H169905   1.107   5.203   6.058
23221WAT     H269906   1.188   5.345   6.067
23222WAT      O69907   3.742   4.135   2.225
23222WAT     H169908   3.714   4.072   2.153
23222WAT     H269909   3.672   4.138   2.296
23223WAT      O69910   8.952   2.847   0.024
23223WAT     H169911   9.008   2.930   0.026
23223WAT     H269912   8.907   2.839  -0.065
23224WAT      O69913   9.464   9.376   2.434
23224WAT     H169914   9.408   9.293   2.432
23224WAT     H269915   9.405   9.456   2.422
23225WAT      O69916   0.151   8.239   8.074
23225WAT     H169917   0.220   8.258   8.145
23225WAT     H269918   0.164   8.302   7.998
23226WAT      O69919   0.336   6.393   7.336
23226WAT     H169920   0.343   6.473   7.276
23226WAT     H269921   0.287   6.418   7.419
23227WAT      O69922   2.992   4.463   8.869
23227WAT     H169923   2.941   4.547   8.848
23227WAT     H269924   3.015   4.417   8.783
23228WAT      O69925   3.645   3.366   3.504
23228WAT     H169926   3.689   3.327   3.585
23228WAT     H269927   3.637   3.296   3.433
23229WAT      O69928   7.243   3.651   4.791
23229WAT     H169929   7.300   3.617   4.716
23229WAT     H269930   7.254   3.750   4.799
23230WAT      O69931   7.642   1.611   6.920
23230WAT     H169932   7.565   1.613   6.984
23230WAT     H269933   7.724   1.579   6.968
23231WAT      O69934   9.357   9.813   7.830
23231WAT     H169935   9.284   9.766   7.880
23231WAT     H269936   9.317   9.878   7.765
23232WAT      O69937   0.172   3.088   5.987
23232WAT     H169938   0.264   3.126   5.991
23232WAT     H269939   0.129   3.114   5.901
23233WAT      O69940   4.478   4.712   7.384
23233WAT     H169941   4.453   4.706   7.288
23233WAT     H269942   4.471   4.622   7.427
23234WAT      O69943   5.606   7.775   9.216
23234WAT     H169944   5.617   7.708   9.290
23234WAT     H269945   5.564   7.730   9.137
23235WAT      O69946   8.977   0.719   5.771
23235WAT     H169947   8.962   0.680   5.862
23235WAT     H269948   9.058   0.677   5.730
23236WAT      O69949   8.810   2.822   9.640
23236WAT     H169950   8.831   2.746   9.578
23236WAT     H269951   8.711   2.839   9.639
23237WAT      O69952   8.638   5.183   2.921
23237WAT     H169953   8.541   5.198   2.902
23237WAT     H269954   8.676   5.122   2.851
23238WAT      O69955   2.009   1.850   8.440
23238WAT     H169956   2.104   1.879   8.444
23238WAT     H269957   1.990   1.809   8.350
23239WAT      O69958   9.658   7.077   8.772
23239WAT     H169959   9.713   7.118   8.699
23239WAT     H269960   9.634   7.147   8.839
23240WAT      O69961   2.751   9.081   0.700
23240WAT     H169962   2.840   9.107   0.663
23240WAT     H269963   2.764   9.025   0.782
23241WAT      O69964   0.927   0.106   7.872
23241WAT     H169965   0.980   0.036   7.919
23241WAT     H269966   0.962   0.117   7.779
23242WAT      O69967   7.940   7.002   9.702
23242WAT     H169968   7.884   7.080   9.732
23242WAT     H269969   8.036   7.029   9.698
23243WAT      O69970   7.896   2.417   5.242
23243WAT     H169971   7.995   2.428   5.234
23243WAT     H269972   7.865   2.458   5.328
23244WAT      O69973   0.378   7.852   7.164
23244WAT     H169974   0.450   7.819   7.225
23244WAT     H269975   0.403   7.831   7.069
23245WAT      O69976   8.739   4.328   7.523
23245WAT     H169977   8.750   4.229   7.510
23245WAT     H269978   8.641   4.351   7.519
23246WAT      O69979   4.583   4.771   0.121
23246WAT     H169980   4.539   4.845   0.172
23246WAT     H269981   4.623   4.706   0.185
23247WAT      O69982   3.181   0.841   8.041
23247WAT     H169983   3.238   0.922   8.026
23247WAT     H269984   3.240   0.762   8.060
23248WAT      O69985   0.155   9.504   1.201
23248WAT     H169986   0.247   9.511   1.239
23248WAT     H269987   0.131   9.590   1.157
23249WAT      O69988   4.392   1.637   9.215
23249WAT     H169989   4.336   1.706   9.261
23249WAT     H269990   4.388   1.551   9.266
23250WAT      O69991   0.830   7.553   9.511
23250WAT     H169992   0.915   7.529   9.557
23250WAT     H269993   0.783   7.626   9.562
23251WAT      O69994   8.353   8.453   6.145
23251WAT     H169995   8.412   8.494   6.076
23251WAT     H269996   8.282   8.518   6.172
23252WAT      O69997   4.257   8.112   1.514
23252WAT     H169998   4.308   8.193   1.484
23252WAT     H269999   4.190   8.087   1.444
23253WAT      O70000   6.594   7.666   0.032
23253WAT     H170001   6.671   7.730   0.029
23253WAT     H270002   6.552   7.669   0.123
23254WAT      O70003   5.164   8.745   8.568
23254WAT     H170004   5.180   8.650   8.596
23254WAT     H270005   5.227   8.805   8.616
23255WAT      O70006   2.648   2.771   9.656
23255WAT     H170007   2.704   2.853   9.655
23255WAT     H270008   2.601   2.763   9.744
23256WAT      O70009   2.312   6.260   4.031
23256WAT     H170010   2.220   6.283   4.001
23256WAT     H270011   2.348   6.185   3.974
23257WAT      O70012   0.615   1.255   8.901
23257WAT     H170013   0.598   1.164   8.940
23257WAT     H270014   0.545   1.319   8.933
23258WAT      O70015   6.455   7.091   0.843
23258WAT     H170016   6.442   7.151   0.923
23258WAT     H270017   6.404   7.006   0.857
23259WAT      O70018   3.751   6.074   1.657
23259WAT     H170019   3.751   6.012   1.736
23259WAT     H270020   3.664   6.123   1.653
23260WAT      O70021   5.211   6.789   5.461
23260WAT     H170022   5.252   6.735   5.535
23260WAT     H270023   5.283   6.827   5.403
23261WAT      O70024   8.093   7.796   3.945
23261WAT     H170025   8.045   7.866   3.998
23261WAT     H270026   8.148   7.840   3.875
23262WAT      O70027   1.470   1.728   6.205
23262WAT     H170028   1.385   1.777   6.220
23262WAT     H270029   1.496   1.678   6.288
23263WAT      O70030   8.859   1.451   2.106
23263WAT     H170031   8.915   1.530   2.081
23263WAT     H270032   8.886   1.419   2.197
23264WAT      O70033   9.599   1.035   6.447
23264WAT     H170034   9.531   1.077   6.387
23264WAT     H270035   9.636   1.105   6.509
23265WAT      O70036   6.285   4.731   1.539
23265WAT     H170037   6.256   4.655   1.482
23265WAT     H270038   6.285   4.703   1.635
23266WAT      O70039   8.762   3.721   2.014
23266WAT     H170040   8.700   3.781   2.065
23266WAT     H270041   8.828   3.776   1.964
23267WAT      O70042   5.244   8.302   2.797
23267WAT     H170043   5.283   8.341   2.714
23267WAT     H270044   5.176   8.233   2.773
23268WAT      O70045   6.917   9.097   0.479
23268WAT     H170046   6.959   9.041   0.550
23268WAT     H270047   6.912   9.044   0.394
23269WAT      O70048   6.130   5.262   6.458
23269WAT     H170049   6.214   5.299   6.420
23269WAT     H270050   6.053   5.283   6.398
23270WAT      O70051   1.747   2.301   8.201
23270WAT     H170052   1.662   2.264   8.240
23270WAT     H270053   1.779   2.241   8.128
23271WAT      O70054   9.453   2.852   1.613
23271WAT     H170055   9.549   2.859   1.584
23271WAT     H270056   9.397   2.910   1.554
23272WAT      O70057   3.569   5.950   6.200
23272WAT     H170058   3.585   5.858   6.162
23272WAT     H270059   3.647   6.008   6.179
23273WAT      O70060   5.508   4.385   7.034
23273WAT     H170061   5.590   4.341   6.997
23273WAT     H270062   5.494   4.355   7.129
23274WAT      O70063   9.653   3.387   4.092
23274WAT     H170064   9.654   3.469   4.035
23274WAT     H270065   9.688   3.409   4.183
23275WAT      O70066   7.835   9.463   3.329
23275WAT     H170067   7.886   9.525   3.269
23275WAT     H270068   7.737   9.481   3.319
23276WAT      O70069   7.236   4.451   9.497
23276WAT     H170070   7.176   4.531   9.487
23276WAT     H270071   7.284   4.457   9.585
23277WAT      O70072   8.048   0.722   0.019
23277WAT     H170073   7.972   0.742  -0.042
23277WAT     H270074   8.097   0.641  -0.013
23278WAT      O70075   7.604   5.904   2.495
23278WAT     H170076   7.646   5.899   2.405
23278WAT     H270077   7.506   5.887   2.487
23279WAT      O70078   0.879   1.015   0.402
23279WAT     H170079   0.937   0.953   0.456
23279WAT     H270080   0.795   0.967   0.375
23280WAT      O70081   7.792   2.075   1.827
23280WAT     H170082   7.756   2.017   1.754
23280WAT     H270083   7.892   2.066   1.830
23281WAT      O70084   1.051   2.105   7.221
23281WAT     H170085   1.094   2.173   7.281
23281WAT     H270086   1.106   2.022   7.221
23282WAT      O70087   5.255   9.741   5.507
23282WAT     H170088   5.347   9.780   5.507
23282WAT     H270089   5.259   9.645   5.531
23283WAT      O70090   7.664   7.339   0.913
23283WAT     H170091   7.668   7.291   0.826
23283WAT     H270092   7.675   7.274   0.988
23284WAT      O70093   8.064   1.713   6.900
23284WAT     H170094   8.045   1.784   6.832
23284WAT     H270095   8.162   1.708   6.917
23285WAT      O70096   2.095   4.517   0.583
23285WAT     H170097   2.079   4.543   0.487
23285WAT     H270098   2.037   4.573   0.642
23286WAT      O70099   6.538   1.733   0.100
23286WAT     H170100   6.510   1.815   0.049
23286WAT     H270101   6.633   1.743   0.128
23287WAT      O70102   7.171   5.890   3.112
23287WAT     H170103   7.176   5.989   3.100
23287WAT     H270104   7.076   5.863   3.128
23288WAT      O70105   2.174   7.346   4.553
23288WAT     H170106   2.226   7.355   4.468
23288WAT     H270107   2.226   7.384   4.629
23289WAT      O70108   0.502   9.527   8.981
23289WAT     H170109   0.549   9.502   9.066
23289WAT     H270110   0.555   9.494   8.903
23290WAT      O70111   5.084   9.149   3.456
23290WAT     H170112   5.084   9.246   3.478
23290WAT     H270113   5.023   9.101   3.520
23291WAT      O70114   0.890   1.224   5.509
23291WAT     H170115   0.958   1.294   5.489
23291WAT     H270116   0.925   1.134   5.482
23292WAT      O70117   5.210   4.151   0.239
23292WAT     H170118   5.213   4.195   0.328
23292WAT     H270119   5.272   4.073   0.237
23293WAT      O70120   3.211   9.185   8.249
23293WAT     H170121   3.223   9.212   8.345
23293WAT     H270122   3.146   9.247   8.205
23294WAT      O70123   0.242   2.961   3.731
23294WAT     H170124   0.181   3.024   3.780
23294WAT     H270125   0.238   2.871   3.773
23295WAT      O70126   1.948   0.525   5.938
23295WAT     H170127   2.003   0.471   5.875
23295WAT     H270128   1.929   0.615   5.898
23296WAT      O70129   5.627   2.158   0.828
23296WAT     H170130   5.648   2.113   0.915
23296WAT     H270131   5.710   2.200   0.791
23297WAT      O70132   8.950   4.297   5.606
23297WAT     H170133   8.999   4.324   5.689
23297WAT     H270134   8.945   4.375   5.543
23298WAT      O70135   6.700   3.869   0.330
23298WAT     H170136   6.721   3.965   0.316
23298WAT     H270137   6.732   3.840   0.420
23299WAT      O70138   0.075   0.910   5.848
23299WAT     H170139   0.165   0.938   5.814
23299WAT     H270140   0.015   0.990   5.855
23300WAT      O70141   9.135   0.511   9.087
23300WAT     H170142   9.051   0.459   9.077
23300WAT     H270143   9.148   0.570   9.008
23301WAT      O70144   0.265   4.489   2.438
23301WAT     H170145   0.231   4.498   2.531
23301WAT     H270146   0.337   4.420   2.435
23302WAT      O70147   3.173   2.779   1.924
23302WAT     H170148   3.250   2.745   1.870
23302WAT     H270149   3.199   2.782   2.021
23303WAT      O70150   3.593   9.585   4.086
23303WAT     H170151   3.627   9.679   4.094
23303WAT     H270152   3.507   9.586   4.035
23304WAT      O70153   2.175   1.899   7.846
23304WAT     H170154   2.177   1.807   7.884
23304WAT     H270155   2.261   1.946   7.867
23305WAT      O70156   8.208   2.058   9.345
23305WAT     H170157   8.180   2.048   9.249
23305WAT     H270158   8.208   2.154   9.370
23306WAT      O70159   8.791   7.997   0.928
23306WAT     H170160   8.741   8.078   0.897
23306WAT     H270161   8.823   7.945   0.848
23307WAT      O70162   0.088   2.678   3.402
23307WAT     H170163  -0.001   2.719   3.383
23307WAT     H270164   0.088   2.638   3.494
23308WAT      O70165   0.363   2.947   4.911
23308WAT     H170166   0.275   2.993   4.928
23308WAT     H270167   0.347   2.857   4.872
23309WAT      O70168   4.872   9.388   6.002
23309WAT     H170169   4.873   9.325   5.924
23309WAT     H270170   4.871   9.482   5.969
23310WAT      O70171   2.858   1.932   6.502
23310WAT     H170172   2.913   2.006   6.464
23310WAT     H270173   2.826   1.873   6.428
23311WAT      O70174   8.056   6.079   7.646
23311WAT     H170175   7.965   6.038   7.651
23311WAT     H270176   8.088   6.100   7.738
23312WAT      O70177   9.779   6.522   0.964
23312WAT     H170178   9.737   6.436   0.934
23312WAT     H270179   9.851   6.503   1.030
23313WAT      O70180   5.502   0.659   5.765
23313WAT     H170181   5.462   0.693   5.850
23313WAT     H270182   5.449   0.582   5.731
23314WAT      O70183   1.752   3.141   9.773
23314WAT     H170184   1.733   3.061   9.717
23314WAT     H270185   1.844   3.133   9.811
23315WAT      O70186   5.558   6.577   7.046
23315WAT     H170187   5.579   6.485   7.078
23315WAT     H270188   5.498   6.572   6.966
23316WAT      O70189   2.671   7.718   5.200
23316WAT     H170190   2.639   7.645   5.260
23316WAT     H270191   2.674   7.804   5.250
23317WAT      O70192   2.891   9.155   7.488
23317WAT     H170193   2.968   9.185   7.545
23317WAT     H270194   2.806   9.163   7.540
23318WAT      O70195   4.659   4.870   5.131
23318WAT     H170196   4.603   4.787   5.133
23318WAT     H270197   4.743   4.852   5.080
23319WAT      O70198   9.314   4.676   4.149
23319WAT     H170199   9.383   4.742   4.120
23319WAT     H270200   9.308   4.675   4.249
23320WAT      O70201   7.369   3.748   3.722
23320WAT     H170202   7.337   3.822   3.782
23320WAT     H270203   7.299   3.727   3.653
23321WAT      O70204   2.126   2.731   6.381
23321WAT     H170205   2.171   2.818   6.401
23321WAT     H270206   2.121   2.677   6.465
23322WAT      O70207   8.045   0.332   6.706
23322WAT     H170208   8.068   0.342   6.803
23322WAT     H270209   8.129   0.319   6.653
23323WAT      O70210   6.102   5.318   4.017
23323WAT     H170211   6.010   5.349   3.993
23323WAT     H270212   6.169   5.379   3.976
23324WAT      O70213   2.814   7.548   7.707
23324WAT     H170214   2.864   7.467   7.675
23324WAT     H270215   2.722   7.549   7.667
23325WAT      O70216   1.307   2.039   7.992
23325WAT     H170217   1.391   2.074   7.950
23325WAT     H270218   1.228   2.070   7.940
23326WAT      O70219   2.258   6.152   3.143
23326WAT     H170220   2.289   6.241   3.110
23326WAT     H270221   2.245   6.156   3.242
23327WAT      O70222   5.386   7.648   9.476
23327WAT     H170223   5.342   7.680   9.392
23327WAT     H270224   5.339   7.566   9.510
23328WAT      O70225   0.721   3.484   5.048
23328WAT     H170226   0.800   3.513   4.994
23328WAT     H270227   0.747   3.406   5.105
23329WAT      O70228   5.636   1.470   2.485
23329WAT     H170229   5.711   1.456   2.421
23329WAT     H270230   5.579   1.547   2.454
23330WAT      O70231   2.260   9.638   2.771
23330WAT     H170232   2.237   9.721   2.721
23330WAT     H270233   2.183   9.613   2.831
23331WAT      O70234   7.403   4.337   6.931
23331WAT     H170235   7.340   4.267   6.966
23331WAT     H270236   7.357   4.426   6.934
23332WAT      O70237   0.344   4.993   1.556
23332WAT     H170238   0.273   5.060   1.576
23332WAT     H270239   0.420   5.004   1.621
23333WAT      O70240   2.463   6.444   0.163
23333WAT     H170241   2.483   6.539   0.140
23333WAT     H270242   2.547   6.390   0.159
23334WAT      O70243   8.999   1.667   1.997
23334WAT     H170244   9.091   1.677   1.960
23334WAT     H270245   8.976   1.747   2.052
23335WAT      O70246   5.453   1.650   5.581
23335WAT     H170247   5.490   1.578   5.640
23335WAT     H270248   5.417   1.724   5.638
23336WAT      O70249   0.970   6.137   3.381
23336WAT     H170250   0.880   6.147   3.426
23336WAT     H270251   1.024   6.219   3.400
23337WAT      O70252   2.208   0.756   2.993
23337WAT     H170253   2.284   0.814   3.026
23337WAT     H270254   2.213   0.667   3.038
23338WAT      O70255   7.333   8.084   5.499
23338WAT     H170256   7.395   8.024   5.447
23338WAT     H270257   7.384   8.128   5.573
23339WAT      O70258   2.296   2.431   0.823
23339WAT     H170259   2.249   2.346   0.849
23339WAT     H270260   2.394   2.414   0.815
23340WAT      O70261   1.983   1.869   2.680
23340WAT     H170262   2.034   1.826   2.606
23340WAT     H270263   2.048   1.909   2.745
23341WAT      O70264   0.244   3.429   0.238
23341WAT     H170265   0.193   3.358   0.287
23341WAT     H270266   0.266   3.397   0.146
23342WAT      O70267   3.910   6.275   7.958
23342WAT     H170268   3.889   6.187   7.917
23342WAT     H270269   4.004   6.301   7.936
23343WAT      O70270   3.695   9.801   3.000
23343WAT     H170271   3.608   9.817   2.954
23343WAT     H270272   3.678   9.767   3.093
23344WAT      O70273   5.944   1.557   5.216
23344WAT     H170274   5.984   1.648   5.227
23344WAT     H270275   5.946   1.531   5.120
23345WAT      O70276   3.437   4.907   4.949
23345WAT     H170277   3.482   4.910   4.860
23345WAT     H270278   3.481   4.836   5.006
23346WAT      O70279   3.778   0.295   3.107
23346WAT     H170280   3.869   0.326   3.081
23346WAT     H270281   3.744   0.352   3.182
23347WAT      O70282   1.426   3.532   1.370
23347WAT     H170283   1.430   3.503   1.466
23347WAT     H270284   1.332   3.526   1.337
23348WAT      O70285   4.384   5.165   5.728
23348WAT     H170286   4.450   5.093   5.747
23348WAT     H270287   4.293   5.135   5.756
23349WAT      O70288   5.604   1.888   3.936
23349WAT     H170289   5.507   1.898   3.913
23349WAT     H270290   5.623   1.792   3.959
23350WAT      O70291   6.691   7.008   4.478
23350WAT     H170292   6.668   7.069   4.402
23350WAT     H270293   6.616   6.942   4.491
23351WAT      O70294   7.483   6.510   1.956
23351WAT     H170295   7.539   6.435   1.922
23351WAT     H270296   7.402   6.521   1.899
23352WAT      O70297   0.127   1.712   4.364
23352WAT     H170298   0.045   1.685   4.313
23352WAT     H270299   0.157   1.637   4.423
23353WAT      O70300   9.297   6.852   8.709
23353WAT     H170301   9.319   6.949   8.714
23353WAT     H270302   9.214   6.833   8.762
23354WAT      O70303   3.366   5.511   1.026
23354WAT     H170304   3.305   5.590   1.019
23354WAT     H270305   3.311   5.428   1.031
23355WAT      O70306   0.348   0.309   2.919
23355WAT     H170307   0.361   0.210   2.932
23355WAT     H270308   0.253   0.326   2.892
23356WAT      O70309   9.430   1.229   0.488
23356WAT     H170310   9.352   1.270   0.441
23356WAT     H270311   9.482   1.300   0.535
23357WAT      O70312   1.685   4.989   7.699
23357WAT     H170313   1.628   4.999   7.781
23357WAT     H270314   1.703   4.891   7.684
23358WAT      O70315   8.940   9.361   0.570
23358WAT     H170316   9.008   9.360   0.496
23358WAT     H270317   8.968   9.427   0.640
23359WAT      O70318   0.951   1.949   8.105
23359WAT     H170319   0.963   1.851   8.121
23359WAT     H270320   0.960   1.998   8.191
23360WAT      O70321   0.776   7.186   9.652
23360WAT     H170322   0.739   7.264   9.601
23360WAT     H270323   0.778   7.105   9.594
23361WAT      O70324   2.264   5.035   8.409
23361WAT     H170325   2.205   5.071   8.481
23361WAT     H270326   2.223   5.055   8.320
23362WAT      O70327   1.524   2.749   8.301
23362WAT     H170328   1.424   2.751   8.300
23362WAT     H270329   1.559   2.779   8.213
23363WAT      O70330   1.301   6.374   6.415
23363WAT     H170331   1.352   6.347   6.333
23363WAT     H270332   1.348   6.341   6.497
23364WAT      O70333   9.791   4.516   3.715
23364WAT     H170334   9.717   4.480   3.772
23364WAT     H270335   9.878   4.478   3.744
23365WAT      O70336   8.074   6.006   1.658
23365WAT     H170337   8.102   5.989   1.752
23365WAT     H270338   8.034   6.098   1.652
23366WAT      O70339   5.786   3.448   6.718
23366WAT     H170340   5.881   3.476   6.726
23366WAT     H270341   5.737   3.512   6.657
23367WAT      O70342   9.697   5.864   5.015
23367WAT     H170343   9.705   5.780   4.960
23367WAT     H270344   9.639   5.929   4.967
23368WAT      O70345   7.020   4.363   9.166
23368WAT     H170346   7.099   4.406   9.122
23368WAT     H270347   6.966   4.315   9.098
23369WAT      O70348   0.150   0.841   5.548
23369WAT     H170349   0.214   0.862   5.622
23369WAT     H270350   0.157   0.744   5.524
23370WAT      O70351   8.503   3.221   1.953
23370WAT     H170352   8.421   3.243   1.899
23370WAT     H270353   8.477   3.211   2.049
23371WAT      O70354   6.784   3.352   1.695
23371WAT     H170355   6.720   3.382   1.624
23371WAT     H270356   6.867   3.407   1.690
23372WAT      O70357   8.813   0.287   4.899
23372WAT     H170358   8.888   0.303   4.963
23372WAT     H270359   8.735   0.248   4.948
23373WAT      O70360   7.405   5.409   7.511
23373WAT     H170361   7.339   5.341   7.478
23373WAT     H270362   7.497   5.370   7.509
23374WAT      O70363   0.621   4.386   5.667
23374WAT     H170364   0.627   4.481   5.699
23374WAT     H270365   0.606   4.325   5.745
23375WAT      O70366   5.627   1.046   4.764
23375WAT     H170367   5.606   1.046   4.862
23375WAT     H270368   5.576   0.972   4.719
23376WAT      O70369   8.717   1.762   0.995
23376WAT     H170370   8.742   1.859   0.988
23376WAT     H270371   8.644   1.752   1.063
23377WAT      O70372   5.370   7.656   7.499
23377WAT     H170373   5.464   7.622   7.488
23377WAT     H270374   5.310   7.611   7.433
23378WAT      O70375   0.220   3.692   3.259
23378WAT     H170376   0.256   3.735   3.342
23378WAT     H270377   0.286   3.704   3.184
23379WAT      O70378   8.345   3.852   7.557
23379WAT     H170379   8.270   3.881   7.615
23379WAT     H270380   8.428   3.840   7.613
23380WAT      O70381   0.295   1.297   2.787
23380WAT     H170382   0.274   1.273   2.692
23380WAT     H270383   0.210   1.321   2.835
23381WAT      O70384   6.475   1.247   7.546
23381WAT     H170385   6.439   1.173   7.488
23381WAT     H270386   6.557   1.286   7.504
23382WAT      O70387   7.273   3.899   8.155
23382WAT     H170388   7.203   3.958   8.113
23382WAT     H270389   7.284   3.924   8.252
23383WAT      O70390   1.308   5.318   9.605
23383WAT     H170391   1.375   5.255   9.566
23383WAT     H270392   1.240   5.342   9.535
23384WAT      O70393   1.241   3.225   3.308
23384WAT     H170394   1.300   3.270   3.241
23384WAT     H270395   1.269   3.251   3.400
23385WAT      O70396   2.601   5.453   7.281
23385WAT     H170397   2.601   5.547   7.248
23385WAT     H270398   2.580   5.391   7.205
23386WAT      O70399   4.784   5.204   1.568
23386WAT     H170400   4.694   5.215   1.528
23386WAT     H270401   4.781   5.231   1.665
23387WAT      O70402   5.416   8.439   3.780
23387WAT     H170403   5.454   8.531   3.775
23387WAT     H270404   5.480   8.378   3.828
23388WAT      O70405   6.167   8.844   5.316
23388WAT     H170406   6.232   8.904   5.363
23388WAT     H270407   6.205   8.752   5.312
23389WAT      O70408   5.029   4.712   7.457
23389WAT     H170409   4.950   4.743   7.405
23389WAT     H270410   5.027   4.613   7.466
23390WAT      O70411   4.921   9.016   6.550
23390WAT     H170412   4.906   8.927   6.507
23390WAT     H270413   5.012   9.049   6.528
23391WAT      O70414   9.224   6.226   2.282
23391WAT     H170415   9.160   6.174   2.339
23391WAT     H270416   9.231   6.184   2.192
23392WAT      O70417   8.374   2.928   6.385
23392WAT     H170418   8.365   2.856   6.454
23392WAT     H270419   8.306   2.915   6.313
23393WAT      O70420   1.756   9.438   6.748
23393WAT     H170421   1.721   9.472   6.661
23393WAT     H270422   1.680   9.428   6.812
23394WAT      O70423   8.297   3.619   7.101
23394WAT     H170424   8.353   3.647   7.178
23394WAT     H270425   8.350   3.556   7.043
23395WAT      O70426   5.267   9.733   6.989
23395WAT     H170427   5.265   9.650   7.044
23395WAT     H270428   5.224   9.808   7.040
23396WAT      O70429   5.349   1.073   0.685
23396WAT     H170430   5.420   1.123   0.635
23396WAT     H270431   5.298   1.136   0.743
23397WAT      O70432   8.637   3.708   5.356
23397WAT     H170433   8.575   3.629   5.347
23397WAT     H270434   8.727   3.676   5.386
23398WAT      O70435   0.940   4.023   1.137
23398WAT     H170436   1.034   4.015   1.167
23398WAT     H270437   0.918   3.948   1.073
23399WAT      O70438   0.969   9.116   8.635
23399WAT     H170439   0.927   9.105   8.544
23399WAT     H270440   0.977   9.213   8.656
23400WAT      O70441   8.405   9.402   4.223
23400WAT     H170442   8.374   9.404   4.318
23400WAT     H270443   8.358   9.328   4.175
23401WAT      O70444   7.403   6.756   9.560
23401WAT     H170445   7.416   6.683   9.494
23401WAT     H270446   7.330   6.731   9.624
23402WAT      O70447   0.969   0.752   0.823
23402WAT     H170448   0.912   0.678   0.787
23402WAT     H270449   0.911   0.829   0.848
23403WAT      O70450   6.634   5.470   7.885
23403WAT     H170451   6.693   5.513   7.816
23403WAT     H270452   6.577   5.540   7.928
23404WAT      O70453   9.073   5.003   3.965
23404WAT     H170454   9.068   4.916   4.014
23404WAT     H270455   9.110   5.073   4.026
23405WAT      O70456   0.382   9.564   0.242
23405WAT     H170457   0.318   9.574   0.319
23405WAT     H270458   0.451   9.495   0.266
23406WAT      O70459   5.131   2.411   6.221
23406WAT     H170460   5.179   2.373   6.142
23406WAT     H270461   5.054   2.352   6.245
23407WAT      O70462   6.607   8.667   3.835
23407WAT     H170463   6.603   8.746   3.897
23407WAT     H270464   6.682   8.607   3.862
23408WAT      O70465   2.849   4.605   4.823
23408WAT     H170466   2.833   4.612   4.922
23408WAT     H270467   2.810   4.519   4.789
23409WAT      O70468   2.870   3.253   4.324
23409WAT     H170469   2.897   3.309   4.402
23409WAT     H270470   2.939   3.259   4.252
23410WAT      O70471   1.739   7.465   0.581
23410WAT     H170472   1.685   7.549   0.566
23410WAT     H270473   1.703   7.417   0.661
23411WAT      O70474   1.503   6.694   2.239
23411WAT     H170475   1.464   6.728   2.154
23411WAT     H270476   1.598   6.668   2.225
23412WAT      O70477   2.006   1.206   8.797
23412WAT     H170478   1.962   1.203   8.887
23412WAT     H270479   2.035   1.114   8.771
23413WAT      O70480   3.890   5.494   8.227
23413WAT     H170481   3.942   5.416   8.192
23413WAT     H270482   3.938   5.579   8.205
23414WAT      O70483   4.862   4.417   0.811
23414WAT     H170484   4.830   4.343   0.870
23414WAT     H270485   4.853   4.504   0.860
23415WAT      O70486   8.985   3.063   5.617
23415WAT     H170487   8.916   3.130   5.643
23415WAT     H270488   8.954   2.971   5.643
23416WAT      O70489   5.274   3.115   3.580
23416WAT     H170490   5.302   3.112   3.676
23416WAT     H270491   5.177   3.094   3.573
23417WAT      O70492   0.919   9.565   4.379
23417WAT     H170493   0.939   9.663   4.380
23417WAT     H270494   0.958   9.524   4.296
23418WAT      O70495   3.329   0.659   3.586
23418WAT     H170496   3.253   0.710   3.546
23418WAT     H270497   3.382   0.615   3.513
23419WAT      O70498   0.902   3.530   4.101
23419WAT     H170499   0.977   3.577   4.053
23419WAT     H270500   0.863   3.460   4.042
23420WAT      O70501   1.089   2.546   2.405
23420WAT     H170502   1.036   2.535   2.489
23420WAT     H270503   1.176   2.590   2.425
23421WAT      O70504   8.554   5.310   9.102
23421WAT     H170505   8.612   5.355   9.034
23421WAT     H270506   8.487   5.375   9.138
23422WAT      O70507   3.872   0.594   3.158
23422WAT     H170508   3.803   0.609   3.229
23422WAT     H270509   3.902   0.682   3.122
23423WAT      O70510   7.873   6.809   7.045
23423WAT     H170511   7.960   6.825   6.998
23423WAT     H270512   7.797   6.827   6.982
23424WAT      O70513   0.218   7.701   0.932
23424WAT     H170514   0.174   7.713   0.843
23424WAT     H270515   0.315   7.682   0.919
23425WAT      O70516   3.714   6.636   8.672
23425WAT     H170517   3.726   6.720   8.725
23425WAT     H270518   3.628   6.592   8.696
23426WAT      O70519   8.411   9.021   9.877
23426WAT     H170520   8.413   9.104   9.821
23426WAT     H270521   8.342   8.958   9.841
23427WAT      O70522   0.844   6.232   6.081
23427WAT     H170523   0.876   6.301   6.016
23427WAT     H270524   0.844   6.142   6.037
23428WAT      O70525   9.412   0.134   0.693
23428WAT     H170526   9.424   0.055   0.633
23428WAT     H270527   9.394   0.104   0.786
23429WAT      O70528   7.003   6.962   6.841
23429WAT     H170529   7.022   6.868   6.814
23429WAT     H270530   7.067   6.991   6.911
23430WAT      O70531   2.604   5.890   1.425
23430WAT     H170532   2.558   5.876   1.512
23430WAT     H270533   2.536   5.902   1.352
23431WAT      O70534   1.914   6.231   9.638
23431WAT     H170535   1.975   6.164   9.679
23431WAT     H270536   1.963   6.316   9.622
23432WAT      O70537   6.397   7.866   1.937
23432WAT     H170538   6.362   7.805   2.008
23432WAT     H270539   6.468   7.818   1.884
23433WAT      O70540   4.797   5.420   2.813
23433WAT     H170541   4.803   5.520   2.806
23433WAT     H270542   4.819   5.392   2.906
23434WAT      O70543   6.809   7.463   1.406
23434WAT     H170544   6.884   7.398   1.420
23434WAT     H270545   6.775   7.453   1.312
23435WAT      O70546   1.590   4.894   2.526
23435WAT     H170547   1.614   4.939   2.440
23435WAT     H270548   1.668   4.842   2.559
23436WAT      O70549   8.670   6.191   3.863
23436WAT     H170550   8.731   6.261   3.825
23436WAT     H270551   8.698   6.101   3.830
23437WAT      O70552   4.649   2.855   7.830
23437WAT     H170553   4.696   2.793   7.768
23437WAT     H270554   4.573   2.807   7.874
23438WAT      O70555   5.556   5.621   2.099
23438WAT     H170556   5.531   5.612   2.003
23438WAT     H270557   5.649   5.656   2.106
23439WAT      O70558   0.980   5.993   1.008
23439WAT     H170559   1.076   6.020   1.020
23439WAT     H270560   0.933   6.062   0.953
23440WAT      O70561   4.374   4.989   9.792
23440WAT     H170562   4.392   5.048   9.870
23440WAT     H270563   4.361   4.895   9.823
23441WAT      O70564   6.368   5.187   5.546
23441WAT     H170565   6.447   5.227   5.500
23441WAT     H270566   6.291   5.182   5.482
23442WAT      O70567   9.800   8.060   6.514
23442WAT     H170568   9.763   8.040   6.605
23442WAT     H270569   9.843   8.150   6.515
23443WAT      O70570   4.884   2.357   6.389
23443WAT     H170571   4.798   2.407   6.391
23443WAT     H270572   4.955   2.410   6.436
23444WAT      O70573   1.136   3.888   6.192
23444WAT     H170574   1.078   3.836   6.255
23444WAT     H270575   1.116   3.985   6.200
23445WAT      O70576   5.138   8.536   3.904
23445WAT     H170577   5.229   8.548   3.864
23445WAT     H270578   5.147   8.496   3.996
23446WAT      O70579   9.239   4.213   6.887
23446WAT     H170580   9.144   4.208   6.917
23446WAT     H270581   9.274   4.305   6.901
23447WAT      O70582   6.772   2.615   4.248
23447WAT     H170583   6.842   2.654   4.309
23447WAT     H270584   6.736   2.531   4.288
23448WAT      O70585   6.921   4.177   6.417
23448WAT     H170586   6.940   4.228   6.500
23448WAT     H270587   6.902   4.081   6.440
23449WAT      O70588   3.413   4.277   6.091
23449WAT     H170589   3.466   4.336   6.031
23449WAT     H270590   3.474   4.213   6.138
23450WAT      O70591   0.775   8.511   3.795
23450WAT     H170592   0.852   8.571   3.774
23450WAT     H270593   0.806   8.439   3.857
23451WAT      O70594   5.439   9.126   8.832
23451WAT     H170595   5.422   9.033   8.801
23451WAT     H270596   5.525   9.129   8.884
23452WAT      O70597   3.016   4.985   8.994
23452WAT     H170598   3.047   4.947   8.907
23452WAT     H270599   2.977   5.076   8.980
23453WAT      O70600   3.533   2.952   5.284
23453WAT     H170601   3.602   2.963   5.354
23453WAT     H270602   3.505   3.042   5.250
23454WAT      O70603   2.126   7.814   1.103
23454WAT     H170604   2.110   7.897   1.050
23454WAT     H270605   2.217   7.818   1.144
23455WAT      O70606   5.311   4.192   3.832
23455WAT     H170607   5.356   4.112   3.793
23455WAT     H270608   5.367   4.273   3.817
23456WAT      O70609   1.466   1.337   5.606
23456WAT     H170610   1.469   1.272   5.682
23456WAT     H270611   1.426   1.423   5.637
23457WAT      O70612   5.130   8.858   0.391
23457WAT     H170613   5.203   8.894   0.333
23457WAT     H270614   5.074   8.795   0.338
23458WAT      O70615   3.054   2.756   7.150
23458WAT     H170616   3.136   2.699   7.153
23458WAT     H270617   3.022   2.775   7.243
23459WAT      O70618   9.589   3.429   9.488
23459WAT     H170619   9.492   3.402   9.488
23459WAT     H270620   9.606   3.494   9.561
23460WAT      O70621   3.545   0.495   4.041
23460WAT     H170622   3.571   0.427   4.109
23460WAT     H270623   3.626   0.529   3.995
23461WAT      O70624   1.291   2.325   2.500
23461WAT     H170625   1.228   2.401   2.481
23461WAT     H270626   1.371   2.360   2.549
23462WAT      O70627   5.377   7.231   6.108
23462WAT     H170628   5.319   7.161   6.149
23462WAT     H270629   5.431   7.275   6.180
23463WAT      O70630   3.678   3.656   5.649
23463WAT     H170631   3.586   3.654   5.610
23463WAT     H270632   3.741   3.612   5.585
23464WAT      O70633   2.159   8.441   5.364
23464WAT     H170634   2.217   8.400   5.434
23464WAT     H270635   2.067   8.455   5.400
23465WAT      O70636   7.933   8.600   7.356
23465WAT     H170637   8.030   8.618   7.343
23465WAT     H270638   7.882   8.637   7.278
23466WAT      O70639   5.527   8.847   8.487
23466WAT     H170640   5.527   8.946   8.503
23466WAT     H270641   5.607   8.806   8.529
23467WAT      O70642   6.755   0.388   1.406
23467WAT     H170643   6.786   0.301   1.368
23467WAT     H270644   6.834   0.442   1.434
23468WAT      O70645   4.601   2.250   4.948
23468WAT     H170646   4.627   2.224   4.855
23468WAT     H270647   4.520   2.199   4.975
23469WAT      O70648   9.034   1.261   4.001
23469WAT     H170649   9.079   1.236   4.087
23469WAT     H270650   9.077   1.211   3.925
23470WAT      O70651   5.018   6.602   7.328
23470WAT     H170652   4.952   6.546   7.377
23470WAT     H270653   4.986   6.697   7.325
23471WAT      O70654   2.352   6.865   4.457
23471WAT     H170655   2.293   6.893   4.533
23471WAT     H270656   2.444   6.900   4.472
23472WAT      O70657   7.408   3.030   1.618
23472WAT     H170658   7.467   2.959   1.654
23472WAT     H270659   7.453   3.075   1.540
23473WAT      O70660   8.319   0.054   5.828
23473WAT     H170661   8.396   0.018   5.880
23473WAT     H270662   8.263   0.113   5.888
23474WAT      O70663   6.998   9.135   0.088
23474WAT     H170664   6.980   9.077   0.167
23474WAT     H270665   6.999   9.080   0.005
23475WAT      O70666   6.224   9.840   6.601
23475WAT     H170667   6.313   9.829   6.557
23475WAT     H270668   6.231   9.816   6.698
23476WAT      O70669   5.437   9.177   7.367
23476WAT     H170670   5.438   9.252   7.300
23476WAT     H270671   5.377   9.104   7.334
23477WAT      O70672   7.851   5.823   9.071
23477WAT     H170673   7.856   5.900   9.135
23477WAT     H270674   7.763   5.824   9.024
23478WAT      O70675   6.065   3.930   9.019
23478WAT     H170676   5.970   3.920   8.990
23478WAT     H270677   6.098   3.843   9.056
23479WAT      O70678   0.552   1.944   6.165
23479WAT     H170679   0.475   1.991   6.122
23479WAT     H270680   0.547   1.847   6.145
23480WAT      O70681   3.140   7.662   0.788
23480WAT     H170682   3.118   7.730   0.718
23480WAT     H270683   3.238   7.661   0.804
23481WAT      O70684   6.816   8.241   1.222
23481WAT     H170685   6.875   8.181   1.275
23481WAT     H270686   6.850   8.334   1.226
23482WAT      O70687   3.983   5.132   3.706
23482WAT     H170688   3.978   5.089   3.616
23482WAT     H270689   3.891   5.147   3.742
23483WAT      O70690   0.995   9.803   4.098
23483WAT     H170691   0.967   9.886   4.147
23483WAT     H270692   1.062   9.753   4.154
23484WAT      O70693   3.586   5.936   6.984
23484WAT     H170694   3.495   5.923   6.944
23484WAT     H270695   3.607   5.859   7.044
23485WAT      O70696   4.393   0.518   6.910
23485WAT     H170697   4.480   0.500   6.864
23485WAT     H270698   4.317   0.502   6.846
23486WAT      O70699   5.773   0.377   4.893
23486WAT     H170700   5.716   0.410   4.969
23486WAT     H270701   5.851   0.326   4.929
23487WAT      O70702   0.614   7.397   7.179
23487WAT     H170703   0.648   7.488   7.156
23487WAT     H270704   0.567   7.359   7.099
23488WAT      O70705   5.141   4.147   1.323
23488WAT     H170706   5.185   4.098   1.398
23488WAT     H270707   5.209   4.164   1.251
23489WAT      O70708   6.187   8.786   3.654
23489WAT     H170709   6.173   8.708   3.592
23489WAT     H270710   6.231   8.755   3.738
23490WAT      O70711   8.495   2.843   9.681
23490WAT     H170712   8.493   2.803   9.589
23490WAT     H270713   8.418   2.807   9.734
23491WAT      O70714   8.195   8.698   7.761
23491WAT     H170715   8.271   8.637   7.784
23491WAT     H270716   8.108   8.654   7.784
23492WAT      O70717   1.456   7.008   4.698
23492WAT     H170718   1.530   7.064   4.734
23492WAT     H270719   1.442   6.929   4.758
23493WAT      O70720   1.144   7.136   2.259
23493WAT     H170721   1.151   7.112   2.356
23493WAT     H270722   1.125   7.234   2.252
23494WAT      O70723   4.574   2.414   2.311
23494WAT     H170724   4.624   2.375   2.389
23494WAT     H270725   4.567   2.513   2.322
23495WAT      O70726   6.932   8.412   5.306
23495WAT     H170727   6.938   8.313   5.297
23495WAT     H270728   6.836   8.438   5.323
23496WAT      O70729   0.532   0.629   0.974
23496WAT     H170730   0.599   0.555   0.975
23496WAT     H270731   0.536   0.676   0.886
23497WAT      O70732   2.490   9.498   3.460
23497WAT     H170733   2.519   9.569   3.396
23497WAT     H270734   2.523   9.409   3.429
23498WAT      O70735   7.196   3.683   2.533
23498WAT     H170736   7.188   3.648   2.627
23498WAT     H270737   7.146   3.768   2.525
23499WAT      O70738   5.574   3.610   5.196
23499WAT     H170739   5.543   3.589   5.289
23499WAT     H270740   5.545   3.703   5.172
23500WAT      O70741   3.234   8.566   8.355
23500WAT     H170742   3.252   8.534   8.448
23500WAT     H270743   3.320   8.579   8.307
23501WAT      O70744   5.653   8.821   2.195
23501WAT     H170745   5.598   8.740   2.216
23501WAT     H270746   5.659   8.879   2.276
23502WAT      O70747   0.107   4.742   5.221
23502WAT     H170748   0.160   4.678   5.167
23502WAT     H270749   0.137   4.739   5.317
23503WAT      O70750   7.493   1.335   4.486
23503WAT     H170751   7.431   1.414   4.480
23503WAT     H270752   7.439   1.251   4.488
23504WAT      O70753   7.357   7.495   2.941
23504WAT     H170754   7.422   7.569   2.960
23504WAT     H270755   7.348   7.436   3.021
23505WAT      O70756   5.909   1.380   2.081
23505WAT     H170757   5.898   1.447   2.007
23505WAT     H270758   5.987   1.321   2.062
23506WAT      O70759   4.914   0.570   9.759
23506WAT     H170760   4.977   0.602   9.689
23506WAT     H270761   4.831   0.625   9.757
23507WAT      O70762   0.931   6.061   3.767
23507WAT     H170763   0.852   6.025   3.817
23507WAT     H270764   1.000   5.989   3.758
23508WAT      O70765   0.779   8.128   4.911
23508WAT     H170766   0.815   8.063   4.845
23508WAT     H270767   0.721   8.081   4.977
23509WAT      O70768   7.385   3.798   0.311
23509WAT     H170769   7.391   3.822   0.408
23509WAT     H270770   7.289   3.801   0.282
23510WAT      O70771   4.135   8.435   1.736
23510WAT     H170772   4.156   8.527   1.767
23510WAT     H270773   4.218   8.392   1.700
23511WAT      O70774   7.525   1.979   2.988
23511WAT     H170775   7.590   1.938   3.051
23511WAT     H270776   7.433   1.973   3.027
23512WAT      O70777   1.040   4.598   0.502
23512WAT     H170778   1.005   4.569   0.413
23512WAT     H270779   1.008   4.691   0.521
23513WAT      O70780   0.022   7.609   2.416
23513WAT     H170781   0.047   7.659   2.499
23513WAT     H270782  -0.068   7.567   2.428
23514WAT      O70783   2.298   7.474   8.930
23514WAT     H170784   2.288   7.476   9.029
23514WAT     H270785   2.217   7.431   8.889
23515WAT      O70786   3.046   1.333   7.861
23515WAT     H170787   3.033   1.282   7.946
23515WAT     H270788   3.143   1.340   7.840
23516WAT      O70789   1.100   9.501   6.116
23516WAT     H170790   1.154   9.541   6.043
23516WAT     H270791   1.142   9.521   6.204
23517WAT      O70792   5.885   4.408   8.333
23517WAT     H170793   5.920   4.374   8.420
23517WAT     H270794   5.945   4.378   8.259
23518WAT      O70795   3.754   2.875   5.465
23518WAT     H170796   3.820   2.950   5.459
23518WAT     H270797   3.709   2.879   5.554
23519WAT      O70798   7.159   0.434   6.386
23519WAT     H170799   7.118   0.521   6.415
23519WAT     H270800   7.221   0.451   6.309
23520WAT      O70801   6.356   7.413   8.150
23520WAT     H170802   6.431   7.378   8.093
23520WAT     H270803   6.269   7.398   8.104
23521WAT      O70804   0.215   0.918   2.923
23521WAT     H170805   0.242   0.890   3.015
23521WAT     H270806   0.116   0.931   2.919
23522WAT      O70807   6.290   1.623   3.367
23522WAT     H170808   6.262   1.562   3.442
23522WAT     H270809   6.286   1.718   3.399
23523WAT      O70810   4.817   7.173   7.469
23523WAT     H170811   4.881   7.178   7.546
23523WAT     H270812   4.781   7.265   7.450
23524WAT      O70813   4.020   2.059   3.472
23524WAT     H170814   4.049   2.059   3.568
23524WAT     H270815   4.079   2.121   3.420
23525WAT      O70816   2.556   1.451   0.487
23525WAT     H170817   2.540   1.366   0.538
23525WAT     H270818   2.489   1.459   0.413
23526WAT      O70819   3.314   1.986   0.188
23526WAT     H170820   3.215   1.998   0.178
23526WAT     H270821   3.336   1.888   0.184
23527WAT      O70822   0.702   7.711   1.652
23527WAT     H170823   0.742   7.736   1.564
23527WAT     H270824   0.703   7.790   1.713
23528WAT      O70825   6.829   8.977   1.777
23528WAT     H170826   6.740   8.969   1.731
23528WAT     H270827   6.831   8.918   1.857
23529WAT      O70828   6.744   2.416   4.481
23529WAT     H170829   6.809   2.350   4.445
23529WAT     H270830   6.653   2.374   4.486
23530WAT      O70831   0.397   3.605   9.455
23530WAT     H170832   0.305   3.638   9.477
23530WAT     H270833   0.390   3.520   9.402
23531WAT      O70834   7.346   3.853   5.053
23531WAT     H170835   7.345   3.939   5.104
23531WAT     H270836   7.336   3.871   4.956
23532WAT      O70837   2.437   0.324   0.593
23532WAT     H170838   2.483   0.376   0.665
23532WAT     H270839   2.420   0.384   0.515
23533WAT      O70840   7.268   4.990   5.434
23533WAT     H170841   7.351   5.036   5.402
23533WAT     H270842   7.205   4.978   5.358
23534WAT      O70843   3.356   4.065   9.552
23534WAT     H170844   3.333   4.043   9.647
23534WAT     H270845   3.419   4.143   9.551
23535WAT      O70846   8.315   3.632   6.003
23535WAT     H170847   8.300   3.710   5.942
23535WAT     H270848   8.285   3.548   5.957
23536WAT      O70849   2.213   5.408   3.240
23536WAT     H170850   2.273   5.399   3.319
23536WAT     H270851   2.128   5.358   3.257
23537WAT      O70852   4.905   9.779   3.323
23537WAT     H170853   4.812   9.791   3.358
23537WAT     H270854   4.902   9.736   3.233
23538WAT      O70855   0.343   3.407   2.125
23538WAT     H170856   0.359   3.316   2.165
23538WAT     H270857   0.272   3.400   2.055
23539WAT      O70858   0.552   0.797   2.597
23539WAT     H170859   0.576   0.864   2.667
23539WAT     H270860   0.461   0.760   2.616
23540WAT      O70861   7.936   3.401   1.623
23540WAT     H170862   7.923   3.367   1.530
23540WAT     H270863   8.016   3.462   1.626
23541WAT      O70864   6.624   8.796   1.278
23541WAT     H170865   6.593   8.853   1.202
23541WAT     H270866   6.581   8.706   1.272
23542WAT      O70867   0.101   9.506   4.525
23542WAT     H170868   0.039   9.554   4.587
23542WAT     H270869   0.141   9.428   4.571
23543WAT      O70870   7.899   4.285   0.582
23543WAT     H170871   7.963   4.245   0.647
23543WAT     H270872   7.807   4.286   0.622
23544WAT      O70873   2.905   6.546   7.508
23544WAT     H170874   2.899   6.562   7.410
23544WAT     H270875   2.865   6.457   7.530
23545WAT      O70876   2.367   9.477   7.853
23545WAT     H170877   2.279   9.453   7.894
23545WAT     H270878   2.394   9.569   7.882
23546WAT      O70879   3.513   8.907   6.242
23546WAT     H170880   3.494   8.864   6.330
23546WAT     H270881   3.461   8.991   6.234
23547WAT      O70882   0.754   1.559   4.861
23547WAT     H170883   0.746   1.528   4.766
23547WAT     H270884   0.671   1.607   4.888
23548WAT      O70885   6.980   1.155   8.047
23548WAT     H170886   6.906   1.121   8.105
23548WAT     H270887   7.040   1.079   8.022
23549WAT      O70888   7.416   3.489   7.476
23549WAT     H170889   7.490   3.492   7.544
23549WAT     H270890   7.426   3.407   7.420
23550WAT      O70891   7.566   7.950   4.391
23550WAT     H170892   7.488   7.915   4.339
23550WAT     H270893   7.571   8.049   4.381
23551WAT      O70894   3.982   5.589   3.822
23551WAT     H170895   4.018   5.681   3.839
23551WAT     H270896   4.026   5.550   3.741
23552WAT      O70897   9.087   5.852   1.937
23552WAT     H170898   9.130   5.779   1.990
23552WAT     H270899   8.994   5.868   1.971
23553WAT      O70900   8.718   3.064   1.910
23553WAT     H170901   8.642   3.129   1.914
23553WAT     H270902   8.769   3.066   1.995
23554WAT      O70903   3.311   0.749   6.277
23554WAT     H170904   3.336   0.806   6.356
23554WAT     H270905   3.394   0.724   6.227
23555WAT      O70906   9.126   6.545   3.479
23555WAT     H170907   9.031   6.545   3.446
23555WAT     H270908   9.129   6.583   3.571
23556WAT      O70909   7.784   5.523   4.756
23556WAT     H170910   7.806   5.507   4.660
23556WAT     H270911   7.736   5.444   4.793
23557WAT      O70912   2.774   6.159   7.922
23557WAT     H170913   2.719   6.102   7.984
23557WAT     H270914   2.871   6.148   7.945
23558WAT      O70915   4.385   5.112   9.561
23558WAT     H170916   4.480   5.117   9.530
23558WAT     H270917   4.379   5.059   9.646
23559WAT      O70918   9.126   8.158   2.008
23559WAT     H170919   9.103   8.201   1.920
23559WAT     H270920   9.212   8.109   2.000
23560WAT      O70921   5.360   6.940   1.839
23560WAT     H170922   5.397   7.021   1.884
23560WAT     H270923   5.288   6.969   1.774
23561WAT      O70924   5.457   8.922   9.768
23561WAT     H170925   5.375   8.897   9.717
23561WAT     H270926   5.537   8.876   9.727
23562WAT      O70927   6.522   6.627   2.233
23562WAT     H170928   6.472   6.697   2.285
23562WAT     H270929   6.464   6.592   2.160
23563WAT      O70930   1.607   8.926   6.679
23563WAT     H170931   1.695   8.971   6.665
23563WAT     H270932   1.572   8.894   6.591
23564WAT      O70933   1.546   0.749   6.474
23564WAT     H170934   1.570   0.777   6.567
23564WAT     H270935   1.477   0.811   6.437
23565WAT      O70936   4.701   8.904   1.717
23565WAT     H170937   4.673   8.985   1.666
23565WAT     H270938   4.748   8.841   1.656
23566WAT      O70939   6.279   3.633   2.062
23566WAT     H170940   6.182   3.614   2.045
23566WAT     H270941   6.329   3.629   1.975
23567WAT      O70942   1.752   6.472   0.375
23567WAT     H170943   1.768   6.526   0.293
23567WAT     H270944   1.760   6.375   0.353
23568WAT      O70945   2.947   6.851   2.310
23568WAT     H170946   2.890   6.787   2.259
23568WAT     H270947   2.896   6.936   2.326
23569WAT      O70948   4.557   1.842   8.384
23569WAT     H170949   4.601   1.878   8.466
23569WAT     H270950   4.624   1.791   8.330
23570WAT      O70951   4.372   6.789   9.495
23570WAT     H170952   4.394   6.835   9.409
23570WAT     H270953   4.389   6.852   9.571
23571WAT      O70954   0.294   0.828   3.175
23571WAT     H170955   0.271   0.885   3.254
23571WAT     H270956   0.288   0.732   3.201
23572WAT      O70957   4.208   0.411   3.630
23572WAT     H170958   4.135   0.367   3.577
23572WAT     H270959   4.170   0.451   3.713
23573WAT      O70960   4.321   1.054   7.910
23573WAT     H170961   4.279   0.972   7.949
23573WAT     H270962   4.274   1.135   7.946
23574WAT      O70963   3.853   1.134   7.587
23574WAT     H170964   3.885   1.050   7.631
23574WAT     H270965   3.868   1.128   7.489
23575WAT      O70966   4.287   7.874   6.142
23575WAT     H170967   4.219   7.877   6.069
23575WAT     H270968   4.243   7.893   6.230
23576WAT      O70969   4.057   6.930   0.699
23576WAT     H170970   4.006   6.877   0.767
23576WAT     H270971   4.087   7.016   0.740
23577WAT      O70972   0.391   8.324   1.253
23577WAT     H170973   0.328   8.253   1.223
23577WAT     H270974   0.466   8.284   1.304
23578WAT      O70975   6.460   9.101   7.606
23578WAT     H170976   6.499   9.044   7.678
23578WAT     H270977   6.365   9.074   7.590
23579WAT      O70978   0.266   3.587   2.839
23579WAT     H170979   0.267   3.491   2.868
23579WAT     H270980   0.298   3.644   2.915
23580WAT      O70981   8.406   7.738   9.739
23580WAT     H170982   8.477   7.771   9.802
23580WAT     H270983   8.341   7.812   9.721
23581WAT      O70984   6.504   7.090   1.639
23581WAT     H170985   6.539   7.171   1.594
23581WAT     H270986   6.408   7.103   1.664
23582WAT      O70987   1.749   4.806   0.615
23582WAT     H170988   1.729   4.900   0.643
23582WAT     H270989   1.705   4.788   0.527
23583WAT      O70990   4.073   5.612   1.431
23583WAT     H170991   4.140   5.547   1.395
23583WAT     H270992   4.026   5.572   1.509
23584WAT      O70993   3.274   9.318   7.441
23584WAT     H170994   3.371   9.342   7.436
23584WAT     H270995   3.226   9.360   7.364
23585WAT      O70996   3.397   5.585   9.143
23585WAT     H170997   3.323   5.630   9.093
23585WAT     H270998   3.429   5.644   9.217
23586WAT      O70999   3.813   6.184   9.631
23586WAT     H171000   3.725   6.139   9.618
23586WAT     H271001   3.867   6.177   9.547
23587WAT      O71002   4.360   1.333   2.888
23587WAT     H171003   4.299   1.405   2.854
23587WAT     H271004   4.307   1.250   2.906
23588WAT      O71005   7.442   4.467   7.406
23588WAT     H171006   7.376   4.401   7.443
23588WAT     H271007   7.402   4.558   7.405
23589WAT      O71008   8.643   2.038   6.714
23589WAT     H171009   8.620   1.998   6.802
23589WAT     H271010   8.559   2.065   6.667
23590WAT      O71011   3.541   5.290   9.241
23590WAT     H171012   3.509   5.371   9.291
23590WAT     H271013   3.478   5.269   9.166
23591WAT      O71014   4.887   1.613   5.074
23591WAT     H171015   4.858   1.708   5.074
23591WAT     H271016   4.808   1.553   5.079
23592WAT      O71017   0.898   1.423   2.821
23592WAT     H171018   0.873   1.336   2.864
23592WAT     H271019   0.842   1.496   2.860
23593WAT      O71020   0.672   5.557   2.605
23593WAT     H171021   0.682   5.655   2.594
23593WAT     H271022   0.758   5.519   2.640
23594WAT      O71023   6.026   1.996   7.851
23594WAT     H171024   6.017   1.900   7.875
23594WAT     H271025   6.123   2.018   7.840
23595WAT      O71026   5.296   8.169   4.208
23595WAT     H171027   5.234   8.247   4.194
23595WAT     H271028   5.390   8.202   4.211
23596WAT      O71029   3.075   7.005   7.899
23596WAT     H171030   3.081   7.019   7.800
23596WAT     H271031   2.996   7.054   7.935
23597WAT      O71032   6.491   3.361   8.950
23597WAT     H171033   6.392   3.373   8.944
23597WAT     H271034   6.537   3.444   8.919
23598WAT      O71035   9.180   3.080   0.330
23598WAT     H171036   9.085   3.106   0.315
23598WAT     H271037   9.222   3.144   0.396
23599WAT      O71038   1.014   1.921   4.222
23599WAT     H171039   0.994   1.862   4.144
23599WAT     H271040   0.941   1.912   4.290
23600WAT      O71041   5.820   1.973   9.394
23600WAT     H171042   5.725   1.961   9.364
23600WAT     H271043   5.827   2.057   9.448
23601WAT      O71044   6.011   6.121   1.006
23601WAT     H171045   5.999   6.211   0.964
23601WAT     H271046   5.922   6.075   1.011
23602WAT      O71047   2.161   0.150   9.257
23602WAT     H171048   2.135   0.235   9.211
23602WAT     H271049   2.210   0.091   9.193
23603WAT      O71050   9.411   9.384   4.850
23603WAT     H171051   9.328   9.348   4.807
23603WAT     H271052   9.469   9.426   4.780
23604WAT      O71053   0.194   1.395   4.927
23604WAT     H171054   0.273   1.380   4.988
23604WAT     H271055   0.193   1.323   4.857
23605WAT      O71056   4.683   2.742   1.223
23605WAT     H171057   4.779   2.770   1.219
23605WAT     H271058   4.635   2.777   1.143
23606WAT      O71059   6.560   1.306   0.009
23606WAT     H171060   6.490   1.244   0.044
23606WAT     H271061   6.648   1.259   0.008
23607WAT      O71062   9.285   4.251   1.034
23607WAT     H171063   9.201   4.304   1.051
23607WAT     H271064   9.261   4.160   1.001
23608WAT      O71065   0.191   2.940   1.465
23608WAT     H171066   0.235   2.956   1.554
23608WAT     H271067   0.142   2.853   1.467
23609WAT      O71068   6.693   9.526   7.265
23609WAT     H171069   6.622   9.507   7.334
23609WAT     H271070   6.661   9.497   7.175
23610WAT      O71071   8.228   8.783   5.001
23610WAT     H171072   8.192   8.691   5.018
23610WAT     H271073   8.298   8.779   4.930
23611WAT      O71074   3.977   1.887   6.878
23611WAT     H171075   4.029   1.969   6.851
23611WAT     H271076   3.882   1.898   6.848
23612WAT      O71077   1.662   1.789   7.371
23612WAT     H171078   1.633   1.868   7.425
23612WAT     H271079   1.752   1.758   7.401
23613WAT      O71080   1.996   9.309   6.129
23613WAT     H171081   1.946   9.258   6.059
23613WAT     H271082   1.933   9.334   6.203
23614WAT      O71083   8.399   6.208   7.252
23614WAT     H171084   8.424   6.171   7.162
23614WAT     H271085   8.306   6.180   7.275
23615WAT      O71086   6.825   0.094   1.322
23615WAT     H171087   6.860   0.042   1.243
23615WAT     H271088   6.870   0.061   1.405
23616WAT      O71089   1.386   2.923   2.603
23616WAT     H171090   1.383   2.966   2.513
23616WAT     H271091   1.333   2.978   2.668
23617WAT      O71092   1.625   1.094   2.082
23617WAT     H171093   1.547   1.047   2.122
23617WAT     H271094   1.633   1.068   1.985
23618WAT      O71095   8.345   0.206   0.183
23618WAT     H171096   8.353   0.241   0.277
23618WAT     H271097   8.411   0.132   0.170
23619WAT      O71098   7.591   6.835   7.830
23619WAT     H171099   7.535   6.916   7.812
23619WAT     H271100   7.573   6.802   7.923
23620WAT      O71101   5.774   6.401   2.639
23620WAT     H171102   5.801   6.465   2.711
23620WAT     H271103   5.855   6.354   2.605
23621WAT      O71104   2.096   5.161   7.758
23621WAT     H171105   2.188   5.144   7.792
23621WAT     H271106   2.031   5.150   7.834
23622WAT      O71107   7.642   6.015   0.924
23622WAT     H171108   7.581   6.031   0.847
23622WAT     H271109   7.735   5.997   0.890
23623WAT      O71110   2.018   6.458   7.646
23623WAT     H171111   1.964   6.511   7.581
23623WAT     H271112   2.106   6.433   7.605
23624WAT      O71113   5.833   8.104   4.716
23624WAT     H171114   5.795   8.015   4.741
23624WAT     H271115   5.915   8.122   4.770
23625WAT      O71116   0.904   4.620   3.340
23625WAT     H171117   0.911   4.662   3.250
23625WAT     H271118   0.834   4.668   3.394
23626WAT      O71119   4.388   4.924   1.998
23626WAT     H171120   4.367   5.010   2.044
23626WAT     H271121   4.349   4.848   2.050
23627WAT      O71122   2.279   4.010   3.248
23627WAT     H171123   2.344   4.051   3.312
23627WAT     H271124   2.189   4.051   3.263
23628WAT      O71125   2.250   1.541   4.824
23628WAT     H171126   2.257   1.444   4.848
23628WAT     H271127   2.179   1.552   4.754
23629WAT      O71128   9.088   0.735   2.939
23629WAT     H171129   8.995   0.754   2.971
23629WAT     H271130   9.146   0.714   3.017
23630WAT      O71131   3.799   7.755   9.531
23630WAT     H171132   3.799   7.743   9.432
23630WAT     H271133   3.764   7.846   9.554
23631WAT      O71134   3.982   5.832   3.106
23631WAT     H171135   4.011   5.921   3.140
23631WAT     H271136   3.931   5.784   3.178
23632WAT      O71137   6.661   8.492   5.352
23632WAT     H171138   6.700   8.467   5.441
23632WAT     H271139   6.648   8.591   5.349
23633WAT      O71140   3.240   9.045   0.166
23633WAT     H171141   3.201   9.084   0.083
23633WAT     H271142   3.325   8.997   0.143
23634WAT      O71143   4.809   4.138   0.450
23634WAT     H171144   4.774   4.075   0.520
23634WAT     H271145   4.869   4.088   0.388
23635WAT      O71146   2.230   4.003   9.762
23635WAT     H171147   2.277   3.921   9.794
23635WAT     H271148   2.199   4.057   9.840
23636WAT      O71149   4.328   9.632   6.094
23636WAT     H171150   4.379   9.658   6.176
23636WAT     H271151   4.277   9.710   6.059
23637WAT      O71152   1.344   8.675   7.037
23637WAT     H171153   1.305   8.628   7.116
23637WAT     H271154   1.440   8.649   7.026
23638WAT      O71155   3.777   7.417   8.596
23638WAT     H171156   3.686   7.442   8.564
23638WAT     H271157   3.846   7.470   8.547
23639WAT      O71158   0.783   0.921   3.732
23639WAT     H171159   0.865   0.919   3.789
23639WAT     H271160   0.746   1.014   3.729
23640WAT      O71161   9.021   0.351   5.122
23640WAT     H171162   9.067   0.294   5.054
23640WAT     H271163   9.086   0.377   5.193
23641WAT      O71164   8.393   7.445   8.210
23641WAT     H171165   8.347   7.524   8.169
23641WAT     H271166   8.487   7.470   8.232
23642WAT      O71167   7.912   2.535   1.512
23642WAT     H171168   7.858   2.526   1.596
23642WAT     H271169   7.877   2.612   1.459
23643WAT      O71170   6.828   6.032   6.151
23643WAT     H171171   6.849   6.116   6.201
23643WAT     H271172   6.903   6.012   6.088
23644WAT      O71173   7.980   1.297   4.765
23644WAT     H171174   7.885   1.308   4.735
23644WAT     H271175   8.036   1.266   4.688
23645WAT      O71176   3.433   3.279   1.426
23645WAT     H171177   3.376   3.258   1.346
23645WAT     H271178   3.414   3.373   1.456
23646WAT      O71179   7.164   8.414   4.932
23646WAT     H171180   7.254   8.400   4.892
23646WAT     H271181   7.174   8.457   5.022
23647WAT      O71182   8.902   0.408   7.113
23647WAT     H171183   8.914   0.309   7.127
23647WAT     H271184   8.812   0.425   7.073
23648WAT      O71185   9.747   4.818   6.247
23648WAT     H171186   9.799   4.875   6.310
23648WAT     H271187   9.803   4.798   6.166
23649WAT      O71188   3.969   2.077   1.723
23649WAT     H171189   3.964   1.985   1.685
23649WAT     H271190   3.878   2.107   1.752
23650WAT      O71191   3.592   0.873   1.633
23650WAT     H171192   3.575   0.815   1.712
23650WAT     H271193   3.679   0.921   1.645
23651WAT      O71194   1.702   4.080   7.481
23651WAT     H171195   1.680   4.005   7.543
23651WAT     H271196   1.801   4.085   7.468
23652WAT      O71197   5.128   3.575   4.517
23652WAT     H171198   5.125   3.650   4.582
23652WAT     H271199   5.168   3.494   4.561
23653WAT      O71200   0.804   4.188   9.665
23653WAT     H171201   0.894   4.157   9.634
23653WAT     H271202   0.745   4.108   9.679
23654WAT      O71203   3.845   7.837   4.390
23654WAT     H171204   3.793   7.768   4.441
23654WAT     H271205   3.796   7.924   4.393
23655WAT      O71206   2.767   3.694   2.173
23655WAT     H171207   2.756   3.773   2.233
23655WAT     H271208   2.747   3.610   2.223
23656WAT      O71209   8.010   0.396   8.962
23656WAT     H171210   7.914   0.370   8.950
23656WAT     H271211   8.047   0.426   8.874
23657WAT      O71212   9.284   2.794   4.734
23657WAT     H171213   9.377   2.769   4.762
23657WAT     H271214   9.227   2.712   4.734
23658WAT      O71215   5.520   1.746   0.921
23658WAT     H171216   5.594   1.803   0.957
23658WAT     H271217   5.556   1.684   0.851
23659WAT      O71218   2.489   3.780   0.216
23659WAT     H171219   2.399   3.792   0.258
23659WAT     H271220   2.527   3.691   0.243
23660WAT      O71221   6.268   3.531   7.631
23660WAT     H171222   6.222   3.471   7.696
23660WAT     H271223   6.210   3.545   7.551
23661WAT      O71224   7.871   3.678   6.993
23661WAT     H171225   7.940   3.647   7.058
23661WAT     H271226   7.916   3.716   6.912
23662WAT      O71227   5.054   0.953   3.145
23662WAT     H171228   5.137   0.916   3.103
23662WAT     H271229   5.078   1.027   3.207
23663WAT      O71230   9.427   1.258   8.879
23663WAT     H171231   9.468   1.220   8.962
23663WAT     H271232   9.486   1.331   8.844
23664WAT      O71233   2.126   3.595   1.500
23664WAT     H171234   2.063   3.672   1.513
23664WAT     H271235   2.098   3.543   1.418
23665WAT      O71236   9.018   4.804   5.013
23665WAT     H171237   8.931   4.852   5.019
23665WAT     H271238   9.013   4.719   5.065
23666WAT      O71239   3.545   0.580   2.913
23666WAT     H171240   3.501   0.495   2.887
23666WAT     H271241   3.591   0.568   3.001
23667WAT      O71242   2.077   2.205   0.035
23667WAT     H171243   2.042   2.257  -0.043
23667WAT     H271244   2.127   2.266   0.096
23668WAT      O71245   7.500   8.320   3.921
23668WAT     H171246   7.466   8.252   3.986
23668WAT     H271247   7.550   8.273   3.848
23669WAT      O71248   3.502   2.080   9.614
23669WAT     H171249   3.470   2.049   9.525
23669WAT     H271250   3.434   2.141   9.655
23670WAT      O71251   1.013   6.808   0.310
23670WAT     H171252   1.098   6.827   0.262
23670WAT     H271253   1.029   6.812   0.409
23671WAT      O71254   0.491   0.006   8.709
23671WAT     H171255   0.526   0.019   8.617
23671WAT     H271256   0.564   0.024   8.776
23672WAT      O71257   2.508   4.347   8.027
23672WAT     H171258   2.480   4.383   7.937
23672WAT     H271259   2.597   4.385   8.052
23673WAT      O71260   8.531   8.254   4.122
23673WAT     H171261   8.487   8.185   4.179
23673WAT     H271262   8.519   8.344   4.163
23674WAT      O71263   2.863   7.176   6.924
23674WAT     H171264   2.944   7.120   6.941
23674WAT     H271265   2.890   7.272   6.919
23675WAT      O71266   6.219   3.280   3.044
23675WAT     H171267   6.275   3.198   3.041
23675WAT     H271268   6.168   3.283   3.131
23676WAT      O71269   5.353   0.537   8.796
23676WAT     H171270   5.436   0.557   8.744
23676WAT     H271271   5.378   0.515   8.891
23677WAT      O71272   5.935   3.629   1.939
23677WAT     H171273   5.887   3.705   1.982
23677WAT     H271274   5.946   3.647   1.841
23678WAT      O71275   4.716   8.309   4.538
23678WAT     H171276   4.682   8.358   4.618
23678WAT     H271277   4.698   8.363   4.456
23679WAT      O71278   5.844   5.386   3.967
23679WAT     H171279   5.780   5.463   3.969
23679WAT     H271280   5.817   5.322   3.896
23680WAT      O71281   9.539   6.040   0.900
23680WAT     H171282   9.457   6.094   0.919
23680WAT     H271283   9.518   5.971   0.831
23681WAT      O71284   1.052   3.975   8.893
23681WAT     H171285   0.992   4.000   8.969
23681WAT     H271286   0.998   3.932   8.821
23682WAT      O71287   1.204   5.891   9.363
23682WAT     H171288   1.137   5.892   9.436
23682WAT     H271289   1.254   5.805   9.364
23683WAT      O71290   5.164   8.507   5.297
23683WAT     H171291   5.068   8.536   5.299
23683WAT     H271292   5.181   8.450   5.216
23684WAT      O71293   4.752   8.980   4.785
23684WAT     H171294   4.791   8.990   4.876
23684WAT     H271295   4.799   8.906   4.736
23685WAT      O71296   8.712   0.619   2.412
23685WAT     H171297   8.781   0.611   2.340
23685WAT     H271298   8.658   0.702   2.398
23686WAT      O71299   5.756   7.672   6.244
23686WAT     H171300   5.707   7.631   6.321
23686WAT     H271301   5.754   7.772   6.252
23687WAT      O71302   4.672   1.151   2.881
23687WAT     H171303   4.714   1.061   2.889
23687WAT     H271304   4.735   1.221   2.912
23688WAT      O71305   5.636   4.280   4.701
23688WAT     H171306   5.566   4.340   4.665
23688WAT     H271307   5.678   4.228   4.626
23689WAT      O71308   1.406   7.286   1.240
23689WAT     H171309   1.493   7.261   1.284
23689WAT     H271310   1.362   7.358   1.293
23690WAT      O71311   7.141   7.955   2.245
23690WAT     H171312   7.063   7.965   2.183
23690WAT     H271313   7.121   8.003   2.330
23691WAT      O71314   1.720   4.975   2.295
23691WAT     H171315   1.710   4.957   2.197
23691WAT     H271316   1.816   4.968   2.322
23692WAT      O71317   6.458   4.825   0.535
23692WAT     H171318   6.404   4.746   0.508
23692WAT     H271319   6.464   4.829   0.635
23693WAT      O71320   2.061   9.449   3.928
23693WAT     H171321   2.061   9.352   3.950
23693WAT     H271322   2.151   9.475   3.892
23694WAT      O71323   8.923   9.635   7.170
23694WAT     H171324   8.984   9.678   7.104
23694WAT     H271325   8.971   9.624   7.257
23695WAT      O71326   2.851   1.893   3.269
23695WAT     H171327   2.828   1.868   3.175
23695WAT     H271328   2.782   1.855   3.331
23696WAT      O71329   8.440   2.530   1.231
23696WAT     H171330   8.488   2.551   1.316
23696WAT     H271331   8.364   2.468   1.250
23697WAT      O71332   4.637   7.774   5.740
23697WAT     H171333   4.593   7.691   5.706
23697WAT     H271334   4.723   7.788   5.692
23698WAT      O71335   7.898   3.685   1.514
23698WAT     H171336   7.967   3.639   1.570
23698WAT     H271337   7.933   3.699   1.422
23699WAT      O71338   8.022   5.706   6.712
23699WAT     H171339   8.013   5.680   6.808
23699WAT     H271340   7.979   5.636   6.655
23700WAT      O71341   5.225   9.650   9.493
23700WAT     H171342   5.156   9.619   9.427
23700WAT     H271343   5.186   9.647   9.585
23701WAT      O71344   3.248   3.785   1.908
23701WAT     H171345   3.223   3.821   1.818
23701WAT     H271346   3.171   3.734   1.945
23702WAT      O71347   7.095   1.724   1.990
23702WAT     H171348   7.094   1.628   1.963
23702WAT     H271349   7.056   1.780   1.917
23703WAT      O71350   5.460   3.458   2.464
23703WAT     H171351   5.560   3.463   2.468
23703WAT     H271352   5.431   3.363   2.465
23704WAT      O71353   7.452   1.867   4.364
23704WAT     H171354   7.422   1.814   4.443
23704WAT     H271355   7.419   1.824   4.280
23705WAT      O71356   2.075   2.618   5.414
23705WAT     H171357   2.118   2.576   5.494
23705WAT     H271358   2.026   2.548   5.362
23706WAT      O71359   4.065   4.527   5.083
23706WAT     H171360   4.105   4.457   5.143
23706WAT     H271361   4.133   4.598   5.064
23707WAT      O71362   2.093   4.198   2.532
23707WAT     H171363   2.069   4.166   2.623
23707WAT     H271364   2.126   4.122   2.477
23708WAT      O71365   3.509   1.449   8.481
23708WAT     H171366   3.426   1.447   8.425
23708WAT     H271367   3.534   1.543   8.501
23709WAT      O71368   2.890   0.784   9.023
23709WAT     H171369   2.921   0.804   8.930
23709WAT     H271370   2.941   0.841   9.087
23710WAT      O71371   3.031   3.764   6.749
23710WAT     H171372   2.988   3.845   6.709
23710WAT     H271373   2.971   3.725   6.818
23711WAT      O71374   6.795   4.675   8.924
23711WAT     H171375   6.784   4.753   8.862
23711WAT     H271376   6.790   4.706   9.019
23712WAT      O71377   6.302   8.161   0.961
23712WAT     H171378   6.371   8.090   0.947
23712WAT     H271379   6.220   8.120   1.001
23713WAT      O71380   4.295   7.892   5.211
23713WAT     H171381   4.201   7.856   5.216
23713WAT     H271382   4.301   7.961   5.139
23714WAT      O71383   1.975   0.857   9.432
23714WAT     H171384   1.984   0.806   9.346
23714WAT     H271385   2.053   0.835   9.491
23715WAT      O71386   8.111   9.544   4.120
23715WAT     H171387   8.060   9.524   4.037
23715WAT     H271388   8.086   9.478   4.191
23716WAT      O71389   2.391   0.266   7.605
23716WAT     H171390   2.482   0.257   7.644
23716WAT     H271391   2.330   0.198   7.646
23717WAT      O71392   3.667   9.260   2.834
23717WAT     H171393   3.573   9.228   2.848
23717WAT     H271394   3.685   9.268   2.736
23718WAT      O71395   2.779   4.339   5.425
23718WAT     H171396   2.680   4.339   5.415
23718WAT     H271397   2.804   4.373   5.515
23719WAT      O71398   4.776   0.346   9.299
23719WAT     H171399   4.703   0.292   9.258
23719WAT     H271400   4.740   0.399   9.375
23720WAT      O71401   8.817   4.064   7.503
23720WAT     H171402   8.859   4.049   7.413
23720WAT     H271403   8.882   4.039   7.575
23721WAT      O71404   0.090   0.625   6.225
23721WAT     H171405   0.076   0.654   6.319
23721WAT     H271406   0.003   0.594   6.186
23722WAT      O71407   8.508   3.172   6.398
23722WAT     H171408   8.449   3.094   6.378
23722WAT     H271409   8.562   3.152   6.481
23723WAT      O71410   7.157   3.966   3.254
23723WAT     H171411   7.075   4.012   3.220
23723WAT     H271412   7.165   3.980   3.352
23724WAT      O71413   4.314   3.542   1.308
23724WAT     H171414   4.412   3.528   1.322
23724WAT     H271415   4.263   3.493   1.378
23725WAT      O71416   9.866   6.327   5.524
23725WAT     H171417   9.816   6.243   5.547
23725WAT     H271418   9.899   6.370   5.607
23726WAT      O71419   6.733   0.923   6.429
23726WAT     H171420   6.718   0.968   6.517
23726WAT     H271421   6.788   0.982   6.370
23727WAT      O71422   4.903   5.535   0.926
23727WAT     H171423   4.907   5.573   1.018
23727WAT     H271424   4.956   5.450   0.923
23728WAT      O71425   0.540   0.536   8.069
23728WAT     H171426   0.536   0.636   8.069
23728WAT     H271427   0.450   0.498   8.089
23729WAT      O71428   1.769   0.555   7.356
23729WAT     H171429   1.862   0.561   7.318
23729WAT     H271430   1.716   0.488   7.304
23730WAT      O71431   6.332   9.687   9.201
23730WAT     H171432   6.308   9.762   9.262
23730WAT     H271433   6.260   9.676   9.132
23731WAT      O71434   4.855   1.914   7.953
23731WAT     H171435   4.950   1.925   7.924
23731WAT     H271436   4.840   1.819   7.982
23732WAT      O71437   5.169   3.221   4.884
23732WAT     H171438   5.238   3.154   4.909
23732WAT     H271439   5.114   3.243   4.965
23733WAT      O71440   8.836   6.228   7.437
23733WAT     H171441   8.797   6.166   7.506
23733WAT     H271442   8.841   6.180   7.349
23734WAT      O71443   6.513   0.374   5.033
23734WAT     H171444   6.436   0.436   5.046
23734WAT     H271445   6.502   0.294   5.093
23735WAT      O71446   3.641   4.181   3.311
23735WAT     H171447   3.622   4.148   3.403
23735WAT     H271448   3.665   4.104   3.251
23736WAT      O71449   8.719   7.033   4.672
23736WAT     H171450   8.778   7.110   4.697
23736WAT     H271451   8.756   6.949   4.711
23737WAT      O71452   9.618   4.952   4.799
23737WAT     H171453   9.651   5.040   4.832
23737WAT     H271454   9.572   4.964   4.710
23738WAT      O71455   9.315   9.387   3.679
23738WAT     H171456   9.331   9.481   3.651
23738WAT     H271457   9.402   9.345   3.705
23739WAT      O71458   0.832   3.585   2.944
23739WAT     H171459   0.876   3.675   2.944
23739WAT     H271460   0.733   3.597   2.958
23740WAT      O71461   9.470   6.052   0.051
23740WAT     H171462   9.523   6.137   0.046
23740WAT     H271463   9.444   6.034   0.146
23741WAT      O71464   8.116   7.207   1.143
23741WAT     H171465   8.208   7.230   1.176
23741WAT     H271466   8.048   7.252   1.201
23742WAT      O71467   0.160   7.987   7.327
23742WAT     H171468   0.226   7.954   7.260
23742WAT     H271469   0.183   7.952   7.418
23743WAT      O71470   9.325   3.212   0.512
23743WAT     H171471   9.337   3.310   0.528
23743WAT     H271472   9.397   3.161   0.560
23744WAT      O71473   6.282   3.703   7.962
23744WAT     H171474   6.190   3.720   7.926
23744WAT     H271475   6.297   3.604   7.968
23745WAT      O71476   5.546   5.510   0.020
23745WAT     H171477   5.591   5.478  -0.063
23745WAT     H271478   5.595   5.589   0.056
23746WAT      O71479   2.588   1.817   0.377
23746WAT     H171480   2.661   1.776   0.322
23746WAT     H271481   2.518   1.854   0.316
23747WAT      O71482   1.641   0.452   8.304
23747WAT     H171483   1.677   0.541   8.333
23747WAT     H271484   1.703   0.380   8.334
23748WAT      O71485   0.486   3.838   6.445
23748WAT     H171486   0.569   3.865   6.397
23748WAT     H271487   0.474   3.739   6.438
23749WAT      O71488   4.201   7.956   8.436
23749WAT     H171489   4.198   8.039   8.381
23749WAT     H271490   4.151   7.970   8.521
23750WAT      O71491   3.383   5.348   3.499
23750WAT     H171492   3.465   5.394   3.535
23750WAT     H271493   3.349   5.400   3.421
23751WAT      O71494   0.718   6.650   5.544
23751WAT     H171495   0.811   6.638   5.581
23751WAT     H271496   0.686   6.742   5.564
23752WAT      O71497   6.552   3.474   3.559
23752WAT     H171498   6.598   3.556   3.525
23752WAT     H271499   6.612   3.427   3.623
23753WAT      O71500   8.877   4.798   0.131
23753WAT     H171501   8.915   4.856   0.059
23753WAT     H271502   8.780   4.818   0.142
23754WAT      O71503   1.296   9.163   3.538
23754WAT     H171504   1.317   9.233   3.470
23754WAT     H271505   1.379   9.110   3.558
23755WAT      O71506   6.358   1.415   1.907
23755WAT     H171507   6.388   1.330   1.865
23755WAT     H271508   6.271   1.443   1.866
23756WAT      O71509   5.573   1.061   1.835
23756WAT     H171510   5.572   0.964   1.857
23756WAT     H271511   5.488   1.104   1.865
23757WAT      O71512   4.520   3.025   0.482
23757WAT     H171513   4.424   3.055   0.482
23757WAT     H271514   4.564   3.055   0.398
23758WAT      O71515   4.861   6.314   3.278
23758WAT     H171516   4.801   6.385   3.240
23758WAT     H271517   4.955   6.350   3.281
23759WAT      O71518   8.710   5.223   8.265
23759WAT     H171519   8.784   5.266   8.213
23759WAT     H271520   8.647   5.293   8.298
23760WAT      O71521   6.854   0.493   5.833
23760WAT     H171522   6.824   0.551   5.757
23760WAT     H271523   6.774   0.463   5.885
23761WAT      O71524   4.155   7.565   7.091
23761WAT     H171525   4.234   7.625   7.076
23761WAT     H271526   4.178   7.472   7.064
23762WAT      O71527   1.928   0.246   8.461
23762WAT     H171528   1.890   0.203   8.380
23762WAT     H271529   2.024   0.221   8.470
23763WAT      O71530   4.393   2.343   7.410
23763WAT     H171531   4.458   2.394   7.466
23763WAT     H271532   4.357   2.402   7.338
23764WAT      O71533   6.356   8.709   5.644
23764WAT     H171534   6.309   8.795   5.624
23764WAT     H271535   6.412   8.683   5.565
23765WAT      O71536   4.169   2.825   5.285
23765WAT     H171537   4.143   2.753   5.349
23765WAT     H271538   4.218   2.897   5.334
23766WAT      O71539   7.952   0.370   4.709
23766WAT     H171540   7.997   0.328   4.630
23766WAT     H271541   8.000   0.453   4.736
23767WAT      O71542   3.687   1.884   9.676
23767WAT     H171543   3.679   1.866   9.774
23767WAT     H271544   3.620   1.952   9.648
23768WAT      O71545   0.560   6.343   2.935
23768WAT     H171546   0.583   6.441   2.938
23768WAT     H271547   0.609   6.296   3.009
23769WAT      O71548   6.648   6.358   2.945
23769WAT     H171549   6.610   6.402   2.864
23769WAT     H271550   6.618   6.408   3.027
23770WAT      O71551   4.793   1.976   6.222
23770WAT     H171552   4.853   1.982   6.142
23770WAT     H271553   4.729   2.053   6.223
23771WAT      O71554   1.800   0.913   9.010
23771WAT     H171555   1.737   0.888   8.936
23771WAT     H271556   1.803   1.012   9.018
23772WAT      O71557   5.189   8.566   0.677
23772WAT     H171558   5.221   8.650   0.634
23772WAT     H271559   5.202   8.489   0.615
23773WAT      O71560   0.060   6.652   8.338
23773WAT     H171561   0.138   6.691   8.388
23773WAT     H271562   0.067   6.552   8.340
23774WAT      O71563   6.787   5.050   9.020
23774WAT     H171564   6.835   5.126   9.064
23774WAT     H271565   6.702   5.083   8.979
23775WAT      O71566   6.565   0.473   7.135
23775WAT     H171567   6.497   0.521   7.190
23775WAT     H271568   6.646   0.454   7.191
23776WAT      O71569   6.335   7.642   9.810
23776WAT     H171570   6.418   7.675   9.856
23776WAT     H271571   6.323   7.545   9.828
23777WAT      O71572   4.454   0.006   3.969
23777WAT     H171573   4.483   0.003   4.065
23777WAT     H271574   4.417  -0.084   3.944
23778WAT      O71575   5.642   8.000   7.818
23778WAT     H171576   5.607   7.921   7.768
23778WAT     H271577   5.704   8.052   7.758
23779WAT      O71578   1.826   4.674   8.327
23779WAT     H171579   1.810   4.765   8.290
23779WAT     H271580   1.924   4.653   8.322
23780WAT      O71581   7.649   3.758   7.223
23780WAT     H171582   7.698   3.672   7.206
23780WAT     H271583   7.568   3.740   7.278
23781WAT      O71584   6.247   8.032   9.532
23781WAT     H171585   6.148   8.043   9.534
23781WAT     H271586   6.285   8.061   9.620
23782WAT      O71587   9.450   7.900   5.501
23782WAT     H171588   9.462   7.986   5.549
23782WAT     H271589   9.539   7.860   5.481
23783WAT      O71590   5.105   2.023   0.163
23783WAT     H171591   5.059   2.004   0.249
23783WAT     H271592   5.038   2.045   0.092
23784WAT      O71593   6.220   3.053   2.661
23784WAT     H171594   6.293   3.111   2.697
23784WAT     H271595   6.220   2.966   2.710
23785WAT      O71596   6.365   1.232   4.269
23785WAT     H171597   6.315   1.295   4.329
23785WAT     H271598   6.462   1.233   4.293
23786WAT      O71599   4.534   6.170   9.777
23786WAT     H171600   4.471   6.198   9.704
23786WAT     H271601   4.524   6.072   9.793
23787WAT      O71602   2.987   2.454   1.500
23787WAT     H171603   2.892   2.475   1.524
23787WAT     H271604   3.039   2.539   1.492
23788WAT      O71605   1.841   7.992   2.436
23788WAT     H171606   1.757   8.032   2.473
23788WAT     H271607   1.862   7.907   2.485
23789WAT      O71608   7.044   8.727   4.566
23789WAT     H171609   6.959   8.723   4.514
23789WAT     H271610   7.065   8.636   4.603
23790WAT      O71611   5.797   5.510   2.547
23790WAT     H171612   5.855   5.456   2.486
23790WAT     H271613   5.721   5.548   2.495
23791WAT      O71614   9.048   4.421   9.540
23791WAT     H171615   9.129   4.413   9.597
23791WAT     H271616   9.052   4.354   9.466
23792WAT      O71617   5.724   6.680   1.188
23792WAT     H171618   5.761   6.660   1.278
23792WAT     H271619   5.625   6.686   1.193
23793WAT      O71620   3.021   6.211   0.276
23793WAT     H171621   2.942   6.245   0.327
23793WAT     H271622   3.072   6.289   0.238
23794WAT      O71623   6.969   1.400   9.858
23794WAT     H171624   7.016   1.326   9.811
23794WAT     H271625   6.948   1.473   9.793
23795WAT      O71626   8.435   0.054   8.248
23795WAT     H171627   8.435  -0.045   8.235
23795WAT     H271628   8.383   0.097   8.175
23796WAT      O71629   7.552   3.457   1.987
23796WAT     H171630   7.542   3.525   2.060
23796WAT     H271631   7.468   3.403   1.981
23797WAT      O71632   3.834   7.467   9.073
23797WAT     H171633   3.925   7.426   9.062
23797WAT     H271634   3.806   7.461   9.168
23798WAT      O71635   0.882   9.674   8.168
23798WAT     H171636   0.911   9.728   8.090
23798WAT     H271637   0.962   9.651   8.225
23799WAT      O71638   6.125   0.966   2.041
23799WAT     H171639   6.050   0.932   2.097
23799WAT     H271640   6.212   0.943   2.084
23800WAT      O71641   2.460   3.935   5.620
23800WAT     H171642   2.438   3.893   5.708
23800WAT     H271643   2.467   4.034   5.632
23801WAT      O71644   1.450   0.195   0.697
23801WAT     H171645   1.515   0.271   0.701
23801WAT     H271646   1.414   0.185   0.604
23802WAT      O71647   9.051   0.905   6.007
23802WAT     H171648   9.139   0.860   6.023
23802WAT     H271649   9.003   0.858   5.932
23803WAT      O71650   1.627   1.450   4.263
23803WAT     H171651   1.591   1.384   4.197
23803WAT     H271652   1.554   1.511   4.293
23804WAT      O71653   1.440   1.738   9.838
23804WAT     H171654   1.439   1.834   9.867
23804WAT     H271655   1.529   1.716   9.797
23805WAT      O71656   0.388   2.022   5.218
23805WAT     H171657   0.337   2.035   5.303
23805WAT     H271658   0.400   1.924   5.201
23806WAT      O71659   1.644   2.869   6.447
23806WAT     H171660   1.668   2.773   6.435
23806WAT     H271661   1.573   2.877   6.517
23807WAT      O71662   9.033   5.206   5.265
23807WAT     H171663   9.128   5.230   5.285
23807WAT     H271664   9.002   5.136   5.329
23808WAT      O71665   5.974   8.037   8.841
23808WAT     H171666   5.901   8.064   8.778
23808WAT     H271667   5.991   7.939   8.831
23809WAT      O71668   3.724   0.733   5.710
23809WAT     H171669   3.726   0.670   5.632
23809WAT     H271670   3.632   0.771   5.720
23810WAT      O71671   0.341   7.246   1.036
23810WAT     H171672   0.311   7.292   1.119
23810WAT     H271673   0.393   7.164   1.060
23811WAT      O71674   7.303   2.035   1.629
23811WAT     H171675   7.324   1.938   1.643
23811WAT     H271676   7.388   2.087   1.625
23812WAT      O71677   8.877   2.993   8.850
23812WAT     H171678   8.825   3.061   8.901
23812WAT     H271679   8.967   3.030   8.826
23813WAT      O71680   0.320   1.524   7.938
23813WAT     H171681   0.224   1.498   7.951
23813WAT     H271682   0.326   1.605   7.881
23814WAT      O71683   1.920   7.824   1.947
23814WAT     H171684   1.912   7.814   2.046
23814WAT     H271685   1.989   7.894   1.926
23815WAT      O71686   3.917   0.921   1.042
23815WAT     H171687   3.936   0.861   1.119
23815WAT     H271688   3.994   0.919   0.978
23816WAT      O71689   5.241   5.758   7.073
23816WAT     H171690   5.241   5.851   7.110
23816WAT     H271691   5.158   5.711   7.102
23817WAT      O71692   6.900   7.258   5.580
23817WAT     H171693   6.916   7.346   5.625
23817WAT     H271694   6.924   7.184   5.643
23818WAT      O71695   1.702   2.585   0.764
23818WAT     H171696   1.801   2.576   0.755
23818WAT     H271697   1.664   2.623   0.680
23819WAT      O71698   2.916   3.610   2.894
23819WAT     H171699   2.950   3.519   2.915
23819WAT     H271700   2.931   3.670   2.972
23820WAT      O71701   4.772   5.396   9.836
23820WAT     H171702   4.732   5.306   9.818
23820WAT     H271703   4.831   5.391   9.917
23821WAT      O71704   9.866   1.980   6.073
23821WAT     H171705   9.948   1.922   6.068
23821WAT     H271706   9.819   1.964   6.160
23822WAT      O71707   5.368   6.913   4.856
23822WAT     H171708   5.362   6.865   4.768
23822WAT     H271709   5.295   6.883   4.916
23823WAT      O71710   5.101   5.567   6.348
23823WAT     H171711   5.095   5.586   6.250
23823WAT     H271712   5.182   5.510   6.365
23824WAT      O71713   7.504   8.119   3.358
23824WAT     H171714   7.514   8.216   3.380
23824WAT     H271715   7.592   8.073   3.373
23825WAT      O71716   2.466   7.677   4.134
23825WAT     H171717   2.437   7.735   4.058
23825WAT     H271718   2.428   7.585   4.122
23826WAT      O71719   5.486   5.298   3.015
23826WAT     H171720   5.431   5.381   3.011
23826WAT     H271721   5.426   5.219   3.028
23827WAT      O71722   7.307   8.494   3.850
23827WAT     H171723   7.210   8.472   3.859
23827WAT     H271724   7.360   8.437   3.911
23828WAT      O71725   5.188   6.123   3.988
23828WAT     H171726   5.184   6.154   4.084
23828WAT     H271727   5.251   6.045   3.981
23829WAT      O71728   6.072   3.388   0.591
23829WAT     H171729   6.025   3.448   0.526
23829WAT     H271730   6.107   3.308   0.543
23830WAT      O71731   5.200   6.851   3.944
23830WAT     H171732   5.286   6.831   3.990
23830WAT     H271733   5.132   6.880   4.012
23831WAT      O71734   9.638   5.572   8.937
23831WAT     H171735   9.685   5.501   8.989
23831WAT     H271736   9.692   5.657   8.940
23832WAT      O71737   7.978   1.618   1.966
23832WAT     H171738   7.880   1.615   1.986
23832WAT     H271739   7.994   1.576   1.876
23833WAT      O71740   3.678   8.651   5.201
23833WAT     H171741   3.595   8.600   5.179
23833WAT     H271742   3.704   8.632   5.295
23834WAT      O71743   7.835   2.967   1.695
23834WAT     H171744   7.800   3.038   1.755
23834WAT     H271745   7.903   2.912   1.744
23835WAT      O71746   4.990   8.692   0.816
23835WAT     H171747   5.072   8.660   0.768
23835WAT     H271748   4.939   8.613   0.851
23836WAT      O71749   6.291   3.930   1.816
23836WAT     H171750   6.269   4.002   1.751
23836WAT     H271751   6.372   3.881   1.785
23837WAT      O71752   9.080   1.565   3.626
23837WAT     H171753   9.107   1.578   3.530
23837WAT     H271754   8.992   1.609   3.642
23838WAT      O71755   3.236   5.940   8.761
23838WAT     H171756   3.274   6.029   8.784
23838WAT     H271757   3.258   5.917   8.666
23839WAT      O71758   8.070   0.827   8.732
23839WAT     H171759   8.103   0.846   8.639
23839WAT     H271760   7.999   0.757   8.728
23840WAT      O71761   6.715   0.207   7.751
23840WAT     H171762   6.620   0.222   7.723
23840WAT     H271763   6.749   0.123   7.709
23841WAT      O71764   7.629   8.939   3.118
23841WAT     H171765   7.638   8.985   3.207
23841WAT     H271766   7.533   8.917   3.102
23842WAT      O71767   6.270   6.948   5.117
23842WAT     H171768   6.296   6.861   5.076
23842WAT     H271769   6.249   7.014   5.045
23843WAT      O71770   3.276   9.379   4.201
23843WAT     H171771   3.339   9.304   4.178
23843WAT     H271772   3.234   9.413   4.117
23844WAT      O71773   0.989   8.037   1.797
23844WAT     H171774   1.060   8.047   1.866
23844WAT     H271775   0.927   8.115   1.802
23845WAT      O71776   3.320   0.335   4.492
23845WAT     H171777   3.324   0.430   4.463
23845WAT     H271778   3.412   0.295   4.488
23846WAT      O71779   7.360   3.838   0.568
23846WAT     H171780   7.418   3.846   0.649
23846WAT     H271781   7.297   3.916   0.564
23847WAT      O71782   8.390   3.034   1.318
23847WAT     H171783   8.475   2.981   1.315
23847WAT     H271784   8.321   2.989   1.261
23848WAT      O71785   4.389   3.222   4.266
23848WAT     H171786   4.450   3.207   4.344
23848WAT     H271787   4.443   3.252   4.187
23849WAT      O71788   6.865   8.850   6.114
23849WAT     H171789   6.769   8.876   6.100
23849WAT     H271790   6.875   8.806   6.203
23850WAT      O71791   7.407   3.278   8.229
23850WAT     H171792   7.437   3.365   8.189
23850WAT     H271793   7.390   3.291   8.326
23851WAT      O71794   4.931   0.168   7.503
23851WAT     H171795   4.852   0.179   7.563
23851WAT     H271796   5.010   0.216   7.541
23852WAT      O71797   4.721   0.095   3.890
23852WAT     H171798   4.636   0.068   3.936
23852WAT     H271799   4.715   0.191   3.863
23853WAT      O71800   6.466   4.092   2.419
23853WAT     H171801   6.370   4.065   2.429
23853WAT     H271802   6.494   4.146   2.498
23854WAT      O71803   6.791   1.484   0.845
23854WAT     H171804   6.865   1.422   0.871
23854WAT     H271805   6.827   1.578   0.838
23855WAT      O71806   6.876   7.710   1.236
23855WAT     H171807   6.927   7.772   1.176
23855WAT     H271808   6.940   7.662   1.297
23856WAT      O71809   7.995   6.030   7.063
23856WAT     H171810   7.899   6.010   7.045
23856WAT     H271811   8.052   5.985   6.995
23857WAT      O71812   3.239   0.906   3.028
23857WAT     H171813   3.196   0.983   2.981
23857WAT     H271814   3.327   0.934   3.065
23858WAT      O71815   8.202   5.846   4.098
23858WAT     H171816   8.267   5.771   4.100
23858WAT     H271817   8.213   5.899   4.014
23859WAT      O71818   9.063   6.590   7.269
23859WAT     H171819   9.050   6.689   7.269
23859WAT     H271820   8.981   6.546   7.231
23860WAT      O71821   5.780   6.656   7.598
23860WAT     H171822   5.836   6.724   7.552
23860WAT     H271823   5.686   6.662   7.564
23861WAT      O71824   5.771   4.634   8.139
23861WAT     H171825   5.826   4.571   8.194
23861WAT     H271826   5.675   4.630   8.169
23862WAT      O71827   6.731   5.236   3.501
23862WAT     H171828   6.732   5.137   3.504
23862WAT     H271829   6.686   5.266   3.416
23863WAT      O71830   0.156   3.771   5.276
23863WAT     H171831   0.119   3.847   5.329
23863WAT     H271832   0.092   3.694   5.279
23864WAT      O71833   8.610   9.150   2.254
23864WAT     H171834   8.633   9.057   2.284
23864WAT     H271835   8.675   9.179   2.183
23865WAT      O71836   0.275   0.350   9.738
23865WAT     H171837   0.185   0.374   9.775
23865WAT     H271838   0.272   0.258   9.701
23866WAT      O71839   9.487   8.739   7.060
23866WAT     H171840   9.431   8.706   7.136
23866WAT     H271841   9.481   8.839   7.055
23867WAT      O71842   4.246   8.778   6.615
23867WAT     H171843   4.250   8.834   6.698
23867WAT     H271844   4.206   8.689   6.637
23868WAT      O71845   0.865   2.776   3.036
23868WAT     H171846   0.920   2.704   3.079
23868WAT     H271847   0.822   2.739   2.953
23869WAT      O71848   1.474   4.394   2.307
23869WAT     H171849   1.553   4.354   2.261
23869WAT     H271850   1.398   4.402   2.242
23870WAT      O71851   5.095   8.425   0.134
23870WAT     H171852   5.046   8.391   0.214
23870WAT     H271853   5.176   8.477   0.163
23871WAT      O71854   7.461   5.127   9.382
23871WAT     H171855   7.473   5.103   9.479
23871WAT     H271856   7.545   5.108   9.333
23872WAT      O71857   8.220   5.724   4.636
23872WAT     H171858   8.135   5.716   4.689
23872WAT     H271859   8.201   5.772   4.550
23873WAT      O71860   7.050   8.697   6.855
23873WAT     H171861   6.970   8.725   6.908
23873WAT     H271862   7.022   8.670   6.763
23874WAT      O71863   0.495   4.860   7.228
23874WAT     H171864   0.419   4.845   7.292
23874WAT     H271865   0.553   4.778   7.226
23875WAT      O71866   1.120   9.201   7.556
23875WAT     H171867   1.146   9.281   7.611
23875WAT     H271868   1.076   9.134   7.616
23876WAT      O71869   4.777   0.042   1.781
23876WAT     H171870   4.696   0.088   1.745
23876WAT     H271871   4.762  -0.057   1.781
23877WAT      O71872   0.633   1.458   4.606
23877WAT     H171873   0.555   1.517   4.585
23877WAT     H271874   0.600   1.372   4.644
23878WAT      O71875   8.929   1.147   1.538
23878WAT     H171876   8.931   1.110   1.631
23878WAT     H271877   9.003   1.108   1.484
23879WAT      O71878   1.982   2.489   7.565
23879WAT     H171879   1.980   2.432   7.647
23879WAT     H271880   1.958   2.583   7.589
23880WAT      O71881   1.682   0.057   0.047
23880WAT     H171882   1.663   0.106   0.132
23880WAT     H271883   1.624  -0.023   0.040
23881WAT      O71884   0.306   9.535   8.399
23881WAT     H171885   0.397   9.493   8.391
23881WAT     H271886   0.283   9.581   8.313
23882WAT      O71887   4.272   6.510   3.670
23882WAT     H171888   4.208   6.565   3.723
23882WAT     H271889   4.349   6.566   3.641
23883WAT      O71890   1.073   8.985   5.170
23883WAT     H171891   0.984   9.014   5.135
23883WAT     H271892   1.118   9.062   5.214
23884WAT      O71893   1.238   4.774   2.981
23884WAT     H171894   1.289   4.707   2.928
23884WAT     H271895   1.141   4.750   2.980
23885WAT      O71896   6.372   4.436   7.829
23885WAT     H171897   6.392   4.339   7.843
23885WAT     H271898   6.445   4.491   7.867
23886WAT      O71899   4.311   9.456   7.153
23886WAT     H171900   4.352   9.543   7.179
23886WAT     H271901   4.228   9.441   7.207
23887WAT      O71902   2.511   9.796   1.750
23887WAT     H171903   2.492   9.784   1.652
23887WAT     H271904   2.426   9.817   1.798
23888WAT      O71905   1.320   7.317   8.640
23888WAT     H171906   1.320   7.270   8.729
23888WAT     H271907   1.300   7.414   8.654
23889WAT      O71908   3.191   5.266   8.198
23889WAT     H171909   3.265   5.198   8.196
23889WAT     H271910   3.205   5.332   8.125
23890WAT      O71911   0.942   3.491   1.367
23890WAT     H171912   0.902   3.399   1.373
23890WAT     H271913   0.868   3.559   1.368
23891WAT      O71914   7.164   4.465   4.374
23891WAT     H171915   7.082   4.437   4.423
23891WAT     H271916   7.155   4.444   4.277
23892WAT      O71917   5.662   4.773   2.313
23892WAT     H171918   5.760   4.757   2.309
23892WAT     H271919   5.635   4.835   2.240
23893WAT      O71920   7.468   4.149   2.204
23893WAT     H171921   7.546   4.145   2.143
23893WAT     H271922   7.458   4.061   2.251
23894WAT      O71923   2.529   9.035   3.616
23894WAT     H171924   2.458   9.017   3.684
23894WAT     H271925   2.569   8.948   3.585
23895WAT      O71926   5.042   5.464   6.608
23895WAT     H171927   5.032   5.535   6.678
23895WAT     H271928   5.070   5.507   6.521
23896WAT      O71929   2.706   9.012   2.937
23896WAT     H171930   2.735   9.010   2.841
23896WAT     H271931   2.754   8.940   2.987
23897WAT      O71932   3.620   6.967   1.438
23897WAT     H171933   3.667   7.046   1.397
23897WAT     H271934   3.675   6.931   1.513
23898WAT      O71935   7.866   8.165   4.880
23898WAT     H171936   7.808   8.173   4.961
23898WAT     H271937   7.835   8.087   4.824
23899WAT      O71938   5.115   3.302   0.537
23899WAT     H171939   5.138   3.292   0.440
23899WAT     H271940   5.199   3.313   0.590
23900WAT      O71941   6.682   5.512   0.373
23900WAT     H171942   6.782   5.519   0.373
23900WAT     H271943   6.656   5.417   0.355
23901WAT      O71944   6.199   2.273   1.724
23901WAT     H171945   6.267   2.216   1.678
23901WAT     H271946   6.231   2.295   1.816
23902WAT      O71947   5.349   7.803   8.574
23902WAT     H171948   5.306   7.870   8.636
23902WAT     H271949   5.432   7.767   8.616
23903WAT      O71950   2.439   9.760   8.600
23903WAT     H171951   2.348   9.722   8.615
23903WAT     H271952   2.495   9.748   8.682
23904WAT      O71953   9.385   6.662   2.525
23904WAT     H171954   9.344   6.690   2.438
23904WAT     H271955   9.468   6.609   2.507
23905WAT      O71956   9.754   9.567   4.169
23905WAT     H171957   9.668   9.570   4.119
23905WAT     H271958   9.771   9.656   4.212
23906WAT      O71959   7.115   5.766   2.474
23906WAT     H171960   7.034   5.803   2.426
23906WAT     H271961   7.188   5.750   2.408
23907WAT      O71962   7.067   3.797   2.163
23907WAT     H171963   7.085   3.699   2.170
23907WAT     H271964   7.077   3.825   2.068
23908WAT      O71965   6.870   5.621   2.859
23908WAT     H171966   6.875   5.678   2.942
23908WAT     H271967   6.778   5.584   2.850
23909WAT      O71968   7.319   6.797   7.420
23909WAT     H171969   7.288   6.717   7.368
23909WAT     H271970   7.417   6.810   7.406
23910WAT      O71971   4.670   1.097   3.231
23910WAT     H171972   4.572   1.083   3.248
23910WAT     H271973   4.694   1.060   3.141
23911WAT      O71974   2.054   1.922   1.753
23911WAT     H171975   2.031   1.974   1.835
23911WAT     H271976   2.097   1.836   1.780
23912WAT      O71977   8.122   8.585   3.484
23912WAT     H171978   8.211   8.628   3.466
23912WAT     H271979   8.128   8.528   3.566
23913WAT      O71980   4.801   5.578   5.395
23913WAT     H171981   4.848   5.545   5.313
23913WAT     H271982   4.730   5.644   5.368
23914WAT      O71983   2.812   9.550   5.248
23914WAT     H171984   2.716   9.570   5.269
23914WAT     H271985   2.861   9.527   5.332
23915WAT      O71986   1.588   8.204   9.470
23915WAT     H171987   1.552   8.117   9.436
23915WAT     H271988   1.651   8.243   9.403
23916WAT      O71989   8.574   2.255   8.019
23916WAT     H171990   8.575   2.321   7.944
23916WAT     H271991   8.597   2.164   7.985
23917WAT      O71992   8.592   3.724   9.215
23917WAT     H171993   8.521   3.783   9.253
23917WAT     H271994   8.554   3.669   9.140
23918WAT      O71995   7.376   9.458   7.993
23918WAT     H171996   7.453   9.409   7.952
23918WAT     H271997   7.403   9.554   8.008
23919WAT      O71998   8.647   8.898   2.372
23919WAT     H171999   8.639   8.799   2.370
23919WAT     H272000   8.562   8.938   2.406
23920WAT      O72001   2.916   9.418   2.199
23920WAT     H172002   3.012   9.445   2.211
23920WAT     H272003   2.871   9.485   2.139
23921WAT      O72004   7.840   8.920   0.824
23921WAT     H172005   7.935   8.900   0.799
23921WAT     H272006   7.787   8.937   0.740
23922WAT      O72007   0.043   3.799   9.735
23922WAT     H172008  -0.013   3.839   9.807
23922WAT     H272009   0.134   3.779   9.771
23923WAT      O72010   4.625   0.053   4.549
23923WAT     H172011   4.536   0.089   4.578
23923WAT     H272012   4.611  -0.017   4.479
23924WAT      O72013   1.707   2.916   8.489
23924WAT     H172014   1.622   2.878   8.452
23924WAT     H272015   1.781   2.905   8.423
23925WAT      O72016   3.549   2.253   3.138
23925WAT     H172017   3.617   2.321   3.164
23925WAT     H272018   3.585   2.161   3.153
23926WAT      O72019   1.562   6.957   0.316
23926WAT     H172020   1.611   6.898   0.253
23926WAT     H272021   1.574   6.925   0.410
23927WAT      O72022   2.610   0.902   3.679
23927WAT     H172023   2.625   1.000   3.689
23927WAT     H272024   2.674   0.853   3.739
23928WAT      O72025   7.474   3.900   9.262
23928WAT     H172026   7.527   3.856   9.334
23928WAT     H272027   7.493   3.998   9.261
23929WAT      O72028   7.576   9.123   0.805
23929WAT     H172029   7.637   9.198   0.779
23929WAT     H272030   7.608   9.082   0.890
23930WAT      O72031   1.501   0.417   3.567
23930WAT     H172032   1.425   0.423   3.503
23930WAT     H272033   1.501   0.497   3.627
23931WAT      O72034   7.168   8.883   0.467
23931WAT     H172035   7.248   8.915   0.517
23931WAT     H272036   7.127   8.806   0.516
23932WAT      O72037   7.420   5.753   1.235
23932WAT     H172038   7.343   5.813   1.259
23932WAT     H272039   7.436   5.758   1.136
23933WAT      O72040   4.396   6.317   2.923
23933WAT     H172041   4.343   6.246   2.878
23933WAT     H272042   4.468   6.276   2.978
23934WAT      O72043   2.316   3.770   0.738
23934WAT     H172044   2.278   3.843   0.681
23934WAT     H272045   2.408   3.748   0.706
23935WAT      O72046   8.931   3.675   8.478
23935WAT     H172047   9.008   3.615   8.498
23935WAT     H272048   8.923   3.746   8.548
23936WAT      O72049   2.884   5.739   2.515
23936WAT     H172050   2.834   5.670   2.567
23936WAT     H272051   2.839   5.754   2.427
23937WAT      O72052   3.239   1.880   3.993
23937WAT     H172053   3.315   1.891   3.928
23937WAT     H272054   3.211   1.969   4.028
23938WAT      O72055   5.825   3.151   8.176
23938WAT     H172056   5.907   3.099   8.149
23938WAT     H272057   5.752   3.135   8.109
23939WAT      O72058   7.806   2.385   2.253
23939WAT     H172059   7.727   2.419   2.303
23939WAT     H272060   7.777   2.313   2.189
23940WAT      O72061   8.759   2.870   4.224
23940WAT     H172062   8.698   2.869   4.303
23940WAT     H272063   8.804   2.960   4.218
23941WAT      O72064   1.764   6.103   8.223
23941WAT     H172065   1.789   6.011   8.251
23941WAT     H272066   1.794   6.119   8.129
23942WAT      O72067   8.176   0.703   4.754
23942WAT     H172068   8.089   0.742   4.784
23942WAT     H272069   8.196   0.621   4.808
23943WAT      O72070   6.582   3.945   6.391
23943WAT     H172071   6.569   3.953   6.292
23943WAT     H272072   6.513   4.000   6.438
23944WAT      O72073   5.629   4.331   3.985
23944WAT     H172074   5.590   4.269   4.053
23944WAT     H272075   5.571   4.333   3.904
23945WAT      O72076   8.607   6.129   8.196
23945WAT     H172077   8.600   6.113   8.294
23945WAT     H272078   8.703   6.134   8.170
23946WAT      O72079   3.967   4.237   1.541
23946WAT     H172080   3.928   4.161   1.595
23946WAT     H272081   4.065   4.222   1.530
23947WAT      O72082   8.680   5.644   2.957
23947WAT     H172083   8.677   5.637   3.057
23947WAT     H272084   8.587   5.635   2.921
23948WAT      O72085   3.843   9.363   4.992
23948WAT     H172086   3.901   9.355   5.073
23948WAT     H272087   3.759   9.312   5.006
23949WAT      O72088   6.051   0.940   1.331
23949WAT     H172089   5.979   1.005   1.355
23949WAT     H272090   6.073   0.949   1.234
23950WAT      O72091   3.405   5.502   6.387
23950WAT     H172092   3.453   5.589   6.396
23950WAT     H272093   3.308   5.518   6.375
23951WAT      O72094   7.368   5.725   4.674
23951WAT     H172095   7.449   5.769   4.714
23951WAT     H272096   7.291   5.789   4.679
23952WAT      O72097   2.712   1.053   5.446
23952WAT     H172098   2.723   1.030   5.543
23952WAT     H272099   2.794   1.026   5.396
23953WAT      O72100   5.192   7.958   3.774
23953WAT     H172101   5.201   8.050   3.812
23953WAT     H272102   5.224   7.891   3.842
23954WAT      O72103   8.730   2.404   5.840
23954WAT     H172104   8.806   2.372   5.782
23954WAT     H272105   8.687   2.325   5.883
23955WAT      O72106   1.956   0.366   7.686
23955WAT     H172107   1.997   0.444   7.733
23955WAT     H272108   1.962   0.285   7.744
23956WAT      O72109   5.634   7.851   1.252
23956WAT     H172110   5.622   7.813   1.344
23956WAT     H272111   5.632   7.951   1.257
23957WAT      O72112   9.057   0.728   4.213
23957WAT     H172113   9.045   0.636   4.175
23957WAT     H272114   9.081   0.722   4.309
23958WAT      O72115   5.492   4.026   6.640
23958WAT     H172116   5.535   3.970   6.711
23958WAT     H272117   5.398   4.046   6.666
23959WAT      O72118   8.321   1.797   1.880
23959WAT     H172119   8.407   1.847   1.892
23959WAT     H272120   8.338   1.713   1.830
23960WAT      O72121   8.821   6.824   8.344
23960WAT     H172122   8.882   6.900   8.367
23960WAT     H272123   8.804   6.769   8.426
23961WAT      O72124   6.884   3.159   7.315
23961WAT     H172125   6.882   3.234   7.249
23961WAT     H272126   6.828   3.183   7.394
23962WAT      O72127   5.347   8.429   9.793
23962WAT     H172128   5.257   8.411   9.755
23962WAT     H272129   5.407   8.351   9.774
23963WAT      O72130   4.469   9.157   9.821
23963WAT     H172131   4.485   9.255   9.833
23963WAT     H272132   4.381   9.143   9.776
23964WAT      O72133   0.437   8.606   1.624
23964WAT     H172134   0.499   8.636   1.550
23964WAT     H272135   0.343   8.625   1.597
23965WAT      O72136   8.789   4.784   7.105
23965WAT     H172137   8.829   4.859   7.158
23965WAT     H272138   8.728   4.730   7.163
23966WAT      O72139   9.768   7.712   3.632
23966WAT     H172140   9.829   7.786   3.658
23966WAT     H272141   9.817   7.647   3.574
23967WAT      O72142   1.823   9.481   0.878
23967WAT     H172143   1.800   9.387   0.905
23967WAT     H272144   1.749   9.543   0.904
23968WAT      O72145   0.618   2.753   2.087
23968WAT     H172146   0.559   2.674   2.072
23968WAT     H272147   0.687   2.730   2.156
23969WAT      O72148   2.602   5.290   5.023
23969WAT     H172149   2.672   5.220   5.005
23969WAT     H272150   2.530   5.250   5.080
23970WAT      O72151   9.029   0.548   3.977
23970WAT     H172152   9.058   0.488   3.903
23970WAT     H272153   9.109   0.587   4.023
23971WAT      O72154   3.560   6.555   9.310
23971WAT     H172155   3.519   6.628   9.255
23971WAT     H272156   3.585   6.478   9.251
23972WAT      O72157   5.975   2.573   6.715
23972WAT     H172158   6.019   2.483   6.715
23972WAT     H272159   5.890   2.569   6.661
23973WAT      O72160   9.185   3.363   2.871
23973WAT     H172161   9.170   3.265   2.884
23973WAT     H272162   9.149   3.413   2.950
23974WAT      O72163   5.454   0.578   8.314
23974WAT     H172164   5.511   0.576   8.232
23974WAT     H272165   5.388   0.653   8.307
23975WAT      O72166   8.367   8.568   7.962
23975WAT     H172167   8.281   8.577   8.011
23975WAT     H272168   8.443   8.580   8.025
23976WAT      O72169   2.862   2.795   5.425
23976WAT     H172170   2.918   2.831   5.499
23976WAT     H272171   2.800   2.865   5.392
23977WAT      O72172   5.182   8.714   6.079
23977WAT     H172173   5.269   8.750   6.046
23977WAT     H272174   5.121   8.790   6.101
23978WAT      O72175   0.983   9.404   1.538
23978WAT     H172176   1.013   9.331   1.599
23978WAT     H272177   0.931   9.472   1.591
23979WAT      O72178   7.453   0.684   5.270
23979WAT     H172179   7.356   0.667   5.290
23979WAT     H272180   7.464   0.779   5.239
23980WAT      O72181   1.162   4.654   4.709
23980WAT     H172182   1.098   4.726   4.736
23980WAT     H272183   1.153   4.576   4.771
23981WAT      O72184   7.365   9.649   7.078
23981WAT     H172185   7.410   9.572   7.032
23981WAT     H272186   7.266   9.643   7.063
23982WAT      O72187   2.154   0.715   9.628
23982WAT     H172188   2.212   0.716   9.547
23982WAT     H272189   2.177   0.636   9.685
23983WAT      O72190   6.391   6.851   2.343
23983WAT     H172191   6.385   6.950   2.336
23983WAT     H272192   6.307   6.815   2.383
23984WAT      O72193   7.995   2.138   7.868
23984WAT     H172194   8.045   2.079   7.805
23984WAT     H272195   8.042   2.139   7.957
23985WAT      O72196   5.581   2.530   2.802
23985WAT     H172197   5.657   2.562   2.745
23985WAT     H272198   5.614   2.510   2.894
23986WAT      O72199   3.366   2.232   4.285
23986WAT     H172200   3.364   2.179   4.370
23986WAT     H272201   3.326   2.322   4.300
23987WAT      O72202   6.321   9.308   8.137
23987WAT     H172203   6.365   9.226   8.099
23987WAT     H272204   6.280   9.285   8.225
23988WAT      O72205   5.988   2.607   1.117
23988WAT     H172206   6.068   2.572   1.166
23988WAT     H272207   5.905   2.581   1.166
23989WAT      O72208   4.296   5.971   8.559
23989WAT     H172209   4.394   5.980   8.542
23989WAT     H272210   4.279   5.959   8.657
23990WAT      O72211   9.806   7.050   8.337
23990WAT     H172212   9.711   7.025   8.319
23990WAT     H272213   9.866   7.005   8.271
23991WAT      O72214   7.803   7.166   5.940
23991WAT     H172215   7.803   7.208   5.850
23991WAT     H272216   7.831   7.070   5.932
23992WAT      O72217   9.866   0.941   2.095
23992WAT     H172218   9.941   0.958   2.159
23992WAT     H272219   9.904   0.924   2.004
23993WAT      O72220   0.551   1.204   2.795
23993WAT     H172221   0.495   1.235   2.717
23993WAT     H272222   0.492   1.173   2.869
23994WAT      O72223   5.076   6.318   9.465
23994WAT     H172224   5.048   6.327   9.561
23994WAT     H272225   5.018   6.250   9.420
23995WAT      O72226   0.194   1.125   3.796
23995WAT     H172227   0.199   1.194   3.868
23995WAT     H272228   0.120   1.061   3.817
23996WAT      O72229   6.695   4.692   6.165
23996WAT     H172230   6.718   4.730   6.255
23996WAT     H272231   6.722   4.757   6.093
23997WAT      O72232   5.788   3.063   5.622
23997WAT     H172233   5.815   2.985   5.566
23997WAT     H272234   5.772   3.142   5.563
23998WAT      O72235   9.759   1.858   9.095
23998WAT     H172236   9.699   1.791   9.140
23998WAT     H272237   9.829   1.809   9.043
23999WAT      O72238   4.127   4.424   1.812
23999WAT     H172239   4.044   4.378   1.781
23999WAT     H272240   4.194   4.355   1.842
24000WAT      O72241   9.030   0.334   0.806
24000WAT     H172242   9.097   0.341   0.880
24000WAT     H272243   9.002   0.425   0.778
24001WAT      O72244   7.146   5.353   9.708
24001WAT     H172245   7.214   5.284   9.681
24001WAT     H272246   7.121   5.339   9.804
24002WAT      O72247   0.442   9.584   4.897
24002WAT     H172248   0.521   9.599   4.957
24002WAT     H272249   0.472   9.547   4.810
24003WAT      O72250   8.131   4.839   6.112
24003WAT     H172251   8.191   4.788   6.050
24003WAT     H272252   8.036   4.813   6.093
24004WAT      O72253   0.327   6.443   6.388
24004WAT     H172254   0.339   6.346   6.405
24004WAT     H272255   0.292   6.487   6.470
24005WAT      O72256   2.674   7.349   9.097
24005WAT     H172257   2.714   7.259   9.083
24005WAT     H272258   2.747   7.417   9.104
24006WAT      O72259   0.311   5.228   2.214
24006WAT     H172260   0.259   5.304   2.255
24006WAT     H272261   0.374   5.191   2.283
24007WAT      O72262   6.195   9.478   4.430
24007WAT     H172263   6.280   9.435   4.460
24007WAT     H272264   6.217   9.565   4.385
24008WAT      O72265   7.502   1.393   6.434
24008WAT     H172266   7.512   1.399   6.533
24008WAT     H272267   7.477   1.483   6.398
24009WAT      O72268   2.274   4.202   8.927
24009WAT     H172269   2.345   4.143   8.965
24009WAT     H272270   2.199   4.210   8.991
24010WAT      O72271   4.991   2.187   9.013
24010WAT     H172272   4.895   2.208   8.996
24010WAT     H272273   5.000   2.140   9.101
24011WAT      O72274   1.352   2.093   2.349
24011WAT     H172275   1.437   2.114   2.300
24011WAT     H272276   1.319   2.176   2.395
24012WAT      O72277   9.598   4.411   3.859
24012WAT     H172278   9.621   4.313   3.867
24012WAT     H272279   9.554   4.442   3.943
24013WAT      O72280   8.898   4.823   2.854
24013WAT     H172281   8.871   4.782   2.941
24013WAT     H272282   8.998   4.831   2.851
24014WAT      O72283   6.329   7.171   0.600
24014WAT     H172284   6.282   7.097   0.553
24014WAT     H272285   6.379   7.135   0.679
24015WAT      O72286   8.196   5.812   8.989
24015WAT     H172287   8.136   5.815   8.909
24015WAT     H272288   8.260   5.889   8.986
24016WAT      O72289   0.225   0.354   7.252
24016WAT     H172290   0.286   0.319   7.323
24016WAT     H272291   0.158   0.284   7.227
24017WAT      O72292   0.858   0.351   1.449
24017WAT     H172293   0.837   0.403   1.532
24017WAT     H272294   0.919   0.275   1.471
24018WAT      O72295   6.458   8.142   7.267
24018WAT     H172296   6.362   8.127   7.244
24018WAT     H272297   6.513   8.146   7.183
24019WAT      O72298   3.185   6.712   0.692
24019WAT     H172299   3.124   6.789   0.710
24019WAT     H272300   3.171   6.642   0.762
24020WAT      O72301   7.078   7.099   8.367
24020WAT     H172302   7.144   7.137   8.432
24020WAT     H272303   7.119   7.097   8.275
24021WAT      O72304   6.732   7.373   9.830
24021WAT     H172305   6.711   7.307   9.757
24021WAT     H272306   6.656   7.439   9.838
24022WAT      O72307   5.611   8.905   4.987
24022WAT     H172308   5.534   8.940   5.040
24022WAT     H272309   5.584   8.896   4.891
24023WAT      O72310   8.232   3.354   1.138
24023WAT     H172311   8.190   3.267   1.114
24023WAT     H272312   8.242   3.360   1.238
24024WAT      O72313   6.386   8.214   2.290
24024WAT     H172314   6.384   8.299   2.237
24024WAT     H272315   6.300   8.204   2.340
24025WAT      O72316   3.329   6.776   9.763
24025WAT     H172317   3.237   6.760   9.726
24025WAT     H272318   3.325   6.851   9.829
24026WAT      O72319   8.659   0.202   1.815
24026WAT     H172320   8.648   0.155   1.727
24026WAT     H272321   8.632   0.140   1.889
24027WAT      O72322   6.100   8.254   1.822
24027WAT     H172323   6.172   8.304   1.774
24027WAT     H272324   6.141   8.191   1.888
24028WAT      O72325   8.086   5.925   6.495
24028WAT     H172326   8.111   5.842   6.545
24028WAT     H272327   8.167   5.982   6.483
24029WAT      O72328   4.759   6.068   2.698
24029WAT     H172329   4.693   6.019   2.641
24029WAT     H272330   4.726   6.072   2.792
24030WAT      O72331   4.419   4.821   3.019
24030WAT     H172332   4.486   4.858   2.956
24030WAT     H272333   4.399   4.888   3.090
24031WAT      O72334   9.142   7.458   6.616
24031WAT     H172335   9.121   7.435   6.521
24031WAT     H272336   9.199   7.541   6.618
24032WAT      O72337   5.386   8.640   2.265
24032WAT     H172338   5.421   8.688   2.346
24032WAT     H272339   5.442   8.559   2.247
24033WAT      O72340   3.046   8.159   2.598
24033WAT     H172341   2.946   8.162   2.607
24033WAT     H272342   3.084   8.097   2.666
24034WAT      O72343   9.642   0.220   5.812
24034WAT     H172344   9.662   0.225   5.714
24034WAT     H272345   9.568   0.155   5.828
24035WAT      O72346   7.984   6.934   4.966
24035WAT     H172347   8.060   6.907   5.026
24035WAT     H272348   7.958   7.029   4.985
24036WAT      O72349   3.020   3.146   2.567
24036WAT     H172350   2.970   3.204   2.632
24036WAT     H272351   3.007   3.182   2.475
24037WAT      O72352   5.623   3.917   3.200
24037WAT     H172353   5.563   3.905   3.121
24037WAT     H272354   5.650   4.013   3.207
24038WAT      O72355   6.766   6.599   3.913
24038WAT     H172356   6.832   6.534   3.951
24038WAT     H272357   6.746   6.574   3.818
24039WAT      O72358   6.202   4.192   9.547
24039WAT     H172359   6.223   4.287   9.526
24039WAT     H272360   6.271   4.155   9.609
24040WAT      O72361   8.722   1.997   8.049
24040WAT     H172362   8.677   1.920   8.095
24040WAT     H272363   8.735   2.072   8.114
24041WAT      O72364   4.436   8.938   5.410
24041WAT     H172365   4.361   8.900   5.355
24041WAT     H272366   4.406   8.950   5.504
24042WAT      O72367   3.719   5.890   1.052
24042WAT     H172368   3.797   5.870   0.992
24042WAT     H272369   3.748   5.885   1.147
24043WAT      O72370   6.093   4.038   7.892
24043WAT     H172371   6.157   4.086   7.953
24043WAT     H272372   6.000   4.069   7.910
24044WAT      O72373   9.744   2.283   5.776
24044WAT     H172374   9.698   2.273   5.687
24044WAT     H272375   9.784   2.374   5.783
24045WAT      O72376   8.523   2.924   0.674
24045WAT     H172377   8.490   2.831   0.692
24045WAT     H272378   8.541   2.934   0.576
24046WAT      O72379   7.522   7.150   6.047
24046WAT     H172380   7.481   7.237   6.071
24046WAT     H272381   7.602   7.165   5.988
24047WAT      O72382   8.953   9.757   2.796
24047WAT     H172383   8.881   9.816   2.831
24047WAT     H272384   8.960   9.769   2.697
24048WAT      O72385   3.625   0.233   2.625
24048WAT     H172386   3.681   0.161   2.667
24048WAT     H272387   3.684   0.297   2.576
24049WAT      O72388   1.502   0.579   2.391
24049WAT     H172389   1.582   0.638   2.381
24049WAT     H272390   1.433   0.603   2.322
24050WAT      O72391   4.138   5.499   3.576
24050WAT     H172392   4.184   5.415   3.604
24050WAT     H272393   4.059   5.477   3.519
24051WAT      O72394   7.922   8.181   1.826
24051WAT     H172395   7.896   8.109   1.889
24051WAT     H272396   8.022   8.190   1.826
24052WAT      O72397   5.102   6.115   0.108
24052WAT     H172398   5.159   6.196   0.119
24052WAT     H272399   5.007   6.139   0.131
24053WAT      O72400   4.789   6.764   6.384
24053WAT     H172401   4.761   6.839   6.445
24053WAT     H272402   4.829   6.803   6.301
24054WAT      O72403   1.531   9.416   3.498
24054WAT     H172404   1.493   9.418   3.590
24054WAT     H272405   1.536   9.509   3.461
24055WAT      O72406   7.988   4.058   7.989
24055WAT     H172407   8.086   4.041   7.979
24055WAT     H272408   7.939   3.970   7.992
24056WAT      O72409   6.072   3.764   8.537
24056WAT     H172410   6.055   3.667   8.551
24056WAT     H272411   6.108   3.780   8.446
24057WAT      O72412   2.692   9.702   9.171
24057WAT     H172413   2.661   9.695   9.076
24057WAT     H272414   2.632   9.763   9.222
24058WAT      O72415   8.735   2.552   9.867
24058WAT     H172416   8.787   2.550   9.782
24058WAT     H272417   8.778   2.490   9.933
24059WAT      O72418   3.970   6.016   7.269
24059WAT     H172419   3.924   6.103   7.285
24059WAT     H272420   4.063   6.021   7.305
24060WAT      O72421   8.776   5.156   0.927
24060WAT     H172422   8.859   5.101   0.927
24060WAT     H272423   8.790   5.238   0.984
24061WAT      O72424   1.662   7.573   6.866
24061WAT     H172425   1.712   7.621   6.794
24061WAT     H272426   1.592   7.635   6.904
24062WAT      O72427   1.953   3.839   1.759
24062WAT     H172428   2.014   3.835   1.838
24062WAT     H272429   1.963   3.927   1.712
24063WAT      O72430   4.358   5.851   1.385
24063WAT     H172431   4.367   5.818   1.479
24063WAT     H272432   4.303   5.786   1.332
24064WAT      O72433   4.434   6.944   9.700
24064WAT     H172434   4.482   6.939   9.788
24064WAT     H272435   4.424   7.040   9.673
24065WAT      O72436   1.174   8.614   9.717
24065WAT     H172437   1.258   8.563   9.704
24065WAT     H272438   1.098   8.551   9.731
24066WAT      O72439   8.138   9.721   8.160
24066WAT     H172440   8.126   9.811   8.120
24066WAT     H272441   8.135   9.728   8.260
24067WAT      O72442   3.600   7.708   3.626
24067WAT     H172443   3.545   7.690   3.707
24067WAT     H272444   3.597   7.628   3.566
24068WAT      O72445   2.641   5.025   1.928
24068WAT     H172446   2.638   4.927   1.910
24068WAT     H272447   2.571   5.071   1.874
24069WAT      O72448   4.564   6.130   1.983
24069WAT     H172449   4.524   6.222   1.978
24069WAT     H272450   4.621   6.123   2.064
24070WAT      O72451   7.971   8.512   2.276
24070WAT     H172452   7.879   8.533   2.243
24070WAT     H272453   7.966   8.441   2.347
24071WAT      O72454   2.079   1.077   3.591
24071WAT     H172455   2.034   1.012   3.652
24071WAT     H272456   2.163   1.110   3.635
24072WAT      O72457   1.651   4.542   1.168
24072WAT     H172458   1.623   4.466   1.109
24072WAT     H272459   1.590   4.547   1.247
24073WAT      O72460   1.202   3.824   5.322
24073WAT     H172461   1.235   3.754   5.258
24073WAT     H272462   1.102   3.827   5.320
24074WAT      O72463   7.085   7.937   6.432
24074WAT     H172464   7.107   7.894   6.344
24074WAT     H272465   7.122   7.882   6.506
24075WAT      O72466   9.059   0.386   4.465
24075WAT     H172467   9.012   0.369   4.378
24075WAT     H272468   9.092   0.480   4.467
24076WAT      O72469   4.048   6.453   2.627
24076WAT     H172470   4.135   6.499   2.644
24076WAT     H272471   4.059   6.390   2.550
24077WAT      O72472   3.114   5.998   5.581
24077WAT     H172473   3.047   6.047   5.637
24077WAT     H272474   3.098   6.017   5.484
24078WAT      O72475   6.892   8.139   7.823
24078WAT     H172476   6.820   8.164   7.758
24078WAT     H272477   6.869   8.052   7.866
24079WAT      O72478   0.848   4.171   0.247
24079WAT     H172479   0.947   4.166   0.253
24079WAT     H272480   0.814   4.095   0.191
24080WAT      O72481   0.758   7.370   7.408
24080WAT     H172482   0.709   7.380   7.322
24080WAT     H272483   0.707   7.308   7.468
24081WAT      O72484   1.101   7.666   7.283
24081WAT     H172485   1.059   7.578   7.267
24081WAT     H272486   1.118   7.712   7.196
24082WAT      O72487   5.695   7.030   5.067
24082WAT     H172488   5.709   6.998   5.161
24082WAT     H272489   5.601   7.060   5.055
24083WAT      O72490   0.972   1.687   1.250
24083WAT     H172491   1.044   1.617   1.253
24083WAT     H272492   0.951   1.718   1.342
24084WAT      O72493   8.989   2.281   7.014
24084WAT     H172494   8.945   2.251   7.099
24084WAT     H272495   8.951   2.231   6.937
24085WAT      O72496   8.169   6.621   9.520
24085WAT     H172497   8.241   6.559   9.550
24085WAT     H272498   8.194   6.715   9.543
24086WAT      O72499   2.930   3.976   5.259
24086WAT     H172500   2.988   3.895   5.251
24086WAT     H272501   2.987   4.058   5.268
24087WAT      O72502   7.813   2.416   7.148
24087WAT     H172503   7.738   2.479   7.173
24087WAT     H272504   7.793   2.325   7.183
24088WAT      O72505   1.521   4.979   0.354
24088WAT     H172506   1.461   4.945   0.426
24088WAT     H272507   1.474   5.051   0.302
24089WAT      O72508   4.569   0.276   5.925
24089WAT     H172509   4.574   0.192   5.979
24089WAT     H272510   4.614   0.261   5.836
24090WAT      O72511   9.136   5.338   7.457
24090WAT     H172512   9.138   5.438   7.465
24090WAT     H272513   9.064   5.302   7.517
24091WAT      O72514   0.030   8.295   8.353
24091WAT     H172515   0.082   8.370   8.394
24091WAT     H272516   0.036   8.214   8.412
24092WAT      O72517   2.951   8.038   6.470
24092WAT     H172518   2.900   7.976   6.409
24092WAT     H272519   3.049   8.019   6.463
24093WAT      O72520   7.406   8.988   8.101
24093WAT     H172521   7.314   9.021   8.122
24093WAT     H272522   7.413   8.891   8.124
24094WAT      O72523   9.346   8.956   4.291
24094WAT     H172524   9.417   9.021   4.316
24094WAT     H272525   9.347   8.879   4.354
24095WAT      O72526   5.159   9.218   5.790
24095WAT     H172527   5.118   9.127   5.798
24095WAT     H272528   5.258   9.210   5.793
24096WAT      O72529   6.974   8.062   1.326
24096WAT     H172530   6.972   8.006   1.244
24096WAT     H272531   7.066   8.062   1.365
24097WAT      O72532   7.812   2.513   5.466
24097WAT     H172533   7.750   2.590   5.452
24097WAT     H272534   7.866   2.529   5.548
24098WAT      O72535   9.622   9.373   0.055
24098WAT     H172536   9.565   9.453   0.073
24098WAT     H272537   9.704   9.377   0.113
24099WAT      O72538   3.012   4.226   5.366
24099WAT     H172539   2.926   4.270   5.390
24099WAT     H272540   3.073   4.225   5.446
24100WAT      O72541   2.280   4.883   5.187
24100WAT     H172542   2.294   4.792   5.149
24100WAT     H272543   2.225   4.937   5.124
24101WAT      O72544   2.486   3.081   7.122
24101WAT     H172545   2.433   3.142   7.180
24101WAT     H272546   2.466   3.100   7.026
24102WAT      O72547   0.418   5.193   6.937
24102WAT     H172548   0.436   5.192   7.035
24102WAT     H272549   0.339   5.252   6.919
24103WAT      O72550   5.860   7.954   7.985
24103WAT     H172551   5.786   7.999   7.936
24103WAT     H272552   5.847   7.965   8.083
24104WAT      O72553   8.071   2.987   4.190
24104WAT     H172554   8.001   2.928   4.230
24104WAT     H272555   8.137   2.932   4.140
24105WAT      O72556   1.120   7.223   9.401
24105WAT     H172557   1.131   7.322   9.403
24105WAT     H272558   1.029   7.199   9.368
24106WAT      O72559   8.119   2.669   2.026
24106WAT     H172560   8.211   2.633   2.009
24106WAT     H272561   8.052   2.595   2.018
24107WAT      O72562   7.068   0.682   0.907
24107WAT     H172563   7.026   0.734   0.832
24107WAT     H272564   7.167   0.690   0.901
24108WAT      O72565   4.241   4.054   4.470
24108WAT     H172566   4.274   4.115   4.397
24108WAT     H272567   4.313   4.042   4.539
24109WAT      O72568   3.025   0.935   9.194
24109WAT     H172569   3.054   0.900   9.283
24109WAT     H272570   3.040   1.034   9.191
24110WAT      O72571   2.881   7.377   1.434
24110WAT     H172572   2.943   7.401   1.508
24110WAT     H272573   2.835   7.290   1.456
24111WAT      O72574   2.261   3.489   5.863
24111WAT     H172575   2.308   3.474   5.950
24111WAT     H272576   2.328   3.512   5.792
24112WAT      O72577   1.744   1.694   2.075
24112WAT     H172578   1.689   1.614   2.055
24112WAT     H272579   1.823   1.667   2.131
24113WAT      O72580   0.889   7.419   7.675
24113WAT     H172581   0.928   7.329   7.656
24113WAT     H272582   0.867   7.465   7.590
24114WAT      O72583   1.102   8.583   0.226
24114WAT     H172584   1.140   8.625   0.309
24114WAT     H272585   1.170   8.589   0.153
24115WAT      O72586   5.041   4.357   7.141
24115WAT     H172587   4.980   4.326   7.067
24115WAT     H272588   5.130   4.380   7.103
24116WAT      O72589   7.095   0.735   5.150
24116WAT     H172590   7.033   0.810   5.175
24116WAT     H272591   7.066   0.651   5.195
24117WAT      O72592   1.950   5.313   2.328
24117WAT     H172593   2.021   5.356   2.384
24117WAT     H272594   1.875   5.283   2.387
24118WAT      O72595   5.371   3.660   1.091
24118WAT     H172596   5.397   3.644   0.996
24118WAT     H272597   5.298   3.728   1.096
24119WAT      O72598   7.477   5.151   6.341
24119WAT     H172599   7.383   5.118   6.352
24119WAT     H272600   7.523   5.096   6.271
24120WAT      O72601   2.866   1.110   6.033
24120WAT     H172602   2.859   1.069   5.941
24120WAT     H272603   2.813   1.055   6.097
24121WAT      O72604   7.338   0.099   5.313
24121WAT     H172605   7.306   0.108   5.407
24121WAT     H272606   7.334   0.188   5.267
24122WAT      O72607   6.192   4.511   0.678
24122WAT     H172608   6.125   4.476   0.744
24122WAT     H272609   6.269   4.553   0.728
24123WAT      O72610   2.361   3.286   4.538
24123WAT     H172611   2.363   3.368   4.595
24123WAT     H272612   2.399   3.307   4.448
24124WAT      O72613   2.746   9.213   1.040
24124WAT     H172614   2.772   9.299   0.996
24124WAT     H272615   2.696   9.233   1.125
24125WAT      O72616   9.126   5.850   4.864
24125WAT     H172617   9.121   5.875   4.768
24125WAT     H272618   9.036   5.818   4.895
24126WAT      O72619   0.884   4.190   2.311
24126WAT     H172620   0.809   4.158   2.369
24126WAT     H272621   0.888   4.289   2.313
24127WAT      O72622   8.610   8.022   9.548
24127WAT     H172623   8.619   8.084   9.626
24127WAT     H272624   8.666   8.056   9.472
24128WAT      O72625   2.054   0.715   2.607
24128WAT     H172626   2.007   0.628   2.595
24128WAT     H272627   2.119   0.728   2.532
24129WAT      O72628   6.452   6.296   1.443
24129WAT     H172629   6.387   6.246   1.501
24129WAT     H272630   6.434   6.394   1.450
24130WAT      O72631   1.962   8.187   3.025
24130WAT     H172632   1.904   8.246   3.082
24130WAT     H272633   1.924   8.094   3.024
24131WAT      O72634   5.317   6.238   9.116
24131WAT     H172635   5.345   6.310   9.052
24131WAT     H272636   5.335   6.149   9.075
24132WAT      O72637   1.933   3.562   9.010
24132WAT     H172638   1.966   3.588   8.919
24132WAT     H272639   1.862   3.625   9.039
24133WAT      O72640   0.602   6.123   1.705
24133WAT     H172641   0.680   6.072   1.669
24133WAT     H272642   0.561   6.178   1.632
24134WAT      O72643   4.847   2.581   9.119
24134WAT     H172644   4.834   2.495   9.169
24134WAT     H272645   4.776   2.590   9.049
24135WAT      O72646   7.594   6.343   7.786
24135WAT     H172647   7.526   6.347   7.713
24135WAT     H272648   7.611   6.435   7.821
24136WAT      O72649   3.868   4.371   4.309
24136WAT     H172650   3.935   4.443   4.291
24136WAT     H272651   3.915   4.291   4.345
24137WAT      O72652   7.510   6.250   6.222
24137WAT     H172653   7.514   6.153   6.243
24137WAT     H272654   7.594   6.278   6.175
24138WAT      O72655   2.395   3.611   2.039
24138WAT     H172656   2.340   3.531   2.017
24138WAT     H272657   2.491   3.593   2.018
24139WAT      O72658   2.193   3.832   2.007
24139WAT     H172659   2.230   3.814   2.098
24139WAT     H272660   2.266   3.828   1.939
24140WAT      O72661   4.610   2.021   3.527
24140WAT     H172662   4.575   1.956   3.459
24140WAT     H272663   4.701   1.992   3.557
24141WAT      O72664   9.167   3.155   7.188
24141WAT     H172665   9.132   3.154   7.094
24141WAT     H272666   9.134   3.237   7.235
24142WAT      O72667   7.979   9.577   2.861
24142WAT     H172668   7.930   9.495   2.834
24142WAT     H272669   7.945   9.610   2.949
24143WAT      O72670   1.717   3.886   6.385
24143WAT     H172671   1.775   3.927   6.456
24143WAT     H272672   1.669   3.958   6.336
24144WAT      O72673   0.274   6.992   8.990
24144WAT     H172674   0.334   7.071   8.998
24144WAT     H272675   0.216   7.001   8.909
24145WAT      O72676   4.094   3.734   4.191
24145WAT     H172677   4.035   3.815   4.196
24145WAT     H272678   4.162   3.738   4.265
24146WAT      O72679   9.606   6.152   8.634
24146WAT     H172680   9.546   6.214   8.584
24146WAT     H272681   9.701   6.172   8.613
24147WAT      O72682   7.835   4.107   0.175
24147WAT     H172683   7.874   4.075   0.088
24147WAT     H272684   7.772   4.039   0.210
24148WAT      O72685   1.187   2.407   9.293
24148WAT     H172686   1.127   2.341   9.339
24148WAT     H272687   1.133   2.483   9.258
24149WAT      O72688   3.804   4.762   1.688
24149WAT     H172689   3.883   4.702   1.674
24149WAT     H272690   3.762   4.783   1.599
24150WAT      O72691   4.611   1.951   2.439
24150WAT     H172692   4.559   2.036   2.425
24150WAT     H272693   4.665   1.959   2.522
24151WAT      O72694   0.747   3.804   2.342
24151WAT     H172695   0.745   3.869   2.266
24151WAT     H272696   0.752   3.711   2.305
24152WAT      O72697   5.104   7.817   9.490
24152WAT     H172698   5.022   7.807   9.433
24152WAT     H272699   5.128   7.728   9.530
24153WAT      O72700   2.166   8.217   7.027
24153WAT     H172701   2.122   8.303   7.053
24153WAT     H272702   2.118   8.140   7.069
24154WAT      O72703   7.894   2.558   1.061
24154WAT     H172704   7.867   2.642   1.108
24154WAT     H272705   7.819   2.492   1.066
24155WAT      O72706   4.571   6.331   0.380
24155WAT     H172707   4.520   6.337   0.466
24155WAT     H272708   4.538   6.253   0.327
24156WAT      O72709   0.862   2.648   1.746
24156WAT     H172710   0.767   2.615   1.749
24156WAT     H272711   0.921   2.575   1.710
24157WAT      O72712   3.070   3.281   7.918
24157WAT     H172713   3.102   3.243   7.832
24157WAT     H272714   3.148   3.311   7.973
24158WAT      O72715   1.627   1.991   6.396
24158WAT     H172716   1.558   2.020   6.330
24158WAT     H272717   1.586   1.988   6.487
24159WAT      O72718   8.993   2.784   6.017
24159WAT     H172719   8.974   2.863   6.076
24159WAT     H272720   8.942   2.705   6.051
24160WAT      O72721   7.064   7.107   0.089
24160WAT     H172722   7.085   7.040   0.018
24160WAT     H272723   7.112   7.192   0.070
24161WAT      O72724   9.003   4.402   1.692
24161WAT     H172725   9.012   4.303   1.682
24161WAT     H272726   9.082   4.439   1.740
24162WAT      O72727   7.687   8.661   0.798
24162WAT     H172728   7.703   8.756   0.824
24162WAT     H272729   7.710   8.649   0.701
24163WAT      O72730   7.588   4.883   2.160
24163WAT     H172731   7.648   4.832   2.221
24163WAT     H272732   7.578   4.977   2.194
24164WAT      O72733   5.953   6.247   2.507
24164WAT     H172734   6.033   6.198   2.472
24164WAT     H272735   5.872   6.220   2.455
24165WAT      O72736   4.986   6.258   1.181
24165WAT     H172737   4.948   6.327   1.243
24165WAT     H272738   4.966   6.167   1.215
24166WAT      O72739   4.627   0.487   1.872
24166WAT     H172740   4.690   0.478   1.949
24166WAT     H272741   4.575   0.403   1.861
24167WAT      O72742   8.975   1.243   6.773
24167WAT     H172743   9.001   1.175   6.705
24167WAT     H272744   8.941   1.325   6.727
24168WAT      O72745   6.883   5.212   6.907
24168WAT     H172746   6.922   5.271   6.836
24168WAT     H272747   6.947   5.137   6.925
24169WAT      O72748   2.009   7.060   0.829
24169WAT     H172749   2.052   6.976   0.863
24169WAT     H272750   1.996   7.053   0.730
24170WAT      O72751   2.019   8.908   8.432
24170WAT     H172752   2.062   8.908   8.342
24170WAT     H272753   1.993   9.001   8.457
24171WAT      O72754   6.016   4.014   9.687
24171WAT     H172755   5.925   4.013   9.645
24171WAT     H272756   6.074   4.080   9.640
24172WAT      O72757   3.062   4.322   8.620
24172WAT     H172758   3.143   4.268   8.643
24172WAT     H272759   3.076   4.367   8.532
24173WAT      O72760   6.020   2.068   9.238
24173WAT     H172761   6.042   2.160   9.269
24173WAT     H272762   5.947   2.030   9.295
24174WAT      O72763   7.875   1.102   5.835
24174WAT     H172764   7.972   1.124   5.833
24174WAT     H272765   7.846   1.086   5.930
24175WAT      O72766   6.473   4.149   5.752
24175WAT     H172767   6.478   4.193   5.842
24175WAT     H272768   6.394   4.185   5.702
24176WAT      O72769   5.454   4.376   2.042
24176WAT     H172770   5.522   4.443   2.014
24176WAT     H272771   5.486   4.284   2.020
24177WAT      O72772   2.458   3.052   9.005
24177WAT     H172773   2.480   3.053   8.907
24177WAT     H272774   2.369   3.094   9.020
24178WAT      O72775   4.706   2.973   2.201
24178WAT     H172776   4.739   2.951   2.109
24178WAT     H272777   4.710   3.072   2.214
24179WAT      O72778   1.493   0.967   8.375
24179WAT     H172779   1.475   0.943   8.279
24179WAT     H272780   1.589   0.995   8.385
24180WAT      O72781   4.273   1.805   6.978
24180WAT     H172782   4.326   1.833   6.897
24180WAT     H272783   4.176   1.809   6.956
24181WAT      O72784   8.435   6.637   1.493
24181WAT     H172785   8.484   6.655   1.579
24181WAT     H272786   8.337   6.639   1.510
24182WAT      O72787   7.976   3.825   0.698
24182WAT     H172788   8.064   3.830   0.745
24182WAT     H272789   7.985   3.860   0.605
24183WAT      O72790   8.000   0.585   7.377
24183WAT     H172791   8.069   0.569   7.307
24183WAT     H272792   7.950   0.669   7.356
24184WAT      O72793   3.678   6.965   5.040
24184WAT     H172794   3.710   6.917   4.959
24184WAT     H272795   3.755   7.012   5.084
24185WAT      O72796   0.446   6.540   7.715
24185WAT     H172797   0.506   6.543   7.635
24185WAT     H272798   0.468   6.616   7.776
24186WAT      O72799   3.938   3.962   4.205
24186WAT     H172800   3.858   3.961   4.265
24186WAT     H272801   3.963   4.057   4.185
24187WAT      O72802   4.044   2.682   4.211
24187WAT     H172803   4.132   2.646   4.242
24187WAT     H272804   3.983   2.605   4.192
24188WAT      O72805   4.185   5.932   8.307
24188WAT     H172806   4.239   5.941   8.391
24188WAT     H272807   4.167   5.836   8.289
24189WAT      O72808   2.478   6.392   4.193
24189WAT     H172809   2.418   6.356   4.122
24189WAT     H272810   2.428   6.460   4.248
24190WAT      O72811   5.251   8.220   7.539
24190WAT     H172812   5.248   8.151   7.611
24190WAT     H272813   5.157   8.243   7.511
24191WAT      O72814   6.459   0.637   4.606
24191WAT     H172815   6.380   0.669   4.658
24191WAT     H272816   6.478   0.542   4.630
24192WAT      O72817   8.108   4.291   5.612
24192WAT     H172818   8.075   4.236   5.535
24192WAT     H272819   8.207   4.281   5.620
24193WAT      O72820   7.604   7.925   6.465
24193WAT     H172821   7.628   8.017   6.497
24193WAT     H272822   7.630   7.858   6.535
24194WAT      O72823   4.583   2.022   0.878
24194WAT     H172824   4.617   2.093   0.817
24194WAT     H272825   4.574   1.936   0.828
24195WAT      O72826   1.490   5.934   9.617
24195WAT     H172827   1.393   5.916   9.629
24195WAT     H272828   1.507   5.966   9.524
24196WAT      O72829   3.832   5.903   0.743
24196WAT     H172830   3.842   5.994   0.783
24196WAT     H272831   3.759   5.905   0.674
24197WAT      O72832   4.244   7.450   1.489
24197WAT     H172833   4.167   7.407   1.441
24197WAT     H272834   4.212   7.532   1.535
24198WAT      O72835   1.663   3.260   7.031
24198WAT     H172836   1.632   3.310   6.951
24198WAT     H272837   1.641   3.163   7.020
24199WAT      O72838   4.487   8.661   9.293
24199WAT     H172839   4.482   8.680   9.195
24199WAT     H272840   4.426   8.724   9.342
24200WAT      O72841   0.413   9.843   9.458
24200WAT     H172842   0.375   9.811   9.372
24200WAT     H272843   0.409   9.770   9.526
24201WAT      O72844   0.430   2.976   1.122
24201WAT     H172845   0.382   2.889   1.132
24201WAT     H272846   0.422   3.028   1.208
24202WAT      O72847   2.371   5.256   2.565
24202WAT     H172848   2.347   5.311   2.645
24202WAT     H272849   2.399   5.165   2.594
24203WAT      O72850   1.773   8.729   5.718
24203WAT     H172851   1.868   8.756   5.735
24203WAT     H272852   1.769   8.666   5.641
24204WAT      O72853   5.973   8.746   2.883
24204WAT     H172854   5.916   8.667   2.860
24204WAT     H272855   5.963   8.766   2.980
24205WAT      O72856   6.358   9.546   1.780
24205WAT     H172857   6.366   9.524   1.683
24205WAT     H272858   6.449   9.555   1.820
24206WAT      O72859   6.853   5.111   2.269
24206WAT     H172860   6.809   5.186   2.318
24206WAT     H272861   6.801   5.090   2.186
24207WAT      O72862   9.792   0.042   4.510
24207WAT     H172863   9.815   0.052   4.607
24207WAT     H272864   9.811   0.128   4.462
24208WAT      O72865   4.322   6.284   5.250
24208WAT     H172866   4.371   6.223   5.312
24208WAT     H272867   4.384   6.357   5.219
24209WAT      O72868   2.773   1.528   7.330
24209WAT     H172869   2.814   1.614   7.358
24209WAT     H272870   2.829   1.452   7.364
24210WAT      O72871   6.968   3.369   3.521
24210WAT     H172872   7.064   3.391   3.540
24210WAT     H272873   6.918   3.453   3.501
24211WAT      O72874   1.344   5.944   0.872
24211WAT     H172875   1.309   5.956   0.779
24211WAT     H272876   1.280   5.987   0.937
24212WAT      O72877   9.218   4.525   0.708
24212WAT     H172878   9.149   4.464   0.668
24212WAT     H272879   9.296   4.532   0.646
24213WAT      O72880   5.967   0.059   3.982
24213WAT     H172881   5.912   0.133   4.022
24213WAT     H272882   6.004   0.001   4.055
24214WAT      O72883   3.711   1.392   5.872
24214WAT     H172884   3.761   1.459   5.926
24214WAT     H272885   3.753   1.302   5.884
24215WAT      O72886   0.646   1.467   3.284
24215WAT     H172887   0.555   1.431   3.306
24215WAT     H272888   0.715   1.398   3.304
24216WAT      O72889   1.430   7.693   7.024
24216WAT     H172890   1.339   7.668   6.993
24216WAT     H272891   1.449   7.648   7.111
24217WAT      O72892   5.648   1.831   2.626
24217WAT     H172893   5.641   1.786   2.715
24217WAT     H272894   5.659   1.929   2.640
24218WAT      O72895   0.981   5.548   9.457
24218WAT     H172896   0.905   5.530   9.520
24218WAT     H272897   0.955   5.620   9.393
24219WAT      O72898   8.797   1.432   1.614
24219WAT     H172899   8.822   1.479   1.529
24219WAT     H272900   8.859   1.355   1.628
24220WAT      O72901   8.384   0.172   8.848
24220WAT     H172902   8.341   0.190   8.937
24220WAT     H272903   8.484   0.172   8.859
24221WAT      O72904   3.130   8.133   5.899
24221WAT     H172905   3.160   8.222   5.866
24221WAT     H272906   3.045   8.143   5.951
24222WAT      O72907   5.961   0.346   2.092
24222WAT     H172908   5.996   0.418   2.032
24222WAT     H272909   6.016   0.263   2.081
24223WAT      O72910   7.988   7.025   5.492
24223WAT     H172911   7.926   6.981   5.556
24223WAT     H272912   7.937   7.091   5.436
24224WAT      O72913   4.496   1.574   2.272
24224WAT     H172914   4.521   1.559   2.177
24224WAT     H272915   4.533   1.500   2.328
24225WAT      O72916   8.656   1.592   4.206
24225WAT     H172917   8.556   1.588   4.200
24225WAT     H272918   8.686   1.687   4.215
24226WAT      O72919   1.871   2.098   1.236
24226WAT     H172920   1.927   2.049   1.169
24226WAT     H272921   1.931   2.143   1.303
24227WAT      O72922   1.293   8.831   9.519
24227WAT     H172923   1.222   8.873   9.463
24227WAT     H272924   1.251   8.784   9.596
24228WAT      O72925   0.253   1.635   9.042
24228WAT     H172926   0.241   1.654   9.140
24228WAT     H272927   0.350   1.637   9.020
24229WAT      O72928   2.590   4.184   9.312
24229WAT     H172929   2.656   4.123   9.268
24229WAT     H272930   2.558   4.142   9.398
24230WAT      O72931   8.135   6.036   3.243
24230WAT     H172932   8.039   6.063   3.231
24230WAT     H272933   8.193   6.116   3.230
24231WAT      O72934   2.366   2.793   2.760
24231WAT     H172935   2.311   2.859   2.811
24231WAT     H272936   2.462   2.821   2.763
24232WAT      O72937   1.826   4.790   2.629
24232WAT     H172938   1.870   4.712   2.673
24232WAT     H272939   1.895   4.850   2.590
24233WAT      O72940   8.458   2.499   3.922
24233WAT     H172941   8.373   2.503   3.975
24233WAT     H272942   8.524   2.564   3.960
24234WAT      O72943   4.797   1.825   0.019
24234WAT     H172944   4.860   1.777   0.079
24234WAT     H272945   4.826   1.921   0.009
24235WAT      O72946   0.141   8.478   0.864
24235WAT     H172947   0.077   8.402   0.874
24235WAT     H272948   0.151   8.525   0.951
24236WAT      O72949   2.514   4.498   1.427
24236WAT     H172950   2.445   4.536   1.366
24236WAT     H272951   2.477   4.418   1.473
24237WAT      O72952   0.390   2.065   5.757
24237WAT     H172953   0.442   2.150   5.756
24237WAT     H272954   0.341   2.055   5.670
24238WAT      O72955   0.808   7.181   6.971
24238WAT     H172956   0.818   7.279   6.989
24238WAT     H272957   0.765   7.137   7.049
24239WAT      O72958   7.912   1.557   7.063
24239WAT     H172959   7.959   1.623   7.004
24239WAT     H272960   7.919   1.466   7.024
24240WAT      O72961   1.655   8.226   3.705
24240WAT     H172962   1.698   8.270   3.784
24240WAT     H272963   1.657   8.288   3.627
24241WAT      O72964   4.961   2.310   7.581
24241WAT     H172965   4.942   2.359   7.666
24241WAT     H272966   4.969   2.375   7.505
24242WAT      O72967   3.080   6.445   0.524
24242WAT     H172968   3.146   6.385   0.478
24242WAT     H272969   3.089   6.434   0.623
24243WAT      O72970   4.358   3.739   7.733
24243WAT     H172971   4.391   3.694   7.650
24243WAT     H272972   4.390   3.689   7.814
24244WAT      O72973   3.345   3.279   3.650
24244WAT     H172974   3.369   3.322   3.737
24244WAT     H272975   3.246   3.283   3.637
24245WAT      O72976   3.936   4.348   9.793
24245WAT     H172977   3.979   4.300   9.870
24245WAT     H272978   4.007   4.391   9.738
24246WAT      O72979   2.611   7.920   7.709
24246WAT     H172980   2.688   7.969   7.669
24246WAT     H272981   2.633   7.893   7.803
24247WAT      O72982   5.200   7.350   5.849
24247WAT     H172983   5.232   7.284   5.780
24247WAT     H272984   5.216   7.313   5.940
24248WAT      O72985   5.928   7.463   6.134
24248WAT     H172986   6.005   7.431   6.190
24248WAT     H272987   5.886   7.542   6.177
24249WAT      O72988   9.526   4.222   3.473
24249WAT     H172989   9.531   4.242   3.375
24249WAT     H272990   9.540   4.307   3.525
24250WAT      O72991   6.893   2.868   6.081
24250WAT     H172992   6.941   2.925   6.148
24250WAT     H272993   6.959   2.827   6.019
24251WAT      O72994   8.407   6.773   8.228
24251WAT     H172995   8.401   6.748   8.325
24251WAT     H272996   8.331   6.833   8.204
24252WAT      O72997   7.706   2.489   5.061
24252WAT     H172998   7.768   2.453   5.131
24252WAT     H272999   7.720   2.441   4.975
24253WAT      O73000   2.864   7.211   7.972
24253WAT     H173001   2.810   7.176   7.895
24253WAT     H273002   2.812   7.201   8.056
24254WAT      O73003   5.350   1.878   7.535
24254WAT     H173004   5.327   1.947   7.466
24254WAT     H273005   5.449   1.876   7.548
24255WAT      O73006   2.339   6.529   2.498
24255WAT     H173007   2.332   6.627   2.481
24255WAT     H273008   2.296   6.507   2.586
24256WAT      O73009   1.329   7.835   5.765
24256WAT     H173010   1.280   7.867   5.846
24256WAT     H273011   1.380   7.911   5.725
24257WAT      O73012   0.150   3.718   9.520
24257WAT     H173013   0.155   3.795   9.456
24257WAT     H273014   0.072   3.731   9.582
24258WAT      O73015   4.701   2.463   3.666
24258WAT     H173016   4.786   2.429   3.626
24258WAT     H273017   4.691   2.561   3.647
24259WAT      O73018   2.536   5.060   6.897
24259WAT     H173019   2.539   4.993   6.971
24259WAT     H273020   2.518   5.014   6.810
24260WAT      O73021   3.782   0.490   9.564
24260WAT     H173022   3.751   0.394   9.569
24260WAT     H273023   3.863   0.496   9.507
24261WAT      O73024   9.833   5.396   3.855
24261WAT     H173025   9.826   5.491   3.826
24261WAT     H273026   9.791   5.336   3.786
24262WAT      O73027   7.747   5.600   8.123
24262WAT     H173028   7.754   5.637   8.216
24262WAT     H273029   7.772   5.503   8.124
24263WAT      O73030   7.683   3.506   7.155
24263WAT     H173031   7.750   3.527   7.084
24263WAT     H273032   7.627   3.428   7.126
24264WAT      O73033   0.412   9.165   5.398
24264WAT     H173034   0.445   9.163   5.304
24264WAT     H273035   0.487   9.188   5.459
24265WAT      O73036   6.680   2.590   9.647
24265WAT     H173037   6.715   2.683   9.653
24265WAT     H273038   6.750   2.530   9.608
24266WAT      O73039   1.650   3.922   1.934
24266WAT     H173040   1.688   3.896   2.023
24266WAT     H273041   1.579   3.856   1.907
24267WAT      O73042   7.852   0.509   4.404
24267WAT     H173043   7.899   0.481   4.320
24267WAT     H273044   7.856   0.608   4.413
24268WAT      O73045   6.461   4.449   1.871
24268WAT     H173046   6.529   4.456   1.797
24268WAT     H273047   6.374   4.487   1.840
24269WAT      O73048   4.051   0.552   5.649
24269WAT     H173049   3.981   0.541   5.578
24269WAT     H273050   4.141   0.538   5.609
24270WAT      O73051   6.730   8.234   6.324
24270WAT     H173052   6.705   8.179   6.404
24270WAT     H273053   6.657   8.226   6.256
24271WAT      O73054   2.577   3.918   3.789
24271WAT     H173055   2.623   3.927   3.877
24271WAT     H273056   2.646   3.908   3.717
24272WAT      O73057   7.160   3.056   5.950
24272WAT     H173058   7.193   3.105   6.031
24272WAT     H273059   7.158   3.119   5.872
24273WAT      O73060   9.123   7.599   2.470
24273WAT     H173061   9.222   7.612   2.466
24273WAT     H273062   9.087   7.588   2.377
24274WAT      O73063   7.219   7.663   7.846
24274WAT     H173064   7.272   7.635   7.767
24274WAT     H273065   7.253   7.752   7.879
24275WAT      O73066   1.715   5.254   9.512
24275WAT     H173067   1.722   5.231   9.609
24275WAT     H273068   1.799   5.227   9.465
24276WAT      O73069   3.724   4.955   8.741
24276WAT     H173070   3.780   4.882   8.703
24276WAT     H273071   3.705   4.936   8.837
24277WAT      O73072   2.254   3.057   5.027
24277WAT     H173073   2.252   3.146   4.981
24277WAT     H273074   2.320   2.998   4.981
24278WAT      O73075   3.957   7.890   7.493
24278WAT     H173076   3.973   7.803   7.446
24278WAT     H273077   3.994   7.885   7.586
24279WAT      O73078   9.194   7.088   5.740
24279WAT     H173079   9.277   7.052   5.783
24279WAT     H273080   9.211   7.182   5.709
24280WAT      O73081   7.711   7.569   8.469
24280WAT     H173082   7.708   7.553   8.567
24280WAT     H273083   7.686   7.485   8.421
24281WAT      O73084   0.802   6.805   0.119
24281WAT     H173085   0.868   6.813   0.194
24281WAT     H273086   0.823   6.873   0.049
24282WAT      O73087   3.881   8.820   8.990
24282WAT     H173088   3.880   8.725   8.959
24282WAT     H273089   3.827   8.876   8.927
24283WAT      O73090   7.883   0.816   4.163
24283WAT     H173091   7.940   0.751   4.214
24283WAT     H273092   7.790   0.779   4.154
24284WAT      O73093   3.742   4.763   3.007
24284WAT     H173094   3.826   4.806   3.040
24284WAT     H273095   3.707   4.700   3.076
24285WAT      O73096   3.456   9.039   2.545
24285WAT     H173097   3.549   9.013   2.570
24285WAT     H273098   3.396   9.026   2.624
24286WAT      O73099   2.594   5.846   0.652
24286WAT     H173100   2.691   5.866   0.645
24286WAT     H273101   2.544   5.929   0.677
24287WAT      O73102   4.685   9.729   9.794
24287WAT     H173103   4.747   9.780   9.734
24287WAT     H273104   4.735   9.701   9.876
24288WAT      O73105   6.488   0.154   1.993
24288WAT     H173106   6.513   0.060   2.016
24288WAT     H273107   6.450   0.199   2.073
24289WAT      O73108   2.676   9.841   6.606
24289WAT     H173109   2.631   9.802   6.687
24289WAT     H273110   2.656   9.785   6.526
24290WAT      O73111   8.711   0.577   8.371
24290WAT     H173112   8.631   0.608   8.321
24290WAT     H273113   8.684   0.548   8.463
24291WAT      O73114   6.001   7.155   6.553
24291WAT     H173115   6.027   7.242   6.510
24291WAT     H273116   5.902   7.147   6.554
24292WAT      O73117   9.705   1.436   5.117
24292WAT     H173118   9.728   1.353   5.067
24292WAT     H273119   9.768   1.447   5.194
24293WAT      O73120   5.708   9.140   3.336
24293WAT     H173121   5.731   9.086   3.418
24293WAT     H273122   5.630   9.199   3.357
24294WAT      O73123   4.638   7.973   2.093
24294WAT     H173124   4.662   8.039   2.165
24294WAT     H273125   4.547   7.995   2.058
24295WAT      O73126   4.428   9.240   4.306
24295WAT     H173127   4.328   9.240   4.306
24295WAT     H273128   4.461   9.191   4.225
24296WAT      O73129   7.816   8.227   0.564
24296WAT     H173130   7.874   8.303   0.594
24296WAT     H273131   7.746   8.209   0.633
24297WAT      O73132   5.010   7.854   0.684
24297WAT     H173133   5.090   7.913   0.673
24297WAT     H273134   5.033   7.778   0.744
24298WAT      O73135   7.309   0.407   2.225
24298WAT     H173136   7.290   0.490   2.278
24298WAT     H273137   7.283   0.422   2.129
24299WAT      O73138   3.324   0.142   5.018
24299WAT     H173139   3.287   0.192   4.939
24299WAT     H273140   3.353   0.207   5.088
24300WAT      O73141   9.764   4.473   6.880
24300WAT     H173142   9.746   4.487   6.978
24300WAT     H273143   9.789   4.561   6.839
24301WAT      O73144   5.587   5.689   6.620
24301WAT     H173145   5.492   5.666   6.600
24301WAT     H273146   5.646   5.653   6.548
24302WAT      O73147   2.019   7.449   6.460
24302WAT     H173148   1.922   7.427   6.472
24302WAT     H273149   2.054   7.401   6.379
24303WAT      O73150   2.628   1.131   5.135
24303WAT     H173151   2.573   1.060   5.180
24303WAT     H273152   2.624   1.120   5.036
24304WAT      O73153   3.111   3.698   4.335
24304WAT     H173154   3.033   3.709   4.397
24304WAT     H273155   3.169   3.623   4.367
24305WAT      O73156   2.967   0.386   6.299
24305WAT     H173157   3.056   0.431   6.303
24305WAT     H273158   2.970   0.311   6.233
24306WAT      O73159   8.237   5.710   5.571
24306WAT     H173160   8.269   5.620   5.600
24306WAT     H273161   8.176   5.748   5.641
24307WAT      O73162   4.846   8.182   6.522
24307WAT     H173163   4.789   8.245   6.470
24307WAT     H273164   4.906   8.132   6.459
24308WAT      O73165   1.134   2.388   0.472
24308WAT     H173166   1.219   2.431   0.443
24308WAT     H273167   1.141   2.362   0.568
24309WAT      O73168   6.004   4.352   4.747
24309WAT     H173169   5.995   4.254   4.736
24309WAT     H273170   6.089   4.373   4.796
24310WAT      O73171   9.263   8.013   0.057
24310WAT     H173172   9.330   8.062   0.001
24310WAT     H273173   9.274   7.914   0.043
24311WAT      O73174   0.472   3.556   6.426
24311WAT     H173175   0.407   3.510   6.486
24311WAT     H273176   0.561   3.512   6.433
24312WAT      O73177   4.980   5.537   8.879
24312WAT     H173178   5.060   5.556   8.822
24312WAT     H273179   5.004   5.551   8.975
24313WAT      O73180   0.368   7.129   9.458
24313WAT     H173181   0.466   7.110   9.452
24313WAT     H273182   0.316   7.052   9.422
24314WAT      O73183   3.143   4.279   7.530
24314WAT     H173184   3.212   4.334   7.576
24314WAT     H273185   3.179   4.187   7.513
24315WAT      O73186   4.923   4.630   9.854
24315WAT     H173187   4.965   4.590   9.936
24315WAT     H273188   4.853   4.568   9.819
24316WAT      O73189   6.923   4.582   5.270
24316WAT     H173190   6.830   4.544   5.270
24316WAT     H273191   6.940   4.627   5.183
24317WAT      O73192   7.616   8.507   9.403
24317WAT     H173193   7.565   8.442   9.459
24317WAT     H273194   7.659   8.458   9.327
24318WAT      O73195   4.305   0.527   2.677
24318WAT     H173196   4.299   0.443   2.623
24318WAT     H273197   4.363   0.593   2.630
24319WAT      O73198   8.971   7.737   6.851
24319WAT     H173199   8.940   7.828   6.824
24319WAT     H273200   9.062   7.721   6.813
24320WAT      O73201   7.529   7.411   4.729
24320WAT     H173202   7.593   7.346   4.771
24320WAT     H273203   7.576   7.497   4.711
24321WAT      O73204   5.536   2.679   1.522
24321WAT     H173205   5.532   2.687   1.622
24321WAT     H273206   5.518   2.769   1.481
24322WAT      O73207   9.761   3.650   1.046
24322WAT     H173208   9.675   3.610   1.076
24322WAT     H273209   9.748   3.747   1.023
24323WAT      O73210   2.189   4.563   6.762
24323WAT     H173211   2.195   4.648   6.814
24323WAT     H273212   2.148   4.491   6.819
24324WAT      O73213   7.143   6.041   5.066
24324WAT     H173214   7.192   6.024   5.152
24324WAT     H273215   7.176   6.126   5.026
24325WAT      O73216   1.680   0.657   9.725
24325WAT     H173217   1.608   0.609   9.775
24325WAT     H273218   1.685   0.752   9.757
24326WAT      O73219   6.991   2.773   5.354
24326WAT     H173220   7.020   2.798   5.262
24326WAT     H273221   7.022   2.680   5.375
24327WAT      O73222   5.933   1.091   4.383
24327WAT     H173223   5.861   1.145   4.339
24327WAT     H273224   5.923   1.096   4.482
24328WAT      O73225   4.763   8.383   6.244
24328WAT     H173226   4.673   8.388   6.287
24328WAT     H273227   4.755   8.341   6.154
24329WAT      O73228   1.959   1.630   6.241
24329WAT     H173229   1.910   1.712   6.272
24329WAT     H273230   1.971   1.633   6.142
24330WAT      O73231   0.814   5.159   7.751
24330WAT     H173232   0.777   5.067   7.755
24330WAT     H273233   0.899   5.164   7.805
24331WAT      O73234   1.893   6.686   8.685
24331WAT     H173235   1.949   6.630   8.624
24331WAT     H273236   1.808   6.711   8.639
24332WAT      O73237   8.768   1.135   9.674
24332WAT     H173238   8.761   1.123   9.773
24332WAT     H273239   8.841   1.199   9.653
24333WAT      O73240   0.709   0.439   8.277
24333WAT     H173241   0.631   0.399   8.326
24333WAT     H273242   0.676   0.482   8.193
24334WAT      O73243   1.491   7.614   5.807
24334WAT     H173244   1.463   7.582   5.897
24334WAT     H273245   1.440   7.696   5.783
24335WAT      O73246   5.453   2.943   9.064
24335WAT     H173247   5.550   2.963   9.051
24335WAT     H273248   5.437   2.846   9.051
24336WAT      O73249   5.756   4.247   6.966
24336WAT     H173250   5.783   4.180   6.898
24336WAT     H273251   5.832   4.310   6.982
24337WAT      O73252   4.545   8.584   3.660
24337WAT     H173253   4.560   8.522   3.583
24337WAT     H273254   4.601   8.555   3.737
24338WAT      O73255   3.091   2.217   7.087
24338WAT     H173256   3.128   2.205   7.179
24338WAT     H273257   3.089   2.314   7.064
24339WAT      O73258   0.382   1.539   0.163
24339WAT     H173259   0.477   1.513   0.178
24339WAT     H273260   0.376   1.608   0.092
24340WAT      O73261   2.558   0.310   4.337
24340WAT     H173262   2.646   0.351   4.363
24340WAT     H273263   2.495   0.382   4.308
24341WAT      O73264   4.123   2.574   5.867
24341WAT     H173265   4.147   2.608   5.957
24341WAT     H273266   4.191   2.603   5.800
24342WAT      O73267   1.199   5.259   7.584
24342WAT     H173268   1.282   5.203   7.588
24342WAT     H273269   1.212   5.333   7.518
24343WAT      O73270   5.831   5.688   5.303
24343WAT     H173271   5.738   5.720   5.319
24343WAT     H273272   5.894   5.765   5.307
24344WAT      O73273   6.599   6.173   3.669
24344WAT     H173274   6.522   6.231   3.641
24344WAT     H273275   6.644   6.214   3.748
24345WAT      O73276   3.079   0.751   6.085
24345WAT     H173277   3.162   0.742   6.140
24345WAT     H273278   3.000   0.757   6.145
24346WAT      O73279   6.489   2.639   5.821
24346WAT     H173280   6.443   2.550   5.826
24346WAT     H273281   6.423   2.710   5.797
24347WAT      O73282   4.749   1.342   8.653
24347WAT     H173283   4.846   1.368   8.646
24347WAT     H273284   4.693   1.414   8.613
24348WAT      O73285   7.582   0.448   1.116
24348WAT     H173286   7.529   0.424   1.197
24348WAT     H273287   7.666   0.495   1.144
24349WAT      O73288   3.759   7.460   5.103
24349WAT     H173289   3.848   7.506   5.099
24349WAT     H273290   3.697   7.501   5.036
24350WAT      O73291   8.834   0.411   6.003
24350WAT     H173292   8.933   0.416   5.988
24350WAT     H273293   8.800   0.501   6.029
24351WAT      O73294   5.764   3.925   9.300
24351WAT     H173295   5.766   4.010   9.247
24351WAT     H273296   5.761   3.847   9.238
24352WAT      O73297   5.341   3.043   7.032
24352WAT     H173298   5.263   3.102   7.012
24352WAT     H273299   5.414   3.097   7.073
24353WAT      O73300   9.084   9.365   1.717
24353WAT     H173301   9.018   9.308   1.668
24353WAT     H273302   9.145   9.307   1.771
24354WAT      O73303   2.657   4.247   0.290
24354WAT     H173304   2.755   4.261   0.303
24354WAT     H273305   2.624   4.309   0.219
24355WAT      O73306   1.120   0.713   6.448
24355WAT     H173307   1.146   0.625   6.487
24355WAT     H273308   1.189   0.781   6.470
24356WAT      O73309   8.201   3.696   7.873
24356WAT     H173310   8.220   3.793   7.857
24356WAT     H273311   8.184   3.650   7.786
24357WAT      O73312   2.616   1.545   6.148
24357WAT     H173313   2.589   1.524   6.054
24357WAT     H273314   2.541   1.593   6.194
24358WAT      O73315   2.794   4.409   7.384
24358WAT     H173316   2.702   4.384   7.356
24358WAT     H273317   2.813   4.373   7.476
24359WAT      O73318   0.229   6.364   5.028
24359WAT     H173319   0.323   6.360   5.061
24359WAT     H273320   0.228   6.346   4.929
24360WAT      O73321   4.572   6.494   6.487
24360WAT     H173322   4.585   6.506   6.586
24360WAT     H273323   4.595   6.400   6.462
24361WAT      O73324   0.775   2.254   2.951
24361WAT     H173325   0.764   2.328   3.017
24361WAT     H273326   0.782   2.167   3.000
24362WAT      O73327   1.850   0.874   6.825
24362WAT     H173328   1.865   0.966   6.860
24362WAT     H273329   1.938   0.830   6.808
24363WAT      O73330   5.001   8.977   0.593
24363WAT     H173331   5.083   8.980   0.650
24363WAT     H273332   5.026   8.956   0.499
24364WAT      O73333   5.193   8.417   4.136
24364WAT     H173334   5.274   8.474   4.146
24364WAT     H273335   5.139   8.420   4.221
24365WAT      O73336   4.733   4.815   2.398
24365WAT     H173337   4.819   4.774   2.367
24365WAT     H273338   4.754   4.886   2.466
24366WAT      O73339   0.967   8.714   4.104
24366WAT     H173340   0.942   8.617   4.114
24366WAT     H273341   0.977   8.755   4.195
24367WAT      O73342   8.439   7.174   0.029
24367WAT     H173343   8.357   7.218   0.065
24367WAT     H273344   8.427   7.156  -0.069
24368WAT      O73345   2.283   5.989   6.753
24368WAT     H173346   2.294   5.895   6.787
24368WAT     H273347   2.348   6.005   6.679
24369WAT      O73348   4.655   0.553   1.606
24369WAT     H173349   4.647   0.553   1.706
24369WAT     H273350   4.570   0.517   1.566
24370WAT      O73351   9.005   9.456   0.944
24370WAT     H173352   9.089   9.445   0.890
24370WAT     H273353   8.948   9.528   0.903
24371WAT      O73354   8.751   7.134   2.869
24371WAT     H173355   8.812   7.136   2.948
24371WAT     H273356   8.737   7.039   2.841
24372WAT      O73357   0.171   6.288   8.037
24372WAT     H173358   0.206   6.213   8.094
24372WAT     H273359   0.117   6.351   8.094
24373WAT      O73360   6.872   9.287   7.231
24373WAT     H173361   6.895   9.274   7.135
24373WAT     H273362   6.852   9.384   7.248
24374WAT      O73363   9.138   8.221   6.163
24374WAT     H173364   9.131   8.252   6.068
24374WAT     H273365   9.195   8.285   6.215
24375WAT      O73366   4.667   0.232   8.382
24375WAT     H173367   4.582   0.259   8.428
24375WAT     H273368   4.647   0.209   8.287
24376WAT      O73369   5.725   8.694   5.437
24376WAT     H173370   5.629   8.712   5.413
24376WAT     H273371   5.750   8.749   5.516
24377WAT      O73372   4.028   0.376   0.754
24377WAT     H173373   4.127   0.375   0.769
24377WAT     H273374   3.987   0.297   0.799
24378WAT      O73375   0.145   5.836   5.351
24378WAT     H173376   0.212   5.887   5.406
24378WAT     H273377   0.083   5.901   5.306
24379WAT      O73378   1.986   6.191   5.931
24379WAT     H173379   1.977   6.140   5.846
24379WAT     H273380   2.083   6.208   5.950
24380WAT      O73381   8.818   1.788   4.426
24380WAT     H173382   8.721   1.766   4.414
24380WAT     H273383   8.834   1.813   4.522
24381WAT      O73384   5.656   1.028   0.763
24381WAT     H173385   5.682   0.949   0.709
24381WAT     H273386   5.733   1.092   0.768
24382WAT      O73387   7.113   7.969   9.890
24382WAT     H173388   7.021   7.943   9.919
24382WAT     H273389   7.109   8.058   9.843
24383WAT      O73390   7.461   5.595   9.049
24383WAT     H173391   7.363   5.613   9.039
24383WAT     H273392   7.492   5.540   8.972
24384WAT      O73393   7.312   2.020   7.653
24384WAT     H173394   7.238   1.953   7.656
24384WAT     H273395   7.387   1.990   7.713
24385WAT      O73396   8.521   1.506   3.910
24385WAT     H173397   8.428   1.543   3.900
24385WAT     H273398   8.544   1.451   3.830
24386WAT      O73399   4.064   1.223   3.586
24386WAT     H173400   3.998   1.162   3.630
24386WAT     H273401   4.015   1.298   3.542
24387WAT      O73402   6.123   9.212   4.394
24387WAT     H173403   6.201   9.272   4.379
24387WAT     H273404   6.132   9.165   4.482
24388WAT      O73405   3.001   9.492   0.390
24388WAT     H173406   2.928   9.465   0.326
24388WAT     H273407   2.962   9.552   0.460
24389WAT      O73408   3.471   1.650   3.603
24389WAT     H173409   3.474   1.672   3.700
24389WAT     H273410   3.553   1.686   3.558
24390WAT      O73411   0.720   9.622   0.158
24390WAT     H173412   0.746   9.584   0.247
24390WAT     H273413   0.693   9.547   0.097
24391WAT      O73414   8.323   4.574   2.146
24391WAT     H173415   8.249   4.560   2.080
24391WAT     H273416   8.381   4.649   2.115
24392WAT      O73417   2.397   2.582   6.329
24392WAT     H173418   2.466   2.624   6.271
24392WAT     H273419   2.306   2.612   6.301
24393WAT      O73420   0.900   0.883   5.881
24393WAT     H173421   0.880   0.970   5.837
24393WAT     H273422   0.929   0.817   5.811
24394WAT      O73423   3.263   7.044   3.756
24394WAT     H173424   3.227   6.968   3.810
24394WAT     H273425   3.274   7.015   3.661
24395WAT      O73426   2.895   0.309   9.425
24395WAT     H173427   2.915   0.407   9.429
24395WAT     H273428   2.809   0.291   9.474
24396WAT      O73429   1.134   3.753   5.941
24396WAT     H173430   1.151   3.776   6.037
24396WAT     H273431   1.174   3.823   5.882
24397WAT      O73432   7.503   9.676   4.611
24397WAT     H173433   7.517   9.747   4.679
24397WAT     H273434   7.409   9.641   4.618
24398WAT      O73435   0.254   2.693   6.087
24398WAT     H173436   0.189   2.753   6.132
24398WAT     H273437   0.325   2.666   6.153
24399WAT      O73438   6.011   7.585   7.528
24399WAT     H173439   5.949   7.582   7.606
24399WAT     H273440   5.968   7.541   7.449
24400WAT      O73441   2.123   8.092   4.761
24400WAT     H173442   2.042   8.097   4.703
24400WAT     H273443   2.135   7.998   4.795
24401WAT      O73444   6.779   0.793   6.964
24401WAT     H173445   6.867   0.751   6.988
24401WAT     H273446   6.711   0.721   6.952
24402WAT      O73447   8.045   5.580   0.503
24402WAT     H173448   8.057   5.486   0.535
24402WAT     H273449   7.952   5.592   0.468
24403WAT      O73450   8.821   2.892   9.106
24403WAT     H173451   8.852   2.882   9.011
24403WAT     H273452   8.769   2.810   9.133
24404WAT      O73453   4.607   4.019   3.427
24404WAT     H173454   4.636   3.936   3.380
24404WAT     H273455   4.511   4.039   3.404
24405WAT      O73456   4.815   7.176   0.796
24405WAT     H173457   4.736   7.117   0.817
24405WAT     H273458   4.898   7.135   0.833
24406WAT      O73459   1.736   0.576   6.815
24406WAT     H173460   1.692   0.507   6.757
24406WAT     H273461   1.769   0.651   6.758
24407WAT      O73462   3.373   3.951   6.127
24407WAT     H173463   3.355   4.001   6.042
24407WAT     H273464   3.329   3.999   6.203
24408WAT      O73465   3.800   8.833   4.381
24408WAT     H173466   3.720   8.857   4.437
24408WAT     H273467   3.884   8.850   4.433
24409WAT      O73468   1.006   8.301   7.094
24409WAT     H173469   0.988   8.264   7.003
24409WAT     H273470   0.961   8.390   7.104
24410WAT      O73471   2.756   7.096   5.706
24410WAT     H173472   2.657   7.104   5.716
24410WAT     H273473   2.795   7.065   5.793
24411WAT      O73474   1.237   4.952   9.205
24411WAT     H173475   1.212   5.049   9.203
24411WAT     H273476   1.229   4.917   9.298
24412WAT      O73477   5.186   9.189   1.295
24412WAT     H173478   5.184   9.202   1.394
24412WAT     H273479   5.245   9.111   1.273
24413WAT      O73480   4.168   3.572   3.593
24413WAT     H173481   4.075   3.609   3.586
24413WAT     H273482   4.202   3.551   3.501
24414WAT      O73483   1.215   2.900   4.047
24414WAT     H173484   1.292   2.861   4.097
24414WAT     H273485   1.157   2.826   4.013
24415WAT      O73486   3.566   8.692   4.140
24415WAT     H173487   3.618   8.694   4.054
24415WAT     H273488   3.626   8.660   4.213
24416WAT      O73489   6.214   8.299   4.232
24416WAT     H173490   6.299   8.262   4.269
24416WAT     H273491   6.147   8.226   4.221
24417WAT      O73492   0.246   2.594   5.832
24417WAT     H173493   0.258   2.661   5.759
24417WAT     H273494   0.273   2.635   5.920
24418WAT      O73495   4.476   6.413   7.110
24418WAT     H173496   4.496   6.316   7.099
24418WAT     H273497   4.562   6.465   7.115
24419WAT      O73498   3.189   8.872   7.551
24419WAT     H173499   3.245   8.871   7.634
24419WAT     H273500   3.231   8.933   7.483
24420WAT      O73501   2.717   6.347   0.174
24420WAT     H173502   2.728   6.253   0.142
24420WAT     H273503   2.765   6.359   0.261
24421WAT      O73504   6.489   9.539   8.541
24421WAT     H173505   6.560   9.523   8.471
24421WAT     H273506   6.452   9.631   8.530
24422WAT      O73507   1.576   2.490   6.015
24422WAT     H173508   1.607   2.578   6.051
24422WAT     H273509   1.572   2.494   5.915
24423WAT      O73510   7.521   0.504   0.854
24423WAT     H173511   7.514   0.477   0.950
24423WAT     H273512   7.617   0.511   0.828
24424WAT      O73513   9.156   7.363   0.138
24424WAT     H173514   9.152   7.404   0.229
24424WAT     H273515   9.232   7.298   0.134
24425WAT      O73516   6.929   7.916   4.760
24425WAT     H173517   6.981   8.000   4.774
24425WAT     H273518   6.987   7.847   4.717
24426WAT      O73519   6.604   5.036   8.703
24426WAT     H173520   6.523   4.998   8.747
24426WAT     H273521   6.623   5.127   8.741
24427WAT      O73522   8.638   8.645   8.030
24427WAT     H173523   8.669   8.691   7.947
24427WAT     H273524   8.674   8.694   8.110
24428WAT      O73525   2.001   7.014   0.563
24428WAT     H173526   2.090   6.992   0.523
24428WAT     H273527   1.933   6.949   0.529
24429WAT      O73528   2.524   4.440   6.943
24429WAT     H173529   2.517   4.482   6.853
24429WAT     H273530   2.550   4.508   7.011
24430WAT      O73531   9.141   7.434   0.390
24430WAT     H173532   9.233   7.437   0.429
24430WAT     H273533   9.087   7.365   0.438
24431WAT      O73534   8.921   3.957   2.775
24431WAT     H173535   8.959   3.911   2.695
24431WAT     H273536   8.924   4.056   2.761
24432WAT      O73537   3.667   6.392   2.249
24432WAT     H173538   3.671   6.369   2.346
24432WAT     H273539   3.688   6.310   2.194
24433WAT      O73540   9.082   9.109   0.220
24433WAT     H173541   8.985   9.087   0.228
24433WAT     H273542   9.114   9.087   0.128
24434WAT      O73543   4.137   8.294   7.033
24434WAT     H173544   4.172   8.375   6.985
24434WAT     H273545   4.103   8.228   6.966
24435WAT      O73546   8.544   9.109   7.171
24435WAT     H173547   8.555   9.206   7.193
24435WAT     H273548   8.448   9.084   7.180
24436WAT      O73549   2.663   3.720   5.853
24436WAT     H173550   2.745   3.711   5.797
24436WAT     H273551   2.653   3.815   5.882
24437WAT      O73552   1.017   2.172   6.152
24437WAT     H173553   1.055   2.234   6.084
24437WAT     H273554   1.090   2.116   6.191
24438WAT      O73555   9.205   0.248   1.689
24438WAT     H173556   9.107   0.264   1.702
24438WAT     H273557   9.219   0.158   1.646
24439WAT      O73558   3.260   7.093   4.925
24439WAT     H173559   3.244   7.142   5.011
24439WAT     H273560   3.194   7.018   4.917
24440WAT      O73561   5.810   0.157   2.434
24440WAT     H173562   5.847   0.219   2.503
24440WAT     H273563   5.716   0.132   2.458
24441WAT      O73564   7.940   3.888   9.170
24441WAT     H173565   7.956   3.789   9.170
24441WAT     H273566   7.889   3.913   9.088
24442WAT      O73567   5.945   1.380   2.686
24442WAT     H173568   5.978   1.464   2.729
24442WAT     H273569   5.998   1.361   2.604
24443WAT      O73570   4.173   8.130   9.022
24443WAT     H173571   4.191   8.192   8.946
24443WAT     H273572   4.101   8.168   9.080
24444WAT      O73573   9.123   6.085   1.418
24444WAT     H173574   9.077   6.055   1.502
24444WAT     H273575   9.111   6.184   1.408
24445WAT      O73576   4.135   0.912   0.491
24445WAT     H173577   4.232   0.911   0.517
24445WAT     H273578   4.084   0.851   0.551
24446WAT      O73579   8.181   2.836   4.469
24446WAT     H173580   8.175   2.935   4.478
24446WAT     H273581   8.224   2.798   4.551
24447WAT      O73582   6.480   6.639   5.264
24447WAT     H173583   6.438   6.661   5.175
24447WAT     H273584   6.532   6.718   5.296
24448WAT      O73585   2.460   6.699   3.030
24448WAT     H173586   2.385   6.745   3.077
24448WAT     H273587   2.548   6.737   3.061
24449WAT      O73588   6.720   7.612   4.626
24449WAT     H173589   6.673   7.544   4.682
24449WAT     H273590   6.653   7.664   4.573
24450WAT      O73591   2.946   1.980   1.174
24450WAT     H173592   2.922   1.883   1.164
24450WAT     H273593   3.038   1.987   1.212
24451WAT      O73594   2.040   4.048   2.771
24451WAT     H173595   1.967   3.981   2.784
24451WAT     H273596   2.128   4.006   2.794
24452WAT      O73597   5.961   3.697   1.677
24452WAT     H173598   5.899   3.774   1.663
24452WAT     H273599   6.048   3.716   1.630
24453WAT      O73600   9.535   2.894   3.218
24453WAT     H173601   9.503   2.832   3.147
24453WAT     H273602   9.627   2.927   3.195
24454WAT      O73603   7.385   9.486   8.594
24454WAT     H173604   7.307   9.428   8.570
24454WAT     H273605   7.407   9.546   8.517
24455WAT      O73606   9.543   4.309   1.123
24455WAT     H173607   9.584   4.391   1.082
24455WAT     H273608   9.444   4.315   1.117
24456WAT      O73609   8.669   2.778   1.103
24456WAT     H173610   8.734   2.812   1.036
24456WAT     H273611   8.599   2.723   1.058
24457WAT      O73612   2.753   8.904   7.722
24457WAT     H173613   2.827   8.863   7.667
24457WAT     H273614   2.683   8.941   7.660
24458WAT      O73615   1.498   2.207   8.233
24458WAT     H173616   1.431   2.140   8.264
24458WAT     H273617   1.453   2.275   8.176
24459WAT      O73618   1.489   8.678   7.899
24459WAT     H173619   1.571   8.639   7.941
24459WAT     H273620   1.516   8.739   7.824
24460WAT      O73621   0.370   3.745   3.054
24460WAT     H173622   0.453   3.690   3.054
24460WAT     H273623   0.393   3.842   3.040
24461WAT      O73624   1.550   1.613   4.607
24461WAT     H173625   1.508   1.639   4.520
24461WAT     H273626   1.648   1.598   4.594
24462WAT      O73627   2.852   4.673   8.762
24462WAT     H173628   2.832   4.759   8.716
24462WAT     H273629   2.792   4.601   8.726
24463WAT      O73630   3.652   2.060   3.494
24463WAT     H173631   3.650   1.990   3.565
24463WAT     H273632   3.709   2.136   3.523
24464WAT      O73633   0.438   7.851   8.378
24464WAT     H173634   0.409   7.878   8.470
24464WAT     H273635   0.425   7.752   8.367
24465WAT      O73636   6.503   2.001   5.960
24465WAT     H173637   6.494   2.099   5.977
24465WAT     H273638   6.599   1.974   5.972
24466WAT      O73639   0.751   2.208   1.749
24466WAT     H173640   0.838   2.200   1.799
24466WAT     H273641   0.726   2.118   1.712
24467WAT      O73642   4.573   3.877   8.554
24467WAT     H173643   4.582   3.937   8.633
24467WAT     H273644   4.522   3.925   8.482
24468WAT      O73645   4.539   8.934   7.948
24468WAT     H173646   4.632   8.971   7.946
24468WAT     H273647   4.509   8.924   8.043
24469WAT      O73648   6.891   5.836   6.457
24469WAT     H173649   6.855   5.814   6.366
24469WAT     H273650   6.945   5.920   6.452
24470WAT      O73651   3.856   6.223   2.720
24470WAT     H173652   3.864   6.233   2.820
24470WAT     H273653   3.941   6.184   2.684
24471WAT      O73654   6.688   3.362   7.876
24471WAT     H173655   6.746   3.442   7.859
24471WAT     H273656   6.598   3.376   7.836
24472WAT      O73657   9.664   1.706   6.504
24472WAT     H173658   9.570   1.701   6.471
24472WAT     H273659   9.665   1.749   6.595
24473WAT      O73660   6.174   3.162   0.418
24473WAT     H173661   6.147   3.142   0.324
24473WAT     H273662   6.236   3.090   0.451
24474WAT      O73663   3.372   6.733   1.071
24474WAT     H173664   3.408   6.779   1.152
24474WAT     H273665   3.277   6.705   1.088
24475WAT      O73666   9.335   6.776   3.832
24475WAT     H173667   9.236   6.762   3.829
24475WAT     H273668   9.353   6.873   3.847
24476WAT      O73669   2.637   5.544   3.361
24476WAT     H173670   2.733   5.546   3.389
24476WAT     H273671   2.588   5.620   3.404
24477WAT      O73672   0.614   6.837   2.760
24477WAT     H173673   0.604   6.920   2.814
24477WAT     H273674   0.544   6.771   2.786
24478WAT      O73675   5.275   8.359   1.888
24478WAT     H173676   5.321   8.321   1.808
24478WAT     H273677   5.294   8.457   1.894
24479WAT      O73678   3.974   6.554   7.795
24479WAT     H173679   3.886   6.524   7.758
24479WAT     H273680   4.048   6.502   7.752
24480WAT      O73681   0.128   8.315   7.040
24480WAT     H173682   0.118   8.226   6.996
24480WAT     H273683   0.120   8.305   7.139
24481WAT      O73684   6.150   6.455   7.978
24481WAT     H173685   6.149   6.356   7.963
24481WAT     H273686   6.179   6.474   8.072
24482WAT      O73687   5.272   4.612   8.156
24482WAT     H173688   5.216   4.695   8.153
24482WAT     H273689   5.220   4.536   8.115
24483WAT      O73690   8.517   2.619   1.495
24483WAT     H173691   8.604   2.579   1.523
24483WAT     H273692   8.445   2.592   1.559
24484WAT      O73693   3.908   8.230   5.757
24484WAT     H173694   3.972   8.230   5.680
24484WAT     H273695   3.818   8.261   5.725
24485WAT      O73696   8.448   2.560   7.174
24485WAT     H173697   8.404   2.636   7.222
24485WAT     H273698   8.487   2.497   7.241
24486WAT      O73699   5.253   4.758   7.313
24486WAT     H173700   5.221   4.827   7.248
24486WAT     H273701   5.183   4.742   7.382
24487WAT      O73702   8.231   2.850   0.647
24487WAT     H173703   8.166   2.825   0.575
24487WAT     H273704   8.289   2.772   0.669
24488WAT      O73705   6.384   0.556   9.851
24488WAT     H173706   6.331   0.548   9.766
24488WAT     H273707   6.329   0.522   9.927
24489WAT      O73708   1.609   8.986   1.299
24489WAT     H173709   1.610   8.891   1.333
24489WAT     H273710   1.690   9.002   1.243
24490WAT      O73711   8.210   6.864   9.633
24490WAT     H173712   8.198   6.960   9.655
24490WAT     H273713   8.211   6.810   9.717
24491WAT      O73714   5.717   6.163   4.554
24491WAT     H173715   5.700   6.105   4.474
24491WAT     H273716   5.809   6.201   4.549
24492WAT      O73717   6.423   6.846   8.656
24492WAT     H173718   6.383   6.908   8.723
24492WAT     H273719   6.387   6.754   8.670
24493WAT      O73720   2.776   2.525   6.012
24493WAT     H173721   2.731   2.579   5.941
24493WAT     H273722   2.873   2.513   5.989
24494WAT      O73723   6.990   7.170   1.154
24494WAT     H173724   6.996   7.264   1.122
24494WAT     H273725   6.961   7.110   1.079
24495WAT      O73726   4.099   1.643   6.277
24495WAT     H173727   4.172   1.661   6.211
24495WAT     H273728   4.136   1.592   6.355
24496WAT      O73729   6.893   1.778   1.576
24496WAT     H173730   6.797   1.752   1.589
24496WAT     H273731   6.918   1.765   1.480
24497WAT      O73732   0.760   4.976   3.007
24497WAT     H173733   0.672   5.018   3.029
24497WAT     H273734   0.793   5.010   2.919
24498WAT      O73735   8.326   4.996   0.097
24498WAT     H173736   8.327   4.900   0.122
24498WAT     H273737   8.232   5.023   0.073
24499WAT      O73738   4.844   4.935   9.446
24499WAT     H173739   4.811   4.849   9.407
24499WAT     H273740   4.915   4.974   9.387
24500WAT      O73741   9.291   0.312   8.305
24500WAT     H173742   9.314   0.304   8.402
24500WAT     H273743   9.305   0.407   8.275
24501WAT      O73744   5.734   3.876   5.638
24501WAT     H173745   5.812   3.843   5.586
24501WAT     H273746   5.650   3.835   5.603
24502WAT      O73747   6.710   0.535   8.308
24502WAT     H173748   6.626   0.501   8.351
24502WAT     H273749   6.749   0.464   8.250
24503WAT      O73750   1.540   0.592   1.186
24503WAT     H173751   1.497   0.514   1.140
24503WAT     H273752   1.557   0.568   1.282
24504WAT      O73753   7.155   5.006   1.456
24504WAT     H173754   7.134   5.100   1.428
24504WAT     H273755   7.085   4.974   1.519
24505WAT      O73756   1.855   0.498   9.214
24505WAT     H173757   1.849   0.482   9.313
24505WAT     H273758   1.781   0.449   9.168
24506WAT      O73759   8.631   3.299   9.171
24506WAT     H173760   8.535   3.293   9.143
24506WAT     H273761   8.663   3.210   9.201
24507WAT      O73762   4.421   0.181   3.760
24507WAT     H173763   4.429   0.097   3.813
24507WAT     H273764   4.431   0.160   3.663
24508WAT      O73765   6.150   5.486   9.470
24508WAT     H173766   6.167   5.394   9.435
24508WAT     H273767   6.058   5.516   9.442
24509WAT      O73768   7.173   0.386   7.016
24509WAT     H173769   7.162   0.471   6.965
24509WAT     H273770   7.212   0.316   6.957
24510WAT      O73771   8.220   2.322   9.429
24510WAT     H173772   8.306   2.364   9.401
24510WAT     H273773   8.212   2.326   9.528
24511WAT      O73774   2.842   1.275   3.230
24511WAT     H173775   2.765   1.242   3.176
24511WAT     H273776   2.911   1.202   3.237
24512WAT      O73777   0.524   6.397   4.283
24512WAT     H173778   0.600   6.443   4.237
24512WAT     H273779   0.548   6.301   4.299
24513WAT      O73780   6.792   3.552   3.880
24513WAT     H173781   6.762   3.635   3.834
24513WAT     H273782   6.834   3.576   3.968
24514WAT      O73783   9.097   5.009   2.212
24514WAT     H173784   9.119   4.940   2.281
24514WAT     H273785   9.125   4.976   2.122
24515WAT      O73786   8.957   5.638   3.068
24515WAT     H173787   9.040   5.599   3.108
24515WAT     H273788   8.973   5.733   3.043
24516WAT      O73789   7.134   7.009   3.002
24516WAT     H173790   7.199   7.042   2.934
24516WAT     H273791   7.183   6.971   3.080
24517WAT      O73792   0.066   2.262   5.555
24517WAT     H173793   0.012   2.270   5.638
24517WAT     H273794   0.006   2.261   5.475
24518WAT      O73795   8.118   8.375   1.491
24518WAT     H173796   8.044   8.328   1.442
24518WAT     H273797   8.149   8.454   1.438
24519WAT      O73798   6.427   7.367   7.807
24519WAT     H173799   6.462   7.310   7.882
24519WAT     H273800   6.447   7.323   7.720
24520WAT      O73801   1.828   4.078   6.845
24520WAT     H173802   1.800   4.130   6.926
24520WAT     H273803   1.790   4.121   6.763
24521WAT      O73804   6.797   1.460   1.165
24521WAT     H173805   6.740   1.430   1.089
24521WAT     H273806   6.743   1.519   1.225
24522WAT      O73807   7.867   9.805   8.169
24522WAT     H173808   7.794   9.780   8.106
24522WAT     H273809   7.954   9.767   8.136
24523WAT      O73810   9.284   0.500   4.153
24523WAT     H173811   9.251   0.413   4.188
24523WAT     H273812   9.324   0.553   4.227
24524WAT      O73813   3.115   1.807   3.169
24524WAT     H173814   3.165   1.734   3.215
24524WAT     H273815   3.031   1.826   3.219
24525WAT      O73816   1.324   6.145   8.342
24525WAT     H173817   1.409   6.157   8.392
24525WAT     H273818   1.248   6.139   8.406
24526WAT      O73819   2.341   1.723   6.980
24526WAT     H173820   2.429   1.719   6.932
24526WAT     H273821   2.345   1.666   7.062
24527WAT      O73822   5.285   5.091   1.929
24527WAT     H173823   5.248   5.037   2.005
24527WAT     H273824   5.261   5.047   1.843
24528WAT      O73825   8.423   5.682   4.139
24528WAT     H173826   8.489   5.632   4.083
24528WAT     H273827   8.471   5.751   4.193
24529WAT      O73828   8.971   8.850   7.675
24529WAT     H173829   9.037   8.860   7.749
24529WAT     H273830   9.015   8.807   7.597
24530WAT      O73831   0.790   3.271   1.376
24530WAT     H173832   0.757   3.215   1.452
24530WAT     H273833   0.713   3.295   1.316
24531WAT      O73834   2.196   6.037   1.498
24531WAT     H173835   2.149   6.124   1.515
24531WAT     H273836   2.255   6.015   1.576
24532WAT      O73837   9.424   4.646   4.563
24532WAT     H173838   9.443   4.613   4.655
24532WAT     H273839   9.510   4.672   4.519
24533WAT      O73840   7.418   2.812   7.421
24533WAT     H173841   7.433   2.714   7.427
24533WAT     H273842   7.348   2.840   7.486
24534WAT      O73843   3.202   8.157   2.923
24534WAT     H173844   3.192   8.181   3.019
24534WAT     H273845   3.243   8.233   2.873
24535WAT      O73846   4.313   3.993   0.460
24535WAT     H173847   4.280   3.998   0.555
24535WAT     H273848   4.412   4.010   0.458
24536WAT      O73849   5.963   6.737   1.936
24536WAT     H173850   6.039   6.673   1.945
24536WAT     H273851   5.920   6.726   1.846
24537WAT      O73852   8.548   9.313   4.633
24537WAT     H173853   8.511   9.393   4.679
24537WAT     H273854   8.647   9.311   4.644
24538WAT      O73855   8.464   5.187   8.577
24538WAT     H173856   8.486   5.265   8.519
24538WAT     H273857   8.543   5.126   8.582
24539WAT      O73858   5.649   4.254   9.023
24539WAT     H173859   5.721   4.203   9.070
24539WAT     H273860   5.566   4.254   9.079
24540WAT      O73861   9.818   4.162   7.297
24540WAT     H173862   9.769   4.119   7.221
24540WAT     H273863   9.917   4.155   7.281
24541WAT      O73864   3.713   3.196   1.502
24541WAT     H173865   3.705   3.185   1.601
24541WAT     H273866   3.626   3.173   1.459
24542WAT      O73867   4.471   5.637   8.004
24542WAT     H173868   4.436   5.545   7.987
24542WAT     H273869   4.443   5.698   7.929
24543WAT      O73870   4.174   8.836   3.531
24543WAT     H173871   4.156   8.924   3.575
24543WAT     H273872   4.095   8.776   3.543
24544WAT      O73873   3.287   9.158   1.784
24544WAT     H173874   3.266   9.215   1.863
24544WAT     H273875   3.361   9.200   1.731
24545WAT      O73876   7.503   3.554   8.156
24545WAT     H173877   7.493   3.618   8.233
24545WAT     H273878   7.600   3.546   8.132
24546WAT      O73879   3.982   0.175   8.951
24546WAT     H173880   3.889   0.188   8.917
24546WAT     H273881   4.022   0.094   8.909
24547WAT      O73882   7.087   9.331   2.935
24547WAT     H173883   7.054   9.403   2.874
24547WAT     H273884   7.039   9.245   2.915
24548WAT      O73885   2.994   9.426   9.696
24548WAT     H173886   2.979   9.350   9.760
24548WAT     H273887   3.017   9.509   9.748
24549WAT      O73888   6.965   7.576   0.802
24549WAT     H173889   6.932   7.515   0.730
24549WAT     H273890   6.911   7.660   0.802
24550WAT      O73891   1.061   0.406   9.637
24550WAT     H173892   1.032   0.471   9.567
24550WAT     H273893   1.005   0.418   9.719
24551WAT      O73894   8.262   4.943   9.511
24551WAT     H173895   8.199   4.992   9.451
24551WAT     H273896   8.217   4.861   9.546
24552WAT      O73897   4.337   9.715   6.555
24552WAT     H173898   4.403   9.733   6.481
24552WAT     H273899   4.294   9.625   6.539
24553WAT      O73900   3.263   6.497   9.486
24553WAT     H173901   3.222   6.587   9.499
24553WAT     H273902   3.354   6.496   9.528
24554WAT      O73903   4.865   3.643   7.289
24554WAT     H173904   4.847   3.549   7.319
24554WAT     H273905   4.953   3.674   7.326
24555WAT      O73906   3.901   1.145   2.348
24555WAT     H173907   3.990   1.132   2.303
24555WAT     H273908   3.906   1.223   2.410
24556WAT      O73909   6.865   2.424   9.584
24556WAT     H173910   6.943   2.478   9.616
24556WAT     H273911   6.883   2.327   9.602
24557WAT      O73912   0.545   5.484   3.771
24557WAT     H173913   0.604   5.564   3.781
24557WAT     H273914   0.543   5.434   3.858
24558WAT      O73915   9.253   1.644   7.586
24558WAT     H173916   9.238   1.713   7.657
24558WAT     H273917   9.253   1.553   7.628
24559WAT      O73918   9.088   7.419   2.668
24559WAT     H173919   9.111   7.466   2.583
24559WAT     H273920   8.998   7.375   2.658
24560WAT      O73921   7.003   6.693   9.866
24560WAT     H173922   6.935   6.733   9.805
24560WAT     H273923   6.979   6.711   9.961
24561WAT      O73924   2.668   1.583   9.844
24561WAT     H173925   2.692   1.532   9.762
24561WAT     H273926   2.745   1.642   9.870
24562WAT      O73927   3.506   0.891   6.412
24562WAT     H173928   3.522   0.978   6.460
24562WAT     H273929   3.532   0.901   6.316
24563WAT      O73930   9.199   0.609   4.490
24563WAT     H173931   9.278   0.631   4.433
24563WAT     H273932   9.194   0.674   4.566
24564WAT      O73933   5.033   6.662   6.704
24564WAT     H173934   5.097   6.663   6.781
24564WAT     H273935   4.954   6.719   6.727
24565WAT      O73936   0.522   5.871   1.954
24565WAT     H173937   0.589   5.827   1.895
24565WAT     H273938   0.440   5.892   1.902
24566WAT      O73939   9.293   3.608   6.278
24566WAT     H173940   9.221   3.540   6.270
24566WAT     H273941   9.287   3.652   6.368
24567WAT      O73942   1.663   6.905   1.966
24567WAT     H173943   1.568   6.884   1.987
24567WAT     H273944   1.679   7.003   1.977
24568WAT      O73945   8.194   9.176   2.128
24568WAT     H173946   8.147   9.153   2.213
24568WAT     H273947   8.282   9.219   2.149
24569WAT      O73948   2.716   3.299   6.411
24569WAT     H173949   2.783   3.278   6.482
24569WAT     H273950   2.756   3.364   6.346
24570WAT      O73951   6.919   7.390   8.428
24570WAT     H173952   6.961   7.302   8.452
24570WAT     H273953   6.874   7.428   8.508
24571WAT      O73954   9.129   0.123   5.754
24571WAT     H173955   9.151   0.133   5.851
24571WAT     H273956   9.058   0.053   5.743
24572WAT      O73957   4.513   5.715   3.500
24572WAT     H173958   4.530   5.630   3.449
24572WAT     H273959   4.594   5.738   3.554
24573WAT      O73960   0.032   0.323   3.951
24573WAT     H173961  -0.058   0.362   3.972
24573WAT     H273962   0.087   0.321   4.035
24574WAT      O73963   1.582   9.613   8.537
24574WAT     H173964   1.585   9.514   8.544
24574WAT     H273965   1.593   9.653   8.628
24575WAT      O73966   4.612   8.519   1.859
24575WAT     H173967   4.708   8.536   1.881
24575WAT     H273968   4.574   8.453   1.924
24576WAT      O73969   5.560   7.725   2.247
24576WAT     H173970   5.553   7.805   2.188
24576WAT     H273971   5.652   7.686   2.240
24577WAT      O73972   2.065   3.231   6.921
24577WAT     H173973   1.998   3.299   6.948
24577WAT     H273974   2.091   3.246   6.825
24578WAT      O73975   8.120   1.163   5.194
24578WAT     H173976   8.112   1.116   5.282
24578WAT     H273977   8.198   1.127   5.143
24579WAT      O73978   1.972   6.358   8.333
24579WAT     H173979   2.044   6.304   8.379
24579WAT     H273980   1.883   6.320   8.357
24580WAT      O73981   2.862   1.957   2.316
24580WAT     H173982   2.932   2.016   2.275
24580WAT     H273983   2.868   1.865   2.277
24581WAT      O73984   2.598   2.035   9.050
24581WAT     H173985   2.635   2.073   8.965
24581WAT     H273986   2.594   1.935   9.043
24582WAT      O73987   4.825   1.768   8.614
24582WAT     H173988   4.861   1.808   8.529
24582WAT     H273989   4.902   1.739   8.672
24583WAT      O73990   4.813   2.074   2.119
24583WAT     H173991   4.770   2.156   2.081
24583WAT     H273992   4.755   1.995   2.099
24584WAT      O73993   2.556   8.211   5.363
24584WAT     H173994   2.507   8.286   5.408
24584WAT     H273995   2.537   8.212   5.265
24585WAT      O73996   1.409   0.224   4.630
24585WAT     H173997   1.331   0.202   4.571
24585WAT     H273998   1.378   0.234   4.724
24586WAT      O73999   5.162   8.531   6.308
24586WAT     H174000   5.136   8.590   6.232
24586WAT     H274001   5.119   8.442   6.297
24587WAT      O74002   6.544   0.624   1.546
24587WAT     H174003   6.503   0.533   1.547
24587WAT     H274004   6.572   0.647   1.453
24588WAT      O74005   6.411   4.949   0.785
24588WAT     H174006   6.428   5.046   0.772
24588WAT     H274007   6.312   4.934   0.798
24589WAT      O74008   9.623   2.496   7.505
24589WAT     H174009   9.610   2.592   7.528
24589WAT     H274010   9.650   2.488   7.409
24590WAT      O74011   2.345   8.079   7.919
24590WAT     H174012   2.440   8.109   7.931
24590WAT     H274013   2.328   8.000   7.978
24591WAT      O74014   0.675   8.669   7.314
24591WAT     H174015   0.755   8.677   7.374
24591WAT     H274016   0.696   8.710   7.225
24592WAT      O74017   5.121   3.602   3.193
24592WAT     H174018   5.112   3.651   3.279
24592WAT     H274019   5.073   3.515   3.198
24593WAT      O74020   8.595   1.494   2.035
24593WAT     H174021   8.685   1.450   2.038
24593WAT     H274022   8.547   1.466   1.953
24594WAT      O74023   0.987   7.081   1.917
24594WAT     H174024   0.989   7.066   2.016
24594WAT     H274025   1.080   7.097   1.883
24595WAT      O74026   9.783   5.223   1.046
24595WAT     H174027   9.717   5.154   1.075
24595WAT     H274028   9.750   5.314   1.072
24596WAT      O74029   8.839   7.522   0.507
24596WAT     H174030   8.919   7.544   0.563
24596WAT     H274031   8.857   7.549   0.412
24597WAT      O74032   7.977   1.596   2.833
24597WAT     H174033   8.065   1.548   2.836
24597WAT     H274034   7.904   1.530   2.817
24598WAT      O74035   3.757   5.236   3.469
24598WAT     H174036   3.827   5.167   3.454
24598WAT     H274037   3.667   5.199   3.448
24599WAT      O74038   3.181   6.435   3.234
24599WAT     H174039   3.106   6.484   3.278
24599WAT     H274040   3.173   6.444   3.135
24600WAT      O74041   6.284   1.709   0.603
24600WAT     H174042   6.256   1.632   0.546
24600WAT     H274043   6.380   1.696   0.631
24601WAT      O74044   5.677   5.380   8.036
24601WAT     H174045   5.683   5.472   7.999
24601WAT     H274046   5.717   5.315   7.971
24602WAT      O74047   6.552   6.828   1.628
24602WAT     H174048   6.551   6.928   1.619
24602WAT     H274049   6.615   6.802   1.701
24603WAT      O74050   2.734   8.042   3.233
24603WAT     H174051   2.812   7.982   3.216
24603WAT     H274052   2.651   8.000   3.195
24604WAT      O74053   8.971   7.537   6.047
24604WAT     H174054   8.919   7.461   6.085
24604WAT     H274055   9.001   7.597   6.121
24605WAT      O74056   3.380   8.374   0.432
24605WAT     H174057   3.424   8.398   0.519
24605WAT     H274058   3.429   8.299   0.389
24606WAT      O74059   9.591   2.610   6.876
24606WAT     H174060   9.551   2.658   6.798
24606WAT     H274061   9.560   2.653   6.961
24607WAT      O74062   6.791   4.715   8.287
24607WAT     H174063   6.842   4.666   8.359
24607WAT     H274064   6.711   4.662   8.261
24608WAT      O74065   1.826   2.565   9.524
24608WAT     H174066   1.854   2.499   9.455
24608WAT     H274067   1.906   2.596   9.575
24609WAT      O74068   0.724   7.985   3.682
24609WAT     H174069   0.678   8.053   3.625
24609WAT     H274070   0.823   7.989   3.666
24610WAT      O74071   4.535   6.923   5.537
24610WAT     H174072   4.560   6.856   5.607
24610WAT     H274073   4.441   6.909   5.508
24611WAT      O74074   2.988   9.357   3.250
24611WAT     H174075   2.960   9.453   3.250
24611WAT     H274076   2.908   9.298   3.237
24612WAT      O74077   3.865   0.950   8.993
24612WAT     H174078   3.817   0.985   9.073
24612WAT     H274079   3.943   0.895   9.022
24613WAT      O74080   3.255   6.493   2.962
24613WAT     H174081   3.206   6.578   2.941
24613WAT     H274082   3.215   6.418   2.910
24614WAT      O74083   6.276   5.316   0.831
24614WAT     H174084   6.346   5.266   0.881
24614WAT     H274085   6.201   5.341   0.894
24615WAT      O74086   7.587   8.741   9.717
24615WAT     H174087   7.592   8.838   9.694
24615WAT     H274088   7.505   8.701   9.675
24616WAT      O74089   7.757   5.060   2.413
24616WAT     H174090   7.738   4.963   2.398
24616WAT     H274091   7.826   5.090   2.347
24617WAT      O74092   1.461   1.811   4.755
24617WAT     H174093   1.509   1.727   4.731
24617WAT     H274094   1.527   1.886   4.764
24618WAT      O74095   7.419   5.894   6.953
24618WAT     H174096   7.513   5.888   6.987
24618WAT     H274097   7.391   5.805   6.917
24619WAT      O74098   7.742   8.563   8.866
24619WAT     H174099   7.723   8.486   8.805
24619WAT     H274100   7.840   8.581   8.867
24620WAT      O74101   9.067   5.046   8.490
24620WAT     H174102   9.137   4.977   8.509
24620WAT     H274103   9.093   5.133   8.532
24621WAT      O74104   0.650   8.825   8.704
24621WAT     H174105   0.614   8.830   8.611
24621WAT     H274106   0.669   8.729   8.727
24622WAT      O74107   4.212   1.911   3.185
24622WAT     H174108   4.113   1.923   3.188
24622WAT     H274109   4.251   1.970   3.114
24623WAT      O74110   0.901   9.667   9.377
24623WAT     H174111   0.909   9.581   9.426
24623WAT     H274112   0.832   9.725   9.421
24624WAT      O74113   3.557   9.066   7.019
24624WAT     H174114   3.569   9.029   6.927
24624WAT     H274115   3.646   9.075   7.064
24625WAT      O74116   1.672   7.857   1.865
24625WAT     H174117   1.769   7.844   1.884
24625WAT     H274118   1.661   7.898   1.774
24626WAT      O74119   8.744   7.867   7.619
24626WAT     H174120   8.736   7.960   7.584
24626WAT     H274121   8.707   7.802   7.552
24627WAT      O74122   4.056   3.240   2.838
24627WAT     H174123   3.966   3.200   2.821
24627WAT     H274124   4.128   3.178   2.806
24628WAT      O74125   3.879   8.427   9.640
24628WAT     H174126   3.977   8.450   9.633
24628WAT     H274127   3.868   8.328   9.635
24629WAT      O74128   8.400   7.181   8.843
24629WAT     H174129   8.350   7.104   8.804
24629WAT     H274130   8.341   7.231   8.906
24630WAT      O74131   4.355   5.941   5.329
24630WAT     H174132   4.392   5.850   5.349
24630WAT     H274133   4.401   6.009   5.385
24631WAT      O74134   6.931   1.250   3.656
24631WAT     H174135   6.999   1.276   3.588
24631WAT     H274136   6.881   1.331   3.686
24632WAT      O74137   2.657   0.622   4.811
24632WAT     H174138   2.584   0.668   4.861
24632WAT     H274139   2.635   0.620   4.713
24633WAT      O74140   5.602   7.653   5.564
24633WAT     H174141   5.686   7.673   5.615
24633WAT     H274142   5.536   7.608   5.625
24634WAT      O74143   2.166   4.458   2.523
24634WAT     H174144   2.104   4.501   2.458
24634WAT     H274145   2.144   4.361   2.531
24635WAT      O74146   9.711   5.476   1.145
24635WAT     H174147   9.773   5.524   1.208
24635WAT     H274148   9.617   5.483   1.179
24636WAT      O74149   3.503   5.356   8.480
24636WAT     H174150   3.561   5.280   8.510
24636WAT     H274151   3.554   5.413   8.415
24637WAT      O74152   2.718   5.120   4.425
24637WAT     H174153   2.721   5.038   4.368
24637WAT     H274154   2.625   5.133   4.459
24638WAT      O74155   1.277   8.808   1.732
24638WAT     H174156   1.345   8.737   1.713
24638WAT     H274157   1.321   8.884   1.778
24639WAT      O74158   8.299   2.897   8.904
24639WAT     H174159   8.224   2.938   8.853
24639WAT     H274160   8.329   2.813   8.858
24640WAT      O74161   5.376   3.851   6.086
24640WAT     H174162   5.294   3.793   6.082
24640WAT     H274163   5.350   3.943   6.115
24641WAT      O74164   3.188   1.083   3.854
24641WAT     H174165   3.186   1.160   3.789
24641WAT     H274166   3.107   1.086   3.911
24642WAT      O74167   8.144   1.816   2.864
24642WAT     H174168   8.137   1.842   2.960
24642WAT     H274169   8.078   1.744   2.844
24643WAT      O74170   8.610   0.683   7.746
24643WAT     H174171   8.587   0.638   7.660
24643WAT     H274172   8.526   0.700   7.798
24644WAT      O74173   2.107   3.535   9.625
24644WAT     H174174   2.029   3.558   9.683
24644WAT     H274175   2.083   3.549   9.529
24645WAT      O74176   1.027   0.655   7.045
24645WAT     H174177   0.944   0.632   7.097
24645WAT     H274178   1.047   0.582   6.980
24646WAT      O74179   3.672   9.174   7.594
24646WAT     H174180   3.758   9.203   7.636
24646WAT     H274181   3.686   9.087   7.546
24647WAT      O74182   3.127   7.781   4.273
24647WAT     H174183   3.101   7.772   4.177
24647WAT     H274184   3.205   7.722   4.293
24648WAT      O74185   0.108   5.022   6.136
24648WAT     H174186   0.084   4.933   6.096
24648WAT     H274187   0.063   5.095   6.085
24649WAT      O74188   4.054   2.240   0.261
24649WAT     H174189   4.002   2.236   0.346
24649WAT     H274190   4.107   2.156   0.251
24650WAT      O74191   3.911   8.731   3.601
24650WAT     H174192   3.861   8.652   3.635
24650WAT     H274193   3.850   8.789   3.547
24651WAT      O74194   1.667   7.210   0.206
24651WAT     H174195   1.664   7.303   0.242
24651WAT     H274196   1.623   7.148   0.270
24652WAT      O74197   9.128   7.047   3.714
24652WAT     H174198   9.221   7.051   3.751
24652WAT     H274199   9.131   7.057   3.615
24653WAT      O74200   4.151   8.998   2.155
24653WAT     H174201   4.217   8.987   2.081
24653WAT     H274202   4.171   9.083   2.205
24654WAT      O74203   3.076   2.443   6.295
24654WAT     H174204   2.983   2.469   6.320
24654WAT     H274205   3.072   2.369   6.227
24655WAT      O74206   8.433   0.812   6.346
24655WAT     H174207   8.464   0.895   6.301
24655WAT     H274208   8.342   0.828   6.386
24656WAT      O74209   8.703   5.385   7.923
24656WAT     H174210   8.640   5.344   7.857
24656WAT     H274211   8.787   5.411   7.876
24657WAT      O74212   4.378   8.972   2.337
24657WAT     H174213   4.429   9.039   2.391
24657WAT     H274214   4.281   8.994   2.341
24658WAT      O74215   2.417   6.904   8.156
24658WAT     H174216   2.379   6.824   8.109
24658WAT     H274217   2.504   6.930   8.114
24659WAT      O74218   8.799   9.560   2.934
24659WAT     H174219   8.805   9.510   3.020
24659WAT     H274220   8.710   9.605   2.927
24660WAT      O74221   7.914   6.878   1.143
24660WAT     H174222   8.007   6.895   1.110
24660WAT     H274223   7.855   6.953   1.114
24661WAT      O74224   0.330   1.875   1.675
24661WAT     H174225   0.295   1.784   1.699
24661WAT     H274226   0.423   1.885   1.711
24662WAT      O74227   3.838   9.304   8.724
24662WAT     H174228   3.862   9.321   8.819
24662WAT     H274229   3.917   9.322   8.665
24663WAT      O74230   2.320   4.829   4.650
24663WAT     H174231   2.314   4.751   4.712
24663WAT     H274232   2.361   4.799   4.563
24664WAT      O74233   3.649   6.047   3.066
24664WAT     H174234   3.610   5.957   3.045
24664WAT     H274235   3.603   6.084   3.147
24665WAT      O74236   9.316   9.008   5.920
24665WAT     H174237   9.231   8.972   5.882
24665WAT     H274238   9.392   8.951   5.890
24666WAT      O74239   8.049   9.151   7.053
24666WAT     H174240   7.969   9.175   6.999
24666WAT     H274241   8.093   9.235   7.086
24667WAT      O74242   1.149   4.817   2.466
24667WAT     H174243   1.153   4.734   2.410
24667WAT     H274244   1.218   4.812   2.538
24668WAT      O74245   6.652   6.990   5.603
24668WAT     H174246   6.636   6.959   5.509
24668WAT     H274247   6.742   6.959   5.633
24669WAT      O74248   8.003   2.448   0.684
24669WAT     H174249   7.905   2.443   0.705
24669WAT     H274250   8.054   2.463   0.768
24670WAT      O74251   8.566   4.579   0.583
24670WAT     H174252   8.470   4.553   0.592
24670WAT     H274253   8.595   4.566   0.488
24671WAT      O74254   1.282   2.559   7.277
24671WAT     H174255   1.205   2.595   7.225
24671WAT     H274256   1.274   2.587   7.373
24672WAT      O74257   2.417   7.327   5.909
24672WAT     H174258   2.509   7.336   5.870
24672WAT     H274259   2.414   7.373   5.998
24673WAT      O74260   3.482   3.254   0.958
24673WAT     H174261   3.560   3.301   1.001
24673WAT     H274262   3.397   3.299   0.987
24674WAT      O74263   8.815   1.912   9.727
24674WAT     H174264   8.790   1.972   9.652
24674WAT     H274265   8.760   1.828   9.723
24675WAT      O74266   5.004   4.030   4.738
24675WAT     H174267   5.006   3.979   4.824
24675WAT     H274268   4.967   4.122   4.755
24676WAT      O74269   1.187   8.151   1.967
24676WAT     H174270   1.184   8.232   1.907
24676WAT     H274271   1.122   8.163   2.041
24677WAT      O74272   3.323   9.722   1.563
24677WAT     H174273   3.227   9.745   1.581
24677WAT     H274274   3.357   9.662   1.635
24678WAT      O74275   5.868   5.200   3.231
24678WAT     H174276   5.876   5.177   3.134
24678WAT     H274277   5.791   5.261   3.245
24679WAT      O74278   0.193   0.037   9.881
24679WAT     H174279   0.269  -0.024   9.905
24679WAT     H274280   0.209   0.076   9.790
24680WAT      O74281   3.344   5.256   6.683
24680WAT     H174282   3.277   5.322   6.650
24680WAT     H274283   3.297   5.174   6.716
24681WAT      O74284   6.991   1.483   1.596
24681WAT     H174285   6.950   1.436   1.519
24681WAT     H274286   6.924   1.544   1.639
24682WAT      O74287   8.257   2.488   4.125
24682WAT     H174288   8.220   2.580   4.138
24682WAT     H274289   8.330   2.472   4.190
24683WAT      O74290   4.523   3.877   5.807
24683WAT     H174291   4.453   3.863   5.738
24683WAT     H274292   4.526   3.798   5.868
24684WAT      O74293   9.412   8.237   3.815
24684WAT     H174294   9.337   8.228   3.749
24684WAT     H274295   9.402   8.323   3.864
24685WAT      O74296   6.211   6.004   3.406
24685WAT     H174297   6.180   5.969   3.494
24685WAT     H274298   6.133   6.038   3.354
24686WAT      O74299   1.529   6.508   0.158
24686WAT     H174300   1.557   6.604   0.155
24686WAT     H274301   1.611   6.450   0.159
24687WAT      O74302   6.779   2.310   6.022
24687WAT     H174303   6.847   2.292   6.093
24687WAT     H274304   6.825   2.334   5.937
24688WAT      O74305   8.030   5.421   4.047
24688WAT     H174306   7.988   5.331   4.034
24688WAT     H274307   8.128   5.410   4.062
24689WAT      O74308   5.106   0.812   5.786
24689WAT     H174309   5.204   0.816   5.808
24689WAT     H274310   5.054   0.855   5.860
24690WAT      O74311   7.326   9.123   6.410
24690WAT     H174312   7.246   9.065   6.426
24690WAT     H274313   7.359   9.110   6.317
24691WAT      O74314   0.338   6.325   5.986
24691WAT     H174315   0.370   6.368   5.902
24691WAT     H274316   0.317   6.396   6.054
24692WAT      O74317   8.985   5.325   7.195
24692WAT     H174318   9.041   5.318   7.277
24692WAT     H274319   8.955   5.420   7.182
24693WAT      O74320   3.479   6.611   5.515
24693WAT     H174321   3.456   6.668   5.594
24693WAT     H274322   3.395   6.581   5.470
24694WAT      O74323   3.581   9.414   7.142
24694WAT     H174324   3.502   9.353   7.140
24694WAT     H274325   3.665   9.360   7.140
24695WAT      O74326   0.449   4.973   5.491
24695WAT     H174327   0.350   4.978   5.481
24695WAT     H274328   0.492   5.035   5.425
24696WAT      O74329   8.016   6.708   4.008
24696WAT     H174330   7.985   6.621   3.970
24696WAT     H274331   8.025   6.776   3.934
24697WAT      O74332   7.750   8.812   5.369
24697WAT     H174333   7.786   8.869   5.444
24697WAT     H274334   7.796   8.723   5.371
24698WAT      O74335   3.463   4.406   2.112
24698WAT     H174336   3.440   4.476   2.045
24698WAT     H274337   3.391   4.402   2.181
24699WAT      O74338   9.200   0.069   0.155
24699WAT     H174339   9.256  -0.010   0.179
24699WAT     H274340   9.240   0.152   0.194
24700WAT      O74341   8.880   9.549   4.991
24700WAT     H174342   8.891   9.633   4.938
24700WAT     H274343   8.830   9.570   5.075
24701WAT      O74344   9.145   7.958   1.578
24701WAT     H174345   9.146   7.920   1.486
24701WAT     H274346   9.150   8.058   1.573
24702WAT      O74347   8.421   0.833   9.289
24702WAT     H174348   8.497   0.869   9.235
24702WAT     H274349   8.419   0.733   9.281
24703WAT      O74350   4.841   7.514   4.455
24703WAT     H174351   4.885   7.429   4.426
24703WAT     H274352   4.803   7.561   4.375
24704WAT      O74353   8.173   2.678   3.086
24704WAT     H174354   8.197   2.583   3.069
24704WAT     H274355   8.082   2.682   3.127
24705WAT      O74356   7.163   5.964   0.094
24705WAT     H174357   7.080   6.017   0.078
24705WAT     H274358   7.208   5.947   0.006
24706WAT      O74359   1.313   4.355   5.606
24706WAT     H174360   1.334   4.348   5.703
24706WAT     H274361   1.394   4.334   5.552
24707WAT      O74362   9.514   8.806   6.154
24707WAT     H174363   9.460   8.742   6.099
24707WAT     H274364   9.494   8.791   6.251
24708WAT      O74365   9.534   5.608   2.156
24708WAT     H174366   9.463   5.668   2.119
24708WAT     H274367   9.609   5.602   2.090
24709WAT      O74368   3.518   9.635   9.453
24709WAT     H174369   3.446   9.635   9.521
24709WAT     H274370   3.492   9.576   9.376
24710WAT      O74371   1.676   7.478   0.283
24710WAT     H174372   1.716   7.502   0.372
24710WAT     H274373   1.742   7.498   0.210
24711WAT      O74374   8.761   7.022   9.185
24711WAT     H174375   8.682   6.966   9.211
24711WAT     H274376   8.732   7.094   9.122
24712WAT      O74377   7.601   2.710   2.850
24712WAT     H174378   7.621   2.679   2.756
24712WAT     H274379   7.503   2.699   2.867
24713WAT      O74380   1.051   8.925   9.408
24713WAT     H174381   0.980   8.995   9.405
24713WAT     H274382   1.013   8.837   9.378
24714WAT      O74383   0.877   7.884   5.698
24714WAT     H174384   0.856   7.808   5.760
24714WAT     H274385   0.910   7.962   5.751
24715WAT      O74386   3.047   8.470   4.948
24715WAT     H174387   2.973   8.486   4.882
24715WAT     H274388   3.126   8.526   4.923
24716WAT      O74389   6.570   5.551   2.254
24716WAT     H174390   6.525   5.604   2.326
24716WAT     H274391   6.506   5.482   2.218
24717WAT      O74392   5.954   4.309   2.736
24717WAT     H174393   5.925   4.366   2.814
24717WAT     H274394   5.878   4.251   2.708
24718WAT      O74395   1.800   4.444   4.600
24718WAT     H174396   1.834   4.412   4.512
24718WAT     H274397   1.851   4.525   4.628
24719WAT      O74398   0.284   0.531   0.925
24719WAT     H174399   0.225   0.592   0.873
24719WAT     H274400   0.371   0.577   0.943
24720WAT      O74401   9.694   3.608   2.524
24720WAT     H174402   9.720   3.664   2.445
24720WAT     H274403   9.666   3.667   2.599
24721WAT      O74404   1.564   9.058   2.595
24721WAT     H174405   1.569   9.110   2.680
24721WAT     H274406   1.551   9.120   2.518
24722WAT      O74407   7.539   6.561   9.385
24722WAT     H174408   7.624   6.615   9.390
24722WAT     H274409   7.546   6.484   9.449
24723WAT      O74410   9.601   6.720   0.361
24723WAT     H174411   9.694   6.757   0.353
24723WAT     H274412   9.561   6.751   0.447
24724WAT      O74413   9.308   9.411   5.490
24724WAT     H174414   9.249   9.332   5.508
24724WAT     H274415   9.401   9.390   5.519
24725WAT      O74416   6.528   0.753   3.958
24725WAT     H174417   6.492   0.703   3.879
24725WAT     H274418   6.460   0.820   3.988
24726WAT      O74419   0.151   7.839   4.176
24726WAT     H174420   0.216   7.776   4.134
24726WAT     H274421   0.099   7.887   4.105
24727WAT      O74422   9.483   0.351   6.780
24727WAT     H174423   9.423   0.279   6.814
24727WAT     H274424   9.531   0.318   6.699
24728WAT      O74425   7.181   6.747   2.721
24728WAT     H174426   7.184   6.801   2.636
24728WAT     H274427   7.249   6.674   2.717
24729WAT      O74428   6.175  -0.001   7.490
24729WAT     H174429   6.213   0.059   7.420
24729WAT     H274430   6.081   0.026   7.510
24730WAT      O74431   4.405   4.308   1.252
24730WAT     H174432   4.479   4.307   1.184
24730WAT     H274433   4.432   4.252   1.331
24731WAT      O74434   7.824   7.313   9.477
24731WAT     H174435   7.778   7.344   9.394
24731WAT     H274436   7.902   7.256   9.452
24732WAT      O74437   6.450   5.355   4.320
24732WAT     H174438   6.359   5.395   4.309
24732WAT     H274439   6.516   5.409   4.267
24733WAT      O74440   1.692   8.054   7.619
24733WAT     H174441   1.788   8.027   7.624
24733WAT     H274442   1.649   8.037   7.708
24734WAT      O74443   3.942   3.362   5.283
24734WAT     H174444   3.969   3.403   5.196
24734WAT     H274445   3.852   3.319   5.272
24735WAT      O74446   5.791   4.672   7.056
24735WAT     H174447   5.846   4.712   6.983
24735WAT     H274448   5.825   4.580   7.077
24736WAT      O74449   5.296   7.973   6.391
24736WAT     H174450   5.315   8.070   6.373
24736WAT     H274451   5.343   7.946   6.475
24737WAT      O74452   4.234   9.477   4.756
24737WAT     H174453   4.140   9.478   4.724
24737WAT     H274454   4.264   9.383   4.771
24738WAT      O74455   0.802   9.360   7.504
24738WAT     H174456   0.772   9.392   7.594
24738WAT     H274457   0.882   9.412   7.475
24739WAT      O74458   4.824   8.472   7.718
24739WAT     H174459   4.804   8.386   7.672
24739WAT     H274460   4.757   8.541   7.692
24740WAT      O74461   2.800   6.275   9.026
24740WAT     H174462   2.853   6.304   9.105
24740WAT     H274463   2.711   6.240   9.056
24741WAT      O74464   1.367   9.706   3.678
24741WAT     H174465   1.271   9.687   3.657
24741WAT     H274466   1.396   9.788   3.629
24742WAT      O74467   4.782   8.270   1.091
24742WAT     H174468   4.722   8.230   1.022
24742WAT     H274469   4.846   8.200   1.125
24743WAT      O74470   8.510   5.817   2.442
24743WAT     H174471   8.581   5.789   2.507
24743WAT     H274472   8.536   5.904   2.400
24744WAT      O74473   6.286   2.179   6.154
24744WAT     H174474   6.369   2.210   6.107
24744WAT     H274475   6.218   2.152   6.086
24745WAT      O74476   1.604   3.511   4.855
24745WAT     H174477   1.555   3.464   4.929
24745WAT     H274478   1.611   3.608   4.876
24746WAT      O74479   7.236   2.907   5.252
24746WAT     H174480   7.275   2.998   5.266
24746WAT     H274481   7.245   2.854   5.336
24747WAT      O74482   2.242   1.852   6.515
24747WAT     H174483   2.170   1.918   6.496
24747WAT     H274484   2.301   1.886   6.588
24748WAT      O74485   4.530   3.609   8.574
24748WAT     H174486   4.556   3.706   8.570
24748WAT     H274487   4.558   3.571   8.662
24749WAT      O74488   0.345   5.143   0.628
24749WAT     H174489   0.352   5.176   0.534
24749WAT     H274490   0.360   5.219   0.691
24750WAT      O74491   0.019   7.833   7.050
24750WAT     H174492  -0.044   7.796   7.118
24750WAT     H274493   0.003   7.787   6.962
24751WAT      O74494   8.325   8.243   1.601
24751WAT     H174495   8.241   8.285   1.566
24751WAT     H274496   8.363   8.298   1.675
24752WAT      O74497   1.170   9.072   1.067
24752WAT     H174498   1.138   9.102   1.156
24752WAT     H274499   1.190   9.152   1.010
24753WAT      O74500   6.397   5.814   5.897
24753WAT     H174501   6.456   5.890   5.924
24753WAT     H274502   6.450   5.729   5.896
24754WAT      O74503   3.240   2.869   6.569
24754WAT     H174504   3.320   2.912   6.528
24754WAT     H274505   3.223   2.909   6.659
24755WAT      O74506   9.436   2.363   7.641
24755WAT     H174507   9.512   2.413   7.600
24755WAT     H274508   9.425   2.391   7.736
24756WAT      O74509   1.818   9.034   8.239
24756WAT     H174510   1.842   8.938   8.228
24756WAT     H274511   1.815   9.078   8.149
24757WAT      O74512   6.557   3.687   8.906
24757WAT     H174513   6.506   3.770   8.881
24757WAT     H274514   6.609   3.704   8.989
24758WAT      O74515   7.785   9.334   1.071
24758WAT     H174516   7.862   9.274   1.052
24758WAT     H274517   7.755   9.377   0.987
24759WAT      O74518   6.996   8.147   5.917
24759WAT     H174519   7.045   8.061   5.901
24759WAT     H274520   6.919   8.131   5.978
24760WAT      O74521   2.845   6.360   0.425
24760WAT     H174522   2.777   6.422   0.466
24760WAT     H274523   2.935   6.378   0.465
24761WAT      O74524   1.907   6.021   5.685
24761WAT     H174525   1.914   5.950   5.615
24761WAT     H274526   1.875   6.106   5.643
24762WAT      O74527   4.844   2.960   3.919
24762WAT     H174528   4.836   2.860   3.921
24762WAT     H274529   4.898   2.988   3.840
24763WAT      O74530   6.627   9.156   6.044
24763WAT     H174531   6.638   9.254   6.025
24763WAT     H274532   6.665   9.136   6.134
24764WAT      O74533   8.146   2.386   1.606
24764WAT     H174534   8.205   2.467   1.604
24764WAT     H274535   8.054   2.411   1.577
24765WAT      O74536   8.815   8.529   2.482
24765WAT     H174537   8.818   8.509   2.580
24765WAT     H274538   8.852   8.451   2.431
24766WAT      O74539   2.983   1.885   5.711
24766WAT     H174540   3.048   1.960   5.725
24766WAT     H274541   2.915   1.886   5.785
24767WAT      O74542   4.528   6.012   7.690
24767WAT     H174543   4.596   6.000   7.762
24767WAT     H274544   4.513   6.109   7.674
24768WAT      O74545   6.161   8.146   4.809
24768WAT     H174546   6.176   8.157   4.711
24768WAT     H274547   6.246   8.167   4.858
24769WAT      O74548   8.968   5.847   6.333
24769WAT     H174549   8.967   5.752   6.365
24769WAT     H274550   8.898   5.899   6.382
24770WAT      O74551   8.834   3.722   4.725
24770WAT     H174552   8.753   3.698   4.672
24770WAT     H274553   8.810   3.792   4.792
24771WAT      O74554   3.541   1.550   7.568
24771WAT     H174555   3.573   1.457   7.586
24771WAT     H274556   3.445   1.558   7.598
24772WAT      O74557   1.862   1.399   7.476
24772WAT     H174558   1.801   1.445   7.539
24772WAT     H274559   1.844   1.300   7.478
24773WAT      O74560   7.841   3.094   2.817
24773WAT     H174561   7.883   3.025   2.875
24773WAT     H274562   7.741   3.084   2.819
24774WAT      O74563   1.571   0.942   7.484
24774WAT     H174564   1.542   0.930   7.579
24774WAT     H274565   1.531   0.868   7.429
24775WAT      O74566   9.838   9.607   6.374
24775WAT     H174567   9.884   9.694   6.388
24775WAT     H274568   9.751   9.622   6.328
24776WAT      O74569   0.933   0.873   6.349
24776WAT     H174570   0.874   0.903   6.424
24776WAT     H274571   0.995   0.802   6.383
24777WAT      O74572   4.359   5.686   7.383
24777WAT     H174573   4.281   5.725   7.432
24777WAT     H274574   4.329   5.602   7.336
24778WAT      O74575   7.181   3.729   6.128
24778WAT     H174576   7.265   3.746   6.077
24778WAT     H274577   7.103   3.731   6.066
24779WAT      O74578   5.509   8.915   0.282
24779WAT     H174579   5.572   8.860   0.336
24779WAT     H274580   5.451   8.855   0.226
24780WAT      O74581   0.702   5.343   9.267
24780WAT     H174582   0.701   5.251   9.228
24780WAT     H274583   0.766   5.345   9.344
24781WAT      O74584   5.002   8.070   9.490
24781WAT     H174585   5.021   7.974   9.507
24781WAT     H274586   4.960   8.080   9.400
24782WAT      O74587   2.771   4.723   8.077
24782WAT     H174588   2.795   4.629   8.054
24782WAT     H274589   2.672   4.735   8.069
24783WAT      O74590   5.007   6.907   3.262
24783WAT     H174591   5.091   6.853   3.261
24783WAT     H274592   5.030   7.004   3.275
24784WAT      O74593   3.956   9.501   0.850
24784WAT     H174594   3.871   9.456   0.822
24784WAT     H274595   4.034   9.449   0.816
24785WAT      O74596   3.112   1.682   3.869
24785WAT     H174597   3.136   1.751   3.937
24785WAT     H274598   3.139   1.713   3.778
24786WAT      O74599   5.881   7.100   5.685
24786WAT     H174600   5.826   7.038   5.741
24786WAT     H274601   5.875   7.073   5.589
24787WAT      O74602   9.761   1.084   4.427
24787WAT     H174603   9.780   1.071   4.525
24787WAT     H274604   9.846   1.106   4.379
24788WAT      O74605   6.496   6.020   2.450
24788WAT     H174606   6.435   6.034   2.372
24788WAT     H274607   6.494   5.924   2.477
24789WAT      O74608   3.601   7.467   1.664
24789WAT     H174609   3.573   7.562   1.653
24789WAT     H274610   3.653   7.457   1.749
24790WAT      O74611   8.157   0.288   4.488
24790WAT     H174612   8.166   0.385   4.511
24790WAT     H274613   8.158   0.277   4.389
24791WAT      O74614   4.222   3.683   0.524
24791WAT     H174615   4.251   3.596   0.566
24791WAT     H274616   4.190   3.745   0.595
24792WAT      O74617   2.421   1.105   8.850
24792WAT     H174618   2.409   1.153   8.937
24792WAT     H274619   2.516   1.074   8.842
24793WAT      O74620   6.518   8.042   3.629
24793WAT     H174621   6.565   8.062   3.543
24793WAT     H274622   6.511   7.943   3.642
24794WAT      O74623   9.363   1.007   8.359
24794WAT     H174624   9.290   1.067   8.390
24794WAT     H274625   9.410   0.968   8.439
24795WAT      O74626   0.828   4.151   6.851
24795WAT     H174627   0.815   4.065   6.802
24795WAT     H274628   0.921   4.185   6.833
24796WAT      O74629   2.846   2.699   6.266
24796WAT     H174630   2.868   2.700   6.169
24796WAT     H274631   2.895   2.774   6.312
24797WAT      O74632   8.365   1.019   8.918
24797WAT     H174633   8.266   1.031   8.910
24797WAT     H274634   8.388   0.922   8.910
24798WAT      O74635   8.884   8.218   7.141
24798WAT     H174636   8.915   8.137   7.092
24798WAT     H274637   8.868   8.292   7.075
24799WAT      O74638   6.937   7.699   7.773
24799WAT     H174639   6.883   7.722   7.855
24799WAT     H274640   7.033   7.690   7.797
24800WAT      O74641   7.040   8.970   9.358
24800WAT     H174642   7.006   9.064   9.351
24800WAT     H274643   7.130   8.963   9.315
24801WAT      O74644   7.963   4.520   0.433
24801WAT     H174645   7.870   4.514   0.397
24801WAT     H274646   7.977   4.447   0.500
24802WAT      O74647   8.926   8.554   6.204
24802WAT     H174648   8.934   8.479   6.270
24802WAT     H274649   8.863   8.623   6.240
24803WAT      O74650   2.743   5.725   7.822
24803WAT     H174651   2.742   5.625   7.833
24803WAT     H274652   2.660   5.763   7.864
24804WAT      O74653   9.559   8.477   7.247
24804WAT     H174654   9.483   8.445   7.190
24804WAT     H274655   9.526   8.489   7.341
24805WAT      O74656   8.455   8.985   5.110
24805WAT     H174657   8.478   8.891   5.084
24805WAT     H274658   8.364   9.008   5.076
24806WAT      O74659   1.690   2.556   0.043
24806WAT     H174660   1.639   2.570  -0.043
24806WAT     H274661   1.644   2.487   0.098
24807WAT      O74662   0.872   1.626   7.551
24807WAT     H174663   0.857   1.533   7.517
24807WAT     H274664   0.950   1.627   7.613
24808WAT      O74665   7.048   0.888   0.398
24808WAT     H174666   7.028   0.836   0.481
24808WAT     H274667   7.135   0.858   0.359
24809WAT      O74668   0.365   5.395   8.559
24809WAT     H174669   0.363   5.404   8.658
24809WAT     H274670   0.449   5.349   8.531
24810WAT      O74671   1.438   3.379   4.701
24810WAT     H174672   1.367   3.443   4.671
24810WAT     H274673   1.506   3.429   4.755
24811WAT      O74674   8.150   7.556   7.374
24811WAT     H174675   8.062   7.540   7.328
24811WAT     H274676   8.225   7.535   7.311
24812WAT      O74677   6.259   4.584   1.756
24812WAT     H174678   6.237   4.675   1.791
24812WAT     H274679   6.178   4.546   1.710
24813WAT      O74680   4.342   0.298   8.260
24813WAT     H174681   4.379   0.265   8.347
24813WAT     H274682   4.244   0.313   8.269
24814WAT      O74683   6.836   2.450   0.783
24814WAT     H174684   6.881   2.433   0.871
24814WAT     H274685   6.882   2.527   0.738
24815WAT      O74686   3.415   2.564   1.527
24815WAT     H174687   3.368   2.605   1.449
24815WAT     H274688   3.396   2.465   1.528
24816WAT      O74689   6.444   8.788   7.669
24816WAT     H174690   6.365   8.813   7.613
24816WAT     H274691   6.525   8.780   7.611
24817WAT      O74692   4.446   1.863   0.533
24817WAT     H174693   4.499   1.836   0.613
24817WAT     H274694   4.366   1.917   0.561
24818WAT      O74695   4.012   5.250   8.185
24818WAT     H174696   4.002   5.182   8.113
24818WAT     H274697   4.101   5.295   8.177
24819WAT      O74698   5.233   9.249   3.079
24819WAT     H174699   5.139   9.271   3.103
24819WAT     H274700   5.295   9.294   3.143
24820WAT      O74701   5.382   8.672   6.374
24820WAT     H174702   5.380   8.703   6.469
24820WAT     H274703   5.297   8.624   6.353
24821WAT      O74704   9.655   7.000   2.693
24821WAT     H174705   9.574   6.962   2.738
24821WAT     H274706   9.696   7.069   2.752
24822WAT      O74707   3.751   3.761   9.702
24822WAT     H174708   3.698   3.835   9.743
24822WAT     H274709   3.843   3.761   9.742
24823WAT      O74710   8.104   0.158   3.681
24823WAT     H174711   8.150   0.237   3.722
24823WAT     H274712   8.021   0.188   3.634
24824WAT      O74713   4.600   3.133   4.842
24824WAT     H174714   4.615   3.229   4.817
24824WAT     H274715   4.662   3.075   4.790
24825WAT      O74716   7.819   9.502   7.876
24825WAT     H174717   7.800   9.596   7.906
24825WAT     H274718   7.903   9.470   7.918
24826WAT      O74719   5.155   2.874   0.819
24826WAT     H174720   5.111   2.784   0.812
24826WAT     H274721   5.105   2.941   0.765
24827WAT      O74722   4.301   5.729   3.709
24827WAT     H174723   4.387   5.724   3.658
24827WAT     H274724   4.227   5.690   3.653
24828WAT      O74725   5.986   6.968   6.733
24828WAT     H174726   5.994   7.026   6.652
24828WAT     H274727   6.023   7.016   6.813
24829WAT      O74728   1.849   2.912   2.470
24829WAT     H174729   1.835   3.002   2.428
24829WAT     H274730   1.767   2.887   2.523
24830WAT      O74731   9.132   4.084   3.142
24830WAT     H174732   9.058   4.051   3.083
24830WAT     H274733   9.114   4.178   3.170
24831WAT      O74734   9.296   7.836   2.956
24831WAT     H174735   9.357   7.895   3.008
24831WAT     H274736   9.308   7.741   2.986
24832WAT      O74737   7.348   8.682   7.252
24832WAT     H174738   7.437   8.642   7.227
24832WAT     H274739   7.360   8.747   7.327
24833WAT      O74740   6.066   3.832   5.985
24833WAT     H174741   6.033   3.885   6.063
24833WAT     H274742   5.990   3.816   5.922
24834WAT      O74743   7.589   7.625   6.916
24834WAT     H174744   7.520   7.553   6.921
24834WAT     H274745   7.627   7.641   7.007
24835WAT      O74746   9.190   7.970   0.339
24835WAT     H174747   9.187   7.985   0.240
24835WAT     H274748   9.212   8.057   0.384
24836WAT      O74749   1.885   8.807   1.054
24836WAT     H174750   1.852   8.901   1.067
24836WAT     H274751   1.808   8.748   1.030
24837WAT      O74752   3.552   0.962   3.553
24837WAT     H174753   3.607   1.045   3.563
24837WAT     H274754   3.555   0.910   3.639
24838WAT      O74755   0.079   8.360   3.043
24838WAT     H174756   0.108   8.358   2.948
24838WAT     H274757  -0.021   8.362   3.047
24839WAT      O74758   8.065   8.878   8.456
24839WAT     H174759   7.977   8.903   8.497
24839WAT     H274760   8.114   8.961   8.429
24840WAT      O74761   2.887   3.447   2.423
24840WAT     H174762   2.883   3.351   2.397
24840WAT     H274763   2.980   3.481   2.413
24841WAT      O74764   8.539   1.866   0.254
24841WAT     H174765   8.495   1.779   0.229
24841WAT     H274766   8.590   1.901   0.175
24842WAT      O74767   0.585   1.762   4.977
24842WAT     H174768   0.538   1.776   5.064
24842WAT     H274769   0.518   1.759   4.902
24843WAT      O74770   6.602   7.184   4.302
24843WAT     H174771   6.633   7.276   4.326
24843WAT     H274772   6.652   7.151   4.222
24844WAT      O74773   1.317   1.896   6.566
24844WAT     H174774   1.318   1.798   6.585
24844WAT     H274775   1.286   1.912   6.472
24845WAT      O74776   2.486   5.645   8.785
24845WAT     H174777   2.552   5.691   8.725
24845WAT     H274778   2.429   5.583   8.730
24846WAT      O74779   2.944   0.801   9.715
24846WAT     H174780   2.937   0.899   9.736
24846WAT     H274781   2.868   0.774   9.656
24847WAT      O74782   8.390   1.704   6.598
24847WAT     H174783   8.466   1.746   6.548
24847WAT     H274784   8.305   1.717   6.547
24848WAT      O74785   0.085   1.683   7.568
24848WAT     H174786   0.115   1.739   7.490
24848WAT     H274787   0.142   1.601   7.574
24849WAT      O74788   2.834   9.493   9.297
24849WAT     H174789   2.782   9.577   9.281
24849WAT     H274790   2.854   9.449   9.210
24850WAT      O74791   5.264   7.953   4.046
24850WAT     H174792   5.251   8.045   4.083
24850WAT     H274793   5.189   7.895   4.076
24851WAT      O74794   6.821   4.757   2.061
24851WAT     H174795   6.892   4.804   2.009
24851WAT     H274796   6.740   4.745   2.004
24852WAT      O74797   2.041   4.781   8.966
24852WAT     H174798   2.134   4.746   8.980
24852WAT     H274799   2.043   4.857   8.901
24853WAT      O74800   6.929   3.782   9.051
24853WAT     H174801   6.831   3.775   9.069
24853WAT     H274802   6.978   3.797   9.136
24854WAT      O74803   9.447   3.891   8.977
24854WAT     H174804   9.432   3.813   9.038
24854WAT     H274805   9.542   3.891   8.947
24855WAT      O74806   5.300   3.395   3.458
24855WAT     H174807   5.290   3.329   3.532
24855WAT     H274808   5.321   3.347   3.373
24856WAT      O74809   5.668   6.853   2.369
24856WAT     H174810   5.642   6.813   2.457
24856WAT     H274811   5.633   6.797   2.295
24857WAT      O74812   3.390   7.353   7.139
24857WAT     H174813   3.485   7.322   7.149
24857WAT     H274814   3.331   7.274   7.122
24858WAT      O74815   9.246   4.828   7.096
24858WAT     H174816   9.225   4.829   6.998
24858WAT     H274817   9.187   4.762   7.142
24859WAT      O74818   4.642   3.699   1.705
24859WAT     H174819   4.680   3.657   1.622
24859WAT     H274820   4.714   3.711   1.773
24860WAT      O74821   0.997   0.132   7.414
24860WAT     H174822   1.025   0.114   7.508
24860WAT     H274823   0.985   0.230   7.401
24861WAT      O74824   3.186   1.730   3.624
24861WAT     H174825   3.166   1.817   3.579
24861WAT     H274826   3.285   1.719   3.632
24862WAT      O74827   7.416   4.991   8.991
24862WAT     H174828   7.405   4.957   9.084
24862WAT     H274829   7.474   4.929   8.939
24863WAT      O74830   1.434   2.071   6.227
24863WAT     H174831   1.347   2.021   6.224
24863WAT     H274832   1.416   2.169   6.215
24864WAT      O74833   5.772   1.689   9.043
24864WAT     H174834   5.673   1.696   9.027
24864WAT     H274835   5.788   1.661   9.138
24865WAT      O74836   9.279   8.137   9.515
24865WAT     H174837   9.247   8.149   9.421
24865WAT     H274838   9.268   8.041   9.542
24866WAT      O74839   3.271   4.147   8.641
24866WAT     H174840   3.242   4.068   8.587
24866WAT     H274841   3.333   4.117   8.713
24867WAT      O74842   8.679   2.951   5.844
24867WAT     H174843   8.668   3.041   5.887
24867WAT     H274844   8.591   2.922   5.805
24868WAT      O74845   1.776   9.277   9.569
24868WAT     H174846   1.772   9.235   9.660
24868WAT     H274847   1.687   9.315   9.546
24869WAT      O74848   4.560   1.253   2.636
24869WAT     H174849   4.467   1.259   2.672
24869WAT     H274850   4.624   1.235   2.711
24870WAT      O74851   2.921   5.781   5.967
24870WAT     H174852   2.831   5.800   5.928
24870WAT     H274853   2.961   5.701   5.921
24871WAT      O74854   2.878   0.392   3.952
24871WAT     H174855   2.805   0.325   3.940
24871WAT     H274856   2.846   0.466   4.011
24872WAT      O74857   5.010   9.276   2.703
24872WAT     H174858   4.946   9.226   2.762
24872WAT     H274859   5.104   9.252   2.728
24873WAT      O74860   8.210   2.408   1.263
24873WAT     H174861   8.115   2.391   1.288
24873WAT     H274862   8.237   2.348   1.188
24874WAT      O74863   7.162   6.381   9.537
24874WAT     H174864   7.091   6.452   9.533
24874WAT     H274865   7.148   6.315   9.464
24875WAT      O74866   5.322   2.394   8.058
24875WAT     H174867   5.395   2.461   8.047
24875WAT     H274868   5.358   2.302   8.042
24876WAT      O74869   2.847   7.111   7.688
24876WAT     H174870   2.765   7.078   7.641
24876WAT     H274871   2.925   7.055   7.662
24877WAT      O74872   7.770   0.411   2.854
24877WAT     H174873   7.710   0.477   2.808
24877WAT     H274874   7.775   0.434   2.952
24878WAT      O74875   9.587   2.251   2.287
24878WAT     H174876   9.497   2.274   2.324
24878WAT     H274877   9.597   2.290   2.196
24879WAT      O74878   9.011   2.672   4.484
24879WAT     H174879   9.007   2.757   4.537
24879WAT     H274880   8.993   2.691   4.388
24880WAT      O74881   2.506   0.290   5.328
24880WAT     H174882   2.524   0.275   5.231
24880WAT     H274883   2.554   0.372   5.359
24881WAT      O74884   0.746   3.672   7.790
24881WAT     H174885   0.652   3.646   7.813
24881WAT     H274886   0.785   3.726   7.864
24882WAT      O74887   5.353   7.917   6.975
24882WAT     H174888   5.266   7.905   6.928
24882WAT     H274889   5.337   7.955   7.067
24883WAT      O74890   1.930   2.864   5.937
24883WAT     H174891   1.929   2.961   5.911
24883WAT     H274892   2.014   2.821   5.904
24884WAT      O74893   6.804   8.147   1.720
24884WAT     H174894   6.814   8.078   1.648
24884WAT     H274895   6.732   8.117   1.784
24885WAT      O74896   7.334   8.987   1.052
24885WAT     H174897   7.298   8.913   0.996
24885WAT     H274898   7.288   9.073   1.028
24886WAT      O74899   0.722   2.596   6.264
24886WAT     H174900   0.678   2.595   6.174
24886WAT     H274901   0.686   2.673   6.317
24887WAT      O74902   2.270   7.489   9.761
24887WAT     H174903   2.204   7.414   9.771
24887WAT     H274904   2.362   7.451   9.755
24888WAT      O74905   6.528   5.344   3.869
24888WAT     H174906   6.475   5.275   3.820
24888WAT     H274907   6.576   5.402   3.803
24889WAT      O74908   8.604   4.592   6.845
24889WAT     H174909   8.695   4.628   6.863
24889WAT     H274910   8.549   4.662   6.798
24890WAT      O74911   2.736   8.849   4.249
24890WAT     H174912   2.723   8.920   4.179
24890WAT     H274913   2.703   8.883   4.337
24891WAT      O74914   0.935   7.748   0.681
24891WAT     H174915   0.935   7.708   0.773
24891WAT     H274916   0.928   7.675   0.613
24892WAT      O74917   1.065   3.118   5.928
24892WAT     H174918   1.046   3.167   6.013
24892WAT     H274919   1.055   3.182   5.851
24893WAT      O74920   3.883   0.389   7.029
24893WAT     H174921   3.911   0.470   6.978
24893WAT     H274922   3.952   0.368   7.099
24894WAT      O74923   4.316   8.057   4.962
24894WAT     H174924   4.243   8.016   4.908
24894WAT     H274925   4.404   8.026   4.926
24895WAT      O74926   4.925   2.370   5.713
24895WAT     H174927   4.868   2.347   5.634
24895WAT     H274928   4.983   2.291   5.737
24896WAT      O74929   7.055   8.528   5.514
24896WAT     H174930   6.993   8.505   5.439
24896WAT     H274931   7.055   8.454   5.581
24897WAT      O74932   9.594   3.434   8.841
24897WAT     H174933   9.551   3.522   8.821
24897WAT     H274934   9.527   3.372   8.882
24898WAT      O74935   4.444   2.674   2.912
24898WAT     H174936   4.351   2.653   2.941
24898WAT     H274937   4.505   2.674   2.991
24899WAT      O74938   3.523   3.225   7.242
24899WAT     H174939   3.612   3.243   7.200
24899WAT     H274940   3.472   3.311   7.251
24900WAT      O74941   4.470   7.315   0.900
24900WAT     H174942   4.450   7.362   0.986
24900WAT     H274943   4.527   7.235   0.918
24901WAT      O74944   8.480   3.121   3.907
24901WAT     H174945   8.533   3.155   3.985
24901WAT     H274946   8.528   3.043   3.867
24902WAT      O74947   5.885   1.601   0.907
24902WAT     H174948   5.910   1.622   1.001
24902WAT     H274949   5.939   1.523   0.874
24903WAT      O74950   1.691   7.497   3.884
24903WAT     H174951   1.746   7.466   3.806
24903WAT     H274952   1.751   7.515   3.962
24904WAT      O74953   1.065   4.940   1.008
24904WAT     H174954   1.078   5.034   0.976
24904WAT     H274955   1.150   4.889   0.994
24905WAT      O74956   0.528   4.420   2.933
24905WAT     H174957   0.484   4.444   3.020
24905WAT     H274958   0.460   4.380   2.872
24906WAT      O74959   4.955   0.274   9.782
24906WAT     H174960   4.928   0.368   9.760
24906WAT     H274961   5.015   0.274   9.861
24907WAT      O74962   2.389   8.840   9.124
24907WAT     H174963   2.357   8.882   9.040
24907WAT     H274964   2.343   8.753   9.138
24908WAT      O74965   9.140   7.354   3.709
24908WAT     H174966   9.118   7.405   3.626
24908WAT     H274967   9.236   7.328   3.708
24909WAT      O74968   3.059   6.725   9.221
24909WAT     H174969   3.018   6.663   9.154
24909WAT     H274970   2.997   6.736   9.299
24910WAT      O74971   5.294   2.249   1.127
24910WAT     H174972   5.196   2.251   1.103
24910WAT     H274973   5.348   2.263   1.044
24911WAT      O74974   1.929   2.905   7.954
24911WAT     H174975   1.861   2.970   7.988
24911WAT     H274976   2.019   2.927   7.991
24912WAT      O74977   7.318   8.591   5.517
24912WAT     H174978   7.220   8.575   5.510
24912WAT     H274979   7.368   8.507   5.494
24913WAT      O74980   0.139   8.713   9.508
24913WAT     H174981   0.083   8.717   9.425
24913WAT     H274982   0.086   8.673   9.582
24914WAT      O74983   8.638   4.917   9.207
24914WAT     H174984   8.624   4.929   9.109
24914WAT     H274985   8.554   4.882   9.248
24915WAT      O74986   0.718   2.852   6.363
24915WAT     H174987   0.752   2.878   6.272
24915WAT     H274988   0.756   2.914   6.432
24916WAT      O74989   0.480   3.605   8.125
24916WAT     H174990   0.525   3.526   8.083
24916WAT     H274991   0.468   3.589   8.223
24917WAT      O74992   6.286   5.912   9.658
24917WAT     H174993   6.217   5.900   9.729
24917WAT     H274994   6.262   5.857   9.577
24918WAT      O74995   4.808   9.403   4.341
24918WAT     H174996   4.744   9.342   4.388
24918WAT     H274997   4.886   9.421   4.400
24919WAT      O74998   6.978   6.871   8.771
24919WAT     H174999   6.906   6.806   8.746
24919WAT     H275000   7.064   6.844   8.728
24920WAT      O75001   1.596   4.692   4.879
24920WAT     H175002   1.660   4.766   4.861
24920WAT     H275003   1.615   4.652   4.969
24921WAT      O75004   1.947   1.995   5.186
24921WAT     H175005   2.007   2.031   5.258
24921WAT     H275006   1.960   1.896   5.179
24922WAT      O75007   3.066   1.391   5.357
24922WAT     H175008   3.012   1.318   5.315
24922WAT     H275009   3.093   1.364   5.449
24923WAT      O75010   0.327   4.772   8.510
24923WAT     H175011   0.313   4.726   8.422
24923WAT     H275012   0.356   4.705   8.578
24924WAT      O75013   8.622   8.642   2.338
24924WAT     H175014   8.538   8.589   2.354
24924WAT     H275015   8.697   8.602   2.390
24925WAT      O75016   4.305   7.031   6.452
24925WAT     H175017   4.314   7.114   6.396
24925WAT     H275018   4.369   7.037   6.530
24926WAT      O75019   5.615   4.849   1.070
24926WAT     H175020   5.607   4.802   0.983
24926WAT     H275021   5.640   4.784   1.142
24927WAT      O75022   7.021   4.858   7.211
24927WAT     H175023   7.038   4.898   7.301
24927WAT     H275024   6.923   4.857   7.193
24928WAT      O75025   9.391   5.209   3.594
24928WAT     H175026   9.367   5.205   3.691
24928WAT     H275027   9.427   5.120   3.565
24929WAT      O75028   4.434   4.316   9.331
24929WAT     H175029   4.472   4.286   9.418
24929WAT     H275030   4.341   4.279   9.321
24930WAT      O75031   1.804   4.204   0.269
24930WAT     H175032   1.798   4.117   0.221
24930WAT     H275033   1.870   4.196   0.344
24931WAT      O75034   3.128   7.512   9.144
24931WAT     H175035   3.162   7.544   9.233
24931WAT     H275036   3.187   7.439   9.111
24932WAT      O75037   7.357   4.501   9.758
24932WAT     H175038   7.448   4.490   9.796
24932WAT     H275039   7.289   4.495   9.831
24933WAT      O75040   9.811   0.069   5.017
24933WAT     H175041   9.819  -0.029   5.035
24933WAT     H275042   9.835   0.120   5.100
24934WAT      O75043   2.922   1.777   7.378
24934WAT     H175044   2.884   1.869   7.378
24934WAT     H275045   2.924   1.741   7.285
24935WAT      O75046   9.634   6.177   1.385
24935WAT     H175047   9.553   6.161   1.441
24935WAT     H275048   9.612   6.163   1.288
24936WAT      O75049   0.876   6.094   9.040
24936WAT     H175050   0.794   6.096   8.983
24936WAT     H275051   0.930   6.013   9.017
24937WAT      O75052   8.074   9.268   8.617
24937WAT     H175053   8.117   9.350   8.654
24937WAT     H275054   7.975   9.282   8.612
24938WAT      O75055   4.974   5.278   1.798
24938WAT     H175056   5.039   5.243   1.730
24938WAT     H275057   5.024   5.336   1.864
24939WAT      O75058   7.358   6.229   2.013
24939WAT     H175059   7.375   6.151   2.073
24939WAT     H275060   7.267   6.266   2.031
24940WAT      O75061   8.703   0.678   0.710
24940WAT     H175062   8.728   0.753   0.771
24940WAT     H275063   8.656   0.713   0.630
24941WAT      O75064   3.080   4.654   4.708
24941WAT     H175065   2.995   4.619   4.748
24941WAT     H275066   3.123   4.718   4.772
24942WAT      O75067   6.665   7.504   8.858
24942WAT     H175068   6.590   7.441   8.839
24942WAT     H275069   6.659   7.536   8.953
24943WAT      O75070   7.551   5.074   5.439
24943WAT     H175071   7.547   4.982   5.477
24943WAT     H275072   7.594   5.071   5.348
24944WAT      O75073   1.201   4.830   6.974
24944WAT     H175074   1.292   4.793   6.956
24944WAT     H275075   1.150   4.765   7.031
24945WAT      O75076   0.764   3.251   0.951
24945WAT     H175077   0.809   3.172   0.994
24945WAT     H275078   0.666   3.232   0.941
24946WAT      O75079   3.357   6.771   8.643
24946WAT     H175080   3.277   6.788   8.701
24946WAT     H275081   3.398   6.859   8.618
24947WAT      O75082   8.970   0.580   0.735
24947WAT     H175083   9.016   0.657   0.780
24947WAT     H275084   8.873   0.601   0.724
24948WAT      O75085   8.600   5.951   0.778
24948WAT     H175086   8.606   5.851   0.766
24948WAT     H275087   8.539   5.989   0.708
24949WAT      O75088   5.140   0.705   9.095
24949WAT     H175089   5.044   0.684   9.109
24949WAT     H275090   5.186   0.625   9.054
24950WAT      O75091   5.077   7.855   7.172
24950WAT     H175092   5.157   7.894   7.218
24950WAT     H275093   5.038   7.923   7.110
24951WAT      O75094   6.497   5.808   0.908
24951WAT     H175095   6.459   5.785   0.997
24951WAT     H275096   6.474   5.737   0.842
24952WAT      O75097   6.577   5.144   7.536
24952WAT     H175098   6.629   5.161   7.620
24952WAT     H275099   6.495   5.200   7.535
24953WAT      O75100   1.878   1.087   6.970
24953WAT     H175101   1.803   1.152   6.987
24953WAT     H275102   1.900   1.039   7.055
24954WAT      O75103   2.839   2.927   1.904
24954WAT     H175104   2.876   3.002   1.850
24954WAT     H275105   2.875   2.840   1.869
24955WAT      O75106   8.357   9.712   1.408
24955WAT     H175107   8.331   9.777   1.480
24955WAT     H275108   8.284   9.645   1.394
24956WAT      O75109   9.737   8.402   3.571
24956WAT     H175110   9.795   8.337   3.620
24956WAT     H275111   9.673   8.352   3.512
24957WAT      O75112   1.599   1.151   2.509
24957WAT     H175113   1.538   1.073   2.491
24957WAT     H275114   1.693   1.126   2.484
24958WAT      O75115   4.296   3.595   6.969
24958WAT     H175116   4.206   3.588   7.012
24958WAT     H275117   4.286   3.608   6.870
24959WAT      O75118   4.252   7.032   8.957
24959WAT     H175119   4.203   6.951   8.990
24959WAT     H275120   4.190   7.110   8.958
24960WAT      O75121   7.404   0.869   9.129
24960WAT     H175122   7.427   0.905   9.220
24960WAT     H275123   7.369   0.943   9.071
24961WAT      O75124   9.720   0.410   7.108
24961WAT     H175125   9.702   0.315   7.132
24961WAT     H275126   9.660   0.470   7.161
24962WAT      O75127   6.562   7.001   3.205
24962WAT     H175128   6.573   6.925   3.269
24962WAT     H275129   6.634   6.999   3.137
24963WAT      O75130   7.590   0.735   0.255
24963WAT     H175131   7.562   0.816   0.205
24963WAT     H275132   7.683   0.710   0.230
24964WAT      O75133   4.712   4.740   8.380
24964WAT     H175134   4.662   4.759   8.295
24964WAT     H275135   4.673   4.794   8.455
24965WAT      O75136   2.221   3.329   6.416
24965WAT     H175137   2.292   3.258   6.417
24965WAT     H275138   2.153   3.307   6.345
24966WAT      O75139   7.371   2.986   3.077
24966WAT     H175140   7.363   2.908   3.015
24966WAT     H275141   7.434   3.053   3.040
24967WAT      O75142   4.161   4.536   8.123
24967WAT     H175143   4.069   4.575   8.123
24967WAT     H275144   4.175   4.481   8.205
24968WAT      O75145   5.175   3.849   1.127
24968WAT     H175146   5.105   3.778   1.119
24968WAT     H275147   5.177   3.904   1.044
24969WAT      O75148   5.814   7.052   1.299
24969WAT     H175149   5.717   7.039   1.322
24969WAT     H275150   5.834   7.004   1.214
24970WAT      O75151   1.076   9.737   8.528
24970WAT     H175152   1.054   9.719   8.624
24970WAT     H275153   1.061   9.654   8.475
24971WAT      O75154   1.428   8.354   0.669
24971WAT     H175155   1.358   8.282   0.665
24971WAT     H275156   1.519   8.312   0.666
24972WAT      O75157   5.390   2.040   7.073
24972WAT     H175158   5.457   1.968   7.057
24972WAT     H275159   5.364   2.082   6.987
24973WAT      O75160   4.177   3.370   0.704
24973WAT     H175161   4.270   3.406   0.712
24973WAT     H275162   4.135   3.365   0.794
24974WAT      O75163   4.286   2.726   3.814
24974WAT     H175164   4.200   2.762   3.851
24974WAT     H275165   4.267   2.671   3.733
24975WAT      O75166   9.415   9.056   9.242
24975WAT     H175167   9.452   8.967   9.213
24975WAT     H275168   9.489   9.122   9.249
24976WAT      O75169   6.198   6.075   5.624
24976WAT     H175170   6.257   6.135   5.571
24976WAT     H275171   6.105   6.079   5.587
24977WAT      O75172   4.875   9.578   1.578
24977WAT     H175173   4.911   9.627   1.498
24977WAT     H275174   4.949   9.565   1.644
24978WAT      O75175   6.523   8.750   9.571
24978WAT     H175176   6.533   8.837   9.524
24978WAT     H275177   6.431   8.713   9.555
24979WAT      O75178   2.396   8.402   5.514
24979WAT     H175179   2.435   8.488   5.547
24979WAT     H275180   2.401   8.333   5.587
24980WAT      O75181   3.072   7.002   9.792
24980WAT     H175182   3.061   6.913   9.835
24980WAT     H275183   3.168   7.031   9.801
24981WAT      O75184   3.940   1.440   9.437
24981WAT     H175185   3.974   1.524   9.394
24981WAT     H275186   3.844   1.451   9.460
24982WAT      O75187   9.141   8.542   5.798
24982WAT     H175188   9.115   8.638   5.787
24982WAT     H275189   9.198   8.513   5.721
24983WAT      O75190   9.104   0.549   5.956
24983WAT     H175191   9.171   0.611   5.997
24983WAT     H275192   9.136   0.522   5.865
24984WAT      O75193   8.771   2.224   9.722
24984WAT     H175194   8.783   2.175   9.636
24984WAT     H275195   8.699   2.292   9.713
24985WAT      O75196   1.249   9.755   1.509
24985WAT     H175197   1.281   9.676   1.561
24985WAT     H275198   1.286   9.838   1.550
24986WAT      O75199   3.496   1.701   6.601
24986WAT     H175200   3.401   1.731   6.608
24986WAT     H275201   3.499   1.601   6.607
24987WAT      O75202   4.646   7.203   2.872
24987WAT     H175203   4.734   7.187   2.827
24987WAT     H275204   4.621   7.122   2.926
24988WAT      O75205   1.988   2.704   2.344
24988WAT     H175206   1.906   2.735   2.393
24988WAT     H275207   2.025   2.779   2.290
24989WAT      O75208   5.155   4.482   2.894
24989WAT     H175209   5.242   4.448   2.930
24989WAT     H275210   5.156   4.474   2.794
24990WAT      O75211   1.187   2.515   6.898
24990WAT     H175212   1.165   2.596   6.952
24990WAT     H275213   1.102   2.475   6.862
24991WAT      O75214   7.428   1.582   2.531
24991WAT     H175215   7.376   1.594   2.447
24991WAT     H275216   7.386   1.511   2.587
24992WAT      O75217   0.241   6.471   1.646
24992WAT     H175218   0.335   6.500   1.662
24992WAT     H275219   0.212   6.411   1.720
24993WAT      O75220   0.023   0.837   9.388
24993WAT     H175221   0.047   0.917   9.442
24993WAT     H275222  -0.001   0.761   9.449
24994WAT      O75223   8.081   8.776   8.703
24994WAT     H175224   8.059   8.820   8.616
24994WAT     H275225   8.114   8.845   8.768
24995WAT      O75226   4.962   1.256   3.830
24995WAT     H175227   4.940   1.237   3.925
24995WAT     H275228   4.903   1.329   3.796
24996WAT      O75229   1.764   7.524   1.582
24996WAT     H175230   1.666   7.505   1.579
24996WAT     H275231   1.778   7.623   1.577
24997WAT      O75232   9.140   5.852   5.823
24997WAT     H175233   9.111   5.810   5.909
24997WAT     H275234   9.060   5.871   5.766
24998WAT      O75235   0.197   2.288   8.623
24998WAT     H175236   0.292   2.258   8.610
24998WAT     H275237   0.197   2.377   8.669
24999WAT      O75238   8.894   7.667   9.436
24999WAT     H175239   8.859   7.696   9.347
24999WAT     H275240   8.835   7.702   9.509
25000WAT      O75241   2.922   7.758   7.847
25000WAT     H175242   2.878   7.675   7.814
25000WAT     H275243   3.001   7.780   7.789
25001WAT      O75244   3.617   9.088   9.448
25001WAT     H175245   3.646   9.057   9.358
25001WAT     H275246   3.608   9.009   9.509
25002WAT      O75247   9.391   6.432   2.274
25002WAT     H175248   9.360   6.475   2.190
25002WAT     H275249   9.348   6.341   2.283
25003WAT      O75250   7.449   6.283   8.231
25003WAT     H175251   7.478   6.343   8.305
25003WAT     H275252   7.521   6.278   8.161
25004WAT      O75253   4.614   3.541   5.678
25004WAT     H175254   4.652   3.632   5.662
25004WAT     H275255   4.538   3.547   5.743
25005WAT      O75256   4.505   6.764   8.724
25005WAT     H175257   4.461   6.853   8.720
25005WAT     H275258   4.459   6.701   8.661
25006WAT      O75259   6.249   8.486   9.025
25006WAT     H175260   6.297   8.574   9.026
25006WAT     H275261   6.210   8.468   9.115
25007WAT      O75262   0.414   2.063   4.234
25007WAT     H175263   0.412   2.159   4.261
25007WAT     H275264   0.489   2.048   4.169
25008WAT      O75265   0.287   5.522   1.874
25008WAT     H175266   0.285   5.428   1.908
25008WAT     H275267   0.355   5.575   1.925
25009WAT      O75268   4.652   6.438   2.320
25009WAT     H175269   4.581   6.496   2.281
25009WAT     H275270   4.610   6.356   2.360
25010WAT      O75271   5.369   3.712   6.705
25010WAT     H175272   5.299   3.769   6.748
25010WAT     H275273   5.458   3.731   6.747
25011WAT      O75274   5.126   6.831   8.605
25011WAT     H175275   5.094   6.747   8.649
25011WAT     H275276   5.103   6.828   8.508
25012WAT      O75277   6.224   7.368   0.471
25012WAT     H175278   6.303   7.406   0.423
25012WAT     H275279   6.253   7.289   0.526
25013WAT      O75280   2.673   3.465   1.938
25013WAT     H175281   2.750   3.506   1.890
25013WAT     H275282   2.601   3.442   1.873
25014WAT      O75283   3.319   0.487   5.978
25014WAT     H175284   3.265   0.439   6.048
25014WAT     H275285   3.354   0.421   5.912
25015WAT      O75286   0.024   0.904   1.834
25015WAT     H175287   0.107   0.942   1.794
25015WAT     H275288  -0.052   0.916   1.771
25016WAT      O75289   6.209   0.193   7.869
25016WAT     H175290   6.257   0.167   7.952
25016WAT     H275291   6.248   0.144   7.791
25017WAT      O75292   9.029   0.173   7.712
25017WAT     H175293   9.122   0.207   7.728
25017WAT     H275294   8.966   0.250   7.703
25018WAT      O75295   1.855   7.107   9.786
25018WAT     H175296   1.870   7.074   9.879
25018WAT     H275297   1.850   7.207   9.786
25019WAT      O75298   6.029   3.598   6.710
25019WAT     H175299   6.067   3.611   6.618
25019WAT     H275300   6.098   3.557   6.770
25020WAT      O75301   6.173   7.540   1.656
25020WAT     H175302   6.107   7.510   1.587
25020WAT     H275303   6.173   7.640   1.662
25021WAT      O75304   5.197   6.759   1.997
25021WAT     H175305   5.102   6.761   1.968
25021WAT     H275306   5.255   6.802   1.927
25022WAT      O75307   7.937   2.992   3.875
25022WAT     H175308   7.993   2.940   3.939
25022WAT     H275309   7.890   2.930   3.812
25023WAT      O75310   1.181   2.350   4.835
25023WAT     H175311   1.086   2.332   4.859
25023WAT     H275312   1.241   2.292   4.891
25024WAT      O75313   5.923   9.125   6.385
25024WAT     H175314   5.895   9.037   6.422
25024WAT     H275315   6.019   9.142   6.408
25025WAT      O75316   1.705   1.676   9.767
25025WAT     H175317   1.709   1.593   9.710
25025WAT     H275318   1.767   1.665   9.845
25026WAT      O75319   4.023   3.406   8.653
25026WAT     H175320   4.053   3.446   8.740
25026WAT     H275321   4.103   3.387   8.596
25027WAT      O75322   0.546   9.319   3.973
25027WAT     H175323   0.574   9.225   3.953
25027WAT     H275324   0.624   9.380   3.961
25028WAT      O75325   2.990   9.088   6.685
25028WAT     H175326   3.067   9.047   6.636
25028WAT     H275327   3.023   9.159   6.747
25029WAT      O75328   6.067   2.130   9.729
25029WAT     H175329   6.065   2.092   9.821
25029WAT     H275330   6.129   2.209   9.727
25030WAT      O75331   3.416   5.165   2.410
25030WAT     H175332   3.356   5.086   2.398
25030WAT     H275333   3.475   5.150   2.489
25031WAT      O75334   7.319   5.550   1.634
25031WAT     H175335   7.223   5.527   1.648
25031WAT     H275336   7.330   5.650   1.637
25032WAT      O75337   2.822   5.979   4.540
25032WAT     H175338   2.780   6.017   4.457
25032WAT     H275339   2.921   5.987   4.534
25033WAT      O75340   4.580   7.954   3.438
25033WAT     H175341   4.591   8.046   3.400
25033WAT     H275342   4.663   7.928   3.487
25034WAT      O75343   4.685   6.984   8.367
25034WAT     H175344   4.640   6.925   8.300
25034WAT     H275345   4.643   7.074   8.365
25035WAT      O75346   5.926   4.463   9.085
25035WAT     H175347   5.854   4.533   9.090
25035WAT     H275348   5.993   4.490   9.015
25036WAT      O75349   7.510   5.998   7.298
25036WAT     H175350   7.418   5.965   7.317
25036WAT     H275351   7.567   5.989   7.379
25037WAT      O75352   2.939   6.018   2.689
25037WAT     H175353   2.994   5.935   2.681
25037WAT     H275354   2.911   6.049   2.599
25038WAT      O75355   7.582   2.240   6.453
25038WAT     H175356   7.540   2.278   6.535
25038WAT     H275357   7.631   2.156   6.476
25039WAT      O75358   8.171   7.627   6.723
25039WAT     H175359   8.158   7.706   6.782
25039WAT     H275360   8.212   7.552   6.775
25040WAT      O75361   5.751   1.789   0.092
25040WAT     H175362   5.774   1.877   0.051
25040WAT     H275363   5.657   1.765   0.068
25041WAT      O75364   9.304   6.389   5.684
25041WAT     H175365   9.374   6.351   5.623
25041WAT     H275366   9.250   6.457   5.634
25042WAT      O75367   0.632   1.590   7.744
25042WAT     H175368   0.712   1.599   7.684
25042WAT     H275369   0.550   1.583   7.688
25043WAT      O75370   1.704   9.123   7.396
25043WAT     H175371   1.767   9.195   7.428
25043WAT     H275372   1.614   9.136   7.438
25044WAT      O75373   2.328   2.517   7.987
25044WAT     H175374   2.402   2.508   8.053
25044WAT     H275375   2.360   2.489   7.896
25045WAT      O75376   4.205   8.413   1.082
25045WAT     H175377   4.151   8.329   1.076
25045WAT     H275378   4.288   8.395   1.135
25046WAT      O75379   7.768   2.761   5.018
25046WAT     H175380   7.753   2.664   5.038
25046WAT     H275381   7.691   2.814   5.054
25047WAT      O75382   1.140   6.187   7.798
25047WAT     H175383   1.101   6.108   7.750
25047WAT     H275384   1.220   6.157   7.851
25048WAT      O75385   7.820   8.806   3.821
25048WAT     H175386   7.849   8.882   3.762
25048WAT     H275387   7.725   8.820   3.847
25049WAT      O75388   1.884   0.491   8.584
25049WAT     H175389   1.880   0.402   8.538
25049WAT     H275390   1.978   0.523   8.587
25050WAT      O75391   4.224   1.637   2.024
25050WAT     H175392   4.237   1.713   2.088
25050WAT     H275393   4.219   1.551   2.075
25051WAT      O75394   7.365   6.061   5.235
25051WAT     H175395   7.389   6.054   5.332
25051WAT     H275396   7.415   5.991   5.183
25052WAT      O75397   5.776   6.745   6.203
25052WAT     H175398   5.857   6.762   6.258
25052WAT     H275399   5.700   6.802   6.237
25053WAT      O75400   7.423   4.713   2.024
25053WAT     H175401   7.494   4.775   2.059
25053WAT     H275402   7.336   4.735   2.067
25054WAT      O75403   0.199   8.141   5.331
25054WAT     H175404   0.196   8.235   5.367
25054WAT     H275405   0.255   8.085   5.392
25055WAT      O75406   4.354   4.244   4.308
25055WAT     H175407   4.286   4.314   4.288
25055WAT     H275408   4.371   4.190   4.225
25056WAT      O75409   2.316   7.417   3.430
25056WAT     H175410   2.408   7.455   3.434
25056WAT     H275411   2.285   7.395   3.523
25057WAT      O75412   8.790   7.517   2.881
25057WAT     H175413   8.757   7.457   2.808
25057WAT     H275414   8.728   7.511   2.959
25058WAT      O75415   9.279   7.369   5.215
25058WAT     H175416   9.237   7.339   5.129
25058WAT     H275417   9.208   7.396   5.279
25059WAT      O75418   5.745   0.837   2.127
25059WAT     H175419   5.722   0.916   2.183
25059WAT     H275420   5.662   0.798   2.088
25060WAT      O75421   2.458   7.682   9.016
25060WAT     H175422   2.400   7.620   8.962
25060WAT     H275423   2.547   7.638   9.033
25061WAT      O75424   5.102   4.741   5.200
25061WAT     H175425   5.040   4.797   5.144
25061WAT     H275426   5.131   4.661   5.148
25062WAT      O75427   4.612   7.445   7.250
25062WAT     H175428   4.651   7.382   7.183
25062WAT     H275429   4.523   7.411   7.281
25063WAT      O75430   6.481   7.189   5.642
25063WAT     H175431   6.541   7.109   5.640
25063WAT     H275432   6.460   7.213   5.737
25064WAT      O75433   2.267   0.220   1.300
25064WAT     H175434   2.262   0.293   1.368
25064WAT     H275435   2.200   0.238   1.227
25065WAT      O75436   4.719   3.144   0.661
25065WAT     H175437   4.710   3.229   0.608
25065WAT     H275438   4.661   3.074   0.622
25066WAT      O75439   8.798   3.090   1.363
25066WAT     H175440   8.808   3.118   1.267
25066WAT     H275441   8.755   3.000   1.367
25067WAT      O75442   8.399   7.753   4.169
25067WAT     H175443   8.474   7.806   4.130
25067WAT     H275444   8.330   7.815   4.206
25068WAT      O75445   4.597   4.889   2.803
25068WAT     H175446   4.583   4.794   2.777
25068WAT     H275447   4.519   4.944   2.774
25069WAT      O75448   5.111   7.252   3.790
25069WAT     H175449   5.032   7.313   3.783
25069WAT     H275450   5.079   7.157   3.793
25070WAT      O75451   5.205   8.218   3.900
25070WAT     H175452   5.264   8.297   3.887
25070WAT     H275453   5.130   8.242   3.962
25071WAT      O75454   6.934   7.902   2.722
25071WAT     H175455   6.972   7.826   2.669
25071WAT     H275456   6.871   7.867   2.791
25072WAT      O75457   8.611   5.351   6.974
25072WAT     H175458   8.660   5.311   7.052
25072WAT     H275459   8.584   5.278   6.912
25073WAT      O75460   3.250   1.885   2.415
25073WAT     H175461   3.276   1.866   2.510
25073WAT     H275462   3.327   1.927   2.367
25074WAT      O75463   2.257   3.372   1.590
25074WAT     H175464   2.321   3.342   1.520
25074WAT     H275465   2.213   3.457   1.562
25075WAT      O75466   9.853   7.359   3.670
25075WAT     H175467   9.812   7.341   3.580
25075WAT     H275468   9.785   7.396   3.732
25076WAT      O75469   4.416   7.882   9.363
25076WAT     H175470   4.400   7.802   9.421
25076WAT     H275471   4.370   7.868   9.275
25077WAT      O75472   3.354   4.737   2.190
25077WAT     H175473   3.332   4.678   2.112
25077WAT     H275474   3.271   4.752   2.244
25078WAT      O75475   1.889   3.791   9.782
25078WAT     H175476   1.910   3.697   9.809
25078WAT     H275477   1.973   3.838   9.756
25079WAT      O75478   5.628   1.540   6.331
25079WAT     H175479   5.687   1.563   6.409
25079WAT     H275480   5.548   1.490   6.364
25080WAT      O75481   7.343   0.985   0.954
25080WAT     H175482   7.337   0.897   0.908
25080WAT     H275483   7.413   0.980   1.026
25081WAT      O75484   9.312   3.305   9.491
25081WAT     H175485   9.349   3.293   9.583
25081WAT     H275486   9.285   3.216   9.455
25082WAT      O75487   3.437   8.718   7.343
25082WAT     H175488   3.469   8.708   7.249
25082WAT     H275489   3.418   8.814   7.362
25083WAT      O75490   7.575   8.197   4.293
25083WAT     H175491   7.635   8.276   4.288
25083WAT     H275492   7.533   8.181   4.203
25084WAT      O75493   5.988   0.779   1.839
25084WAT     H175494   5.947   0.857   1.887
25084WAT     H275495   6.018   0.807   1.748
25085WAT      O75496   5.005   2.188   4.842
25085WAT     H175497   5.001   2.124   4.765
25085WAT     H275498   5.052   2.146   4.919
25086WAT      O75499   1.919   1.250   9.303
25086WAT     H175500   1.969   1.336   9.310
25086WAT     H275501   1.982   1.173   9.316
25087WAT      O75502   7.395   6.743   0.044
25087WAT     H175503   7.403   6.719   0.140
25087WAT     H275504   7.385   6.660  -0.011
25088WAT      O75505   1.817   0.043   8.650
25088WAT     H175506   1.885   0.086   8.591
25088WAT     H275507   1.833  -0.055   8.654
25089WAT      O75508   8.103   5.878   9.276
25089WAT     H175509   8.195   5.915   9.281
25089WAT     H275510   8.088   5.836   9.186
25090WAT      O75511   3.382   6.664   4.778
25090WAT     H175512   3.284   6.655   4.759
25090WAT     H275513   3.396   6.676   4.876
25091WAT      O75514   1.418   7.542   0.195
25091WAT     H175515   1.394   7.637   0.179
25091WAT     H275516   1.516   7.536   0.216
25092WAT      O75517   8.138   6.751   5.839
25092WAT     H175518   8.152   6.794   5.750
25092WAT     H275519   8.099   6.659   5.826
25093WAT      O75520   5.729   6.298   1.005
25093WAT     H175521   5.651   6.314   1.066
25093WAT     H275522   5.724   6.206   0.967
25094WAT      O75523   9.854   2.674   4.317
25094WAT     H175524   9.944   2.631   4.318
25094WAT     H275525   9.846   2.736   4.394
25095WAT      O75526   7.054   8.941   5.633
25095WAT     H175527   6.976   9.003   5.648
25095WAT     H275528   7.049   8.865   5.697
25096WAT      O75529   5.281   7.468   2.416
25096WAT     H175530   5.239   7.541   2.362
25096WAT     H275531   5.353   7.507   2.474
25097WAT      O75532   0.257   5.130   3.130
25097WAT     H175533   0.246   5.035   3.101
25097WAT     H275534   0.285   5.132   3.226
25098WAT      O75535   6.071   5.564   7.309
25098WAT     H175536   6.031   5.491   7.364
25098WAT     H275537   6.166   5.542   7.288
25099WAT      O75538   0.417   5.698   7.855
25099WAT     H175539   0.509   5.694   7.818
25099WAT     H275540   0.376   5.607   7.854
25100WAT      O75541   3.930   2.095   4.149
25100WAT     H175542   3.987   2.144   4.215
25100WAT     H275543   3.940   1.997   4.165
25101WAT      O75544   1.675   2.856   8.075
25101WAT     H175545   1.750   2.792   8.088
25101WAT     H275546   1.700   2.945   8.114
25102WAT      O75547   2.409   7.948   9.067
25102WAT     H175548   2.477   8.015   9.039
25102WAT     H275549   2.431   7.859   9.028
25103WAT      O75550   4.939   4.141   9.149
25103WAT     H175551   4.978   4.228   9.119
25103WAT     H275552   5.004   4.095   9.210
25104WAT      O75553   7.529   0.917   4.479
25104WAT     H175554   7.530   0.849   4.551
25104WAT     H275555   7.620   0.925   4.440
25105WAT      O75556   1.133   1.349   7.564
25105WAT     H175557   1.177   1.432   7.597
25105WAT     H275558   1.109   1.291   7.642
25106WAT      O75559   5.889   7.668   3.272
25106WAT     H175560   5.877   7.664   3.371
25106WAT     H275561   5.800   7.653   3.228
25107WAT      O75562   7.801   2.030   1.532
25107WAT     H175563   7.807   2.048   1.433
25107WAT     H275564   7.802   1.932   1.548
25108WAT      O75565   1.691   1.902   5.549
25108WAT     H175566   1.687   1.964   5.628
25108WAT     H275567   1.649   1.946   5.470
25109WAT      O75568   3.685   5.600   7.384
25109WAT     H175569   3.672   5.542   7.464
25109WAT     H275570   3.778   5.636   7.384
25110WAT      O75571   1.099   1.277   0.277
25110WAT     H175572   1.074   1.216   0.202
25110WAT     H275573   1.179   1.241   0.324
25111WAT      O75574   5.363   6.003   8.351
25111WAT     H175575   5.396   6.097   8.341
25111WAT     H275576   5.441   5.942   8.363
25112WAT      O75577   3.606   1.995   7.570
25112WAT     H175578   3.587   1.913   7.517
25112WAT     H275579   3.704   2.000   7.589
25113WAT      O75580   3.310   7.491   1.901
25113WAT     H175581   3.356   7.513   1.815
25113WAT     H275582   3.323   7.567   1.965
25114WAT      O75583   7.051   3.171   2.626
25114WAT     H175584   7.066   3.086   2.678
25114WAT     H275585   7.103   3.245   2.669
25115WAT      O75586   1.021   7.615   9.076
25115WAT     H175587   0.961   7.661   9.010
25115WAT     H275588   1.108   7.591   9.032
25116WAT      O75589   2.368   0.152   8.849
25116WAT     H175590   2.442   0.204   8.806
25116WAT     H275591   2.324   0.095   8.779
25117WAT      O75592   7.960   4.568   8.486
25117WAT     H175593   8.044   4.529   8.449
25117WAT     H275594   7.944   4.534   8.578
25118WAT      O75595   2.586   2.044   8.168
25118WAT     H175596   2.665   2.026   8.227
25118WAT     H275597   2.616   2.091   8.085
25119WAT      O75598   2.473   4.405   8.407
25119WAT     H175599   2.532   4.482   8.382
25119WAT     H275600   2.386   4.412   8.357
25120WAT      O75601   7.203   9.032   2.684
25120WAT     H175602   7.279   9.047   2.748
25120WAT     H275603   7.116   9.051   2.730
25121WAT      O75604   6.114   6.420   2.707
25121WAT     H175605   6.078   6.342   2.655
25121WAT     H275606   6.212   6.405   2.724
25122WAT      O75607   1.405   5.230   1.921
25122WAT     H175608   1.435   5.189   1.835
25122WAT     H275609   1.388   5.327   1.909
25123WAT      O75610   8.738   8.597   4.761
25123WAT     H175611   8.730   8.680   4.817
25123WAT     H275612   8.653   8.545   4.767
25124WAT      O75613   7.659   8.755   2.926
25124WAT     H175614   7.753   8.749   2.893
25124WAT     H275615   7.653   8.826   2.997
25125WAT      O75616   0.621   8.630   6.065
25125WAT     H175617   0.656   8.538   6.046
25125WAT     H275618   0.644   8.691   5.990
25126WAT      O75619   3.211   7.726   1.513
25126WAT     H175620   3.203   7.821   1.485
25126WAT     H275621   3.219   7.668   1.433
25127WAT      O75622   9.257   8.957   2.179
25127WAT     H175623   9.217   8.907   2.256
25127WAT     H275624   9.355   8.967   2.194
25128WAT      O75625   1.736   0.868   3.033
25128WAT     H175626   1.786   0.898   3.114
25128WAT     H275627   1.797   0.866   2.954
25129WAT      O75628   8.542   1.966   1.825
25129WAT     H175629   8.583   2.045   1.869
25129WAT     H275630   8.592   1.884   1.850
25130WAT      O75631   2.060   7.049   7.241
25130WAT     H175632   2.159   7.065   7.238
25130WAT     H275633   2.012   7.128   7.203
25131WAT      O75634   6.522   8.930   1.004
25131WAT     H175635   6.621   8.944   1.009
25131WAT     H275636   6.501   8.868   0.928
25132WAT      O75637   9.699   2.455   0.510
25132WAT     H175638   9.743   2.365   0.507
25132WAT     H275639   9.599   2.443   0.513
25133WAT      O75640   0.017   7.083   6.076
25133WAT     H175641   0.074   7.097   5.995
25133WAT     H275642  -0.066   7.033   6.050
25134WAT      O75643   2.574   9.423   6.416
25134WAT     H175644   2.572   9.522   6.427
25134WAT     H275645   2.627   9.400   6.334
25135WAT      O75646   2.738   3.803   6.196
25135WAT     H175647   2.670   3.809   6.123
25135WAT     H275648   2.826   3.774   6.158
25136WAT      O75649   0.737   1.180   9.416
25136WAT     H175650   0.679   1.255   9.448
25136WAT     H275651   0.809   1.162   9.483
25137WAT      O75652   4.649   9.207   4.476
25137WAT     H175653   4.649   9.241   4.570
25137WAT     H275654   4.554   9.191   4.447
25138WAT      O75655   4.465   3.885   3.902
25138WAT     H175656   4.379   3.835   3.907
25138WAT     H275657   4.536   3.837   3.954
25139WAT      O75658   3.072   5.718   4.731
25139WAT     H175659   3.053   5.749   4.824
25139WAT     H275660   2.996   5.663   4.698
25140WAT      O75661   0.378   8.309   6.738
25140WAT     H175662   0.319   8.373   6.787
25140WAT     H275663   0.422   8.355   6.661
25141WAT      O75664   4.445   8.059   1.881
25141WAT     H175665   4.381   8.046   1.805
25141WAT     H275666   4.424   7.994   1.953
25142WAT      O75667   3.576   3.131   7.490
25142WAT     H175668   3.571   3.172   7.399
25142WAT     H275669   3.521   3.184   7.554
25143WAT      O75670   4.447   7.708   5.050
25143WAT     H175671   4.513   7.783   5.044
25143WAT     H275672   4.391   7.719   5.132
25144WAT      O75673   6.138   9.337   8.888
25144WAT     H175674   6.218   9.348   8.947
25144WAT     H275675   6.168   9.336   8.793
25145WAT      O75676   5.892   8.863   6.427
25145WAT     H175677   5.835   8.824   6.354
25145WAT     H275678   5.982   8.820   6.426
25146WAT      O75679   9.880   4.116   6.546
25146WAT     H175680   9.908   4.089   6.454
25146WAT     H275681   9.842   4.036   6.594
25147WAT      O75682   3.632   3.480   2.618
25147WAT     H175683   3.621   3.382   2.606
25147WAT     H275684   3.596   3.508   2.707
25148WAT      O75685   0.754   7.476   0.279
25148WAT     H175686   0.777   7.382   0.253
25148WAT     H275687   0.774   7.537   0.203
25149WAT      O75688   4.790   0.653   7.426
25149WAT     H175689   4.803   0.619   7.519
25149WAT     H275690   4.849   0.732   7.411
25150WAT      O75691   0.200   6.233   3.332
25150WAT     H175692   0.174   6.324   3.300
25150WAT     H275693   0.117   6.178   3.348
25151WAT      O75694   4.961   6.641   7.617
25151WAT     H175695   4.863   6.661   7.619
25151WAT     H275696   5.007   6.703   7.554
25152WAT      O75697   7.463   2.661   2.389
25152WAT     H175698   7.370   2.627   2.376
25152WAT     H275699   7.468   2.757   2.363
25153WAT      O75700   7.712   8.114   5.329
25153WAT     H175701   7.777   8.112   5.405
25153WAT     H275702   7.626   8.073   5.358
25154WAT      O75703   2.286   4.182   8.496
25154WAT     H175704   2.274   4.235   8.412
25154WAT     H275705   2.374   4.204   8.538
25155WAT      O75706   0.447   9.721   5.460
25155WAT     H175707   0.351   9.725   5.487
25155WAT     H275708   0.502   9.774   5.524
25156WAT      O75709   8.611   7.928   3.479
25156WAT     H175710   8.558   7.954   3.399
25156WAT     H275711   8.670   8.003   3.507
25157WAT      O75712   5.566   2.734   4.003
25157WAT     H175713   5.517   2.814   4.039
25157WAT     H275714   5.503   2.657   3.996
25158WAT      O75715   0.620   4.873   9.489
25158WAT     H175716   0.619   4.800   9.556
25158WAT     H275717   0.531   4.918   9.486
25159WAT      O75718   2.156   5.525   5.637
25159WAT     H175719   2.094   5.596   5.603
25159WAT     H275720   2.213   5.493   5.561
25160WAT      O75721   1.742   7.738   9.886
25160WAT     H175722   1.662   7.681   9.867
25160WAT     H275723   1.802   7.690   9.950
25161WAT      O75724   8.953   5.431   0.673
25161WAT     H175725   8.900   5.501   0.624
25161WAT     H275726   8.969   5.462   0.767
25162WAT      O75727   5.835   9.356   0.499
25162WAT     H175728   5.773   9.291   0.455
25162WAT     H275729   5.884   9.310   0.574
25163WAT      O75730   5.867   6.874   1.088
25163WAT     H175731   5.950   6.835   1.047
25163WAT     H275732   5.804   6.800   1.112
25164WAT      O75733   5.032   5.664   4.009
25164WAT     H175734   4.935   5.647   4.026
25164WAT     H275735   5.058   5.624   3.922
25165WAT      O75736   7.644   4.844   0.677
25165WAT     H175737   7.737   4.864   0.709
25165WAT     H275738   7.588   4.814   0.755
25166WAT      O75739   3.598   2.264   9.016
25166WAT     H175740   3.642   2.319   9.087
25166WAT     H275741   3.665   2.200   8.977
25167WAT      O75742   4.451   0.648   4.175
25167WAT     H175743   4.444   0.567   4.232
25167WAT     H275744   4.437   0.730   4.231
25168WAT      O75745   0.427   7.202   1.657
25168WAT     H175746   0.386   7.114   1.637
25168WAT     H275747   0.358   7.263   1.696
25169WAT      O75748   0.151   3.076   6.385
25169WAT     H175749   0.161   2.999   6.447
25169WAT     H275750   0.203   3.154   6.419
25170WAT      O75751   5.303   6.444   8.489
25170WAT     H175752   5.377   6.378   8.486
25170WAT     H275753   5.277   6.460   8.585
25171WAT      O75754   9.524   7.747   9.162
25171WAT     H175755   9.474   7.667   9.196
25171WAT     H275756   9.556   7.729   9.069
25172WAT      O75757   9.832   8.797   5.985
25172WAT     H175758   9.827   8.844   6.072
25172WAT     H275759   9.741   8.764   5.959
25173WAT      O75760   2.601   2.785   4.212
25173WAT     H175761   2.562   2.763   4.123
25173WAT     H275762   2.635   2.879   4.212
25174WAT      O75763   4.444   6.648   4.487
25174WAT     H175764   4.364   6.668   4.545
25174WAT     H275765   4.448   6.713   4.411
25175WAT      O75766   9.164   3.377   4.442
25175WAT     H175767   9.064   3.375   4.435
25175WAT     H275768   9.191   3.418   4.529
25176WAT      O75769   4.929   2.871   1.229
25176WAT     H175770   4.931   2.951   1.290
25176WAT     H275771   4.963   2.898   1.139
25177WAT      O75772   7.163   7.236   9.249
25177WAT     H175773   7.069   7.229   9.283
25177WAT     H275774   7.220   7.283   9.317
25178WAT      O75775   7.857   9.136   1.938
25178WAT     H175776   7.954   9.111   1.943
25178WAT     H275777   7.849   9.235   1.933
25179WAT      O75778   1.924   7.817   6.367
25179WAT     H175779   1.828   7.837   6.390
25179WAT     H275780   1.931   7.724   6.333
25180WAT      O75781   1.456   4.777   5.433
25180WAT     H175782   1.402   4.693   5.427
25180WAT     H275783   1.395   4.854   5.455
25181WAT      O75784   9.466   7.520   5.281
25181WAT     H175785   9.395   7.451   5.271
25181WAT     H275786   9.458   7.587   5.207
25182WAT      O75787   1.745   0.901   5.671
25182WAT     H175788   1.651   0.922   5.645
25182WAT     H275789   1.808   0.935   5.601
25183WAT      O75790   5.242   8.910   4.651
25183WAT     H175791   5.262   8.985   4.589
25183WAT     H275792   5.144   8.891   4.652
25184WAT      O75793   8.316   5.236   8.222
25184WAT     H175794   8.391   5.269   8.279
25184WAT     H275795   8.250   5.187   8.279
25185WAT      O75796   6.392   5.328   3.463
25185WAT     H175797   6.351   5.289   3.546
25185WAT     H275798   6.335   5.404   3.431
25186WAT      O75799   2.256   6.283   5.150
25186WAT     H175800   2.258   6.260   5.247
25186WAT     H275801   2.184   6.231   5.104
25187WAT      O75802   7.770   4.372   9.533
25187WAT     H175803   7.738   4.431   9.459
25187WAT     H275804   7.757   4.276   9.508
25188WAT      O75805   7.061   5.117   9.295
25188WAT     H175806   7.048   5.023   9.265
25188WAT     H275807   7.009   5.178   9.236
25189WAT      O75808   2.939   4.566   0.920
25189WAT     H175809   2.884   4.585   0.839
25189WAT     H275810   2.899   4.490   0.971
25190WAT      O75811   7.633   0.676   4.159
25190WAT     H175812   7.533   0.670   4.152
25190WAT     H275813   7.667   0.597   4.211
25191WAT      O75814   9.400   7.111   1.199
25191WAT     H175815   9.360   7.201   1.183
25191WAT     H275816   9.495   7.110   1.166
25192WAT      O75817   8.211   3.013   7.375
25192WAT     H175818   8.161   3.100   7.381
25192WAT     H275819   8.236   2.982   7.467
25193WAT      O75820   9.860   5.210   5.289
25193WAT     H175821   9.790   5.183   5.224
25193WAT     H275822   9.942   5.154   5.275
25194WAT      O75823   5.486   5.400   0.827
25194WAT     H175824   5.545   5.471   0.788
25194WAT     H275825   5.392   5.413   0.793
25195WAT      O75826   4.682   2.821   5.120
25195WAT     H175827   4.723   2.730   5.120
25195WAT     H275828   4.583   2.812   5.135
25196WAT      O75829   2.589   5.172   6.465
25196WAT     H175830   2.533   5.254   6.475
25196WAT     H275831   2.534   5.099   6.424
25197WAT      O75832   5.840   3.896   2.822
25197WAT     H175833   5.882   3.915   2.911
25197WAT     H275834   5.892   3.941   2.750
25198WAT      O75835   6.825   4.832   0.191
25198WAT     H175836   6.903   4.882   0.228
25198WAT     H275837   6.825   4.739   0.228
25199WAT      O75838   0.650   4.295   8.096
25199WAT     H175839   0.728   4.309   8.035
25199WAT     H275840   0.605   4.208   8.073
25200WAT      O75841   9.743   6.444   6.919
25200WAT     H175842   9.688   6.515   6.963
25200WAT     H275843   9.683   6.382   6.868
25201WAT      O75844   3.297   5.032   3.870
25201WAT     H175845   3.338   5.123   3.874
25201WAT     H275846   3.368   4.963   3.883
25202WAT      O75847   0.062   8.321   4.862
25202WAT     H175848   0.130   8.298   4.792
25202WAT     H275849   0.074   8.261   4.940
25203WAT      O75850   2.925   9.246   1.725
25203WAT     H175851   2.954   9.210   1.636
25203WAT     H275852   2.979   9.327   1.748
25204WAT      O75853   1.001   5.162   2.882
25204WAT     H175854   1.050   5.224   2.820
25204WAT     H275855   0.958   5.089   2.829
25205WAT      O75856   0.408   0.713   3.813
25205WAT     H175857   0.429   0.810   3.821
25205WAT     H275858   0.493   0.660   3.812
25206WAT      O75859   0.751   3.510   2.348
25206WAT     H175860   0.798   3.425   2.325
25206WAT     H275861   0.740   3.515   2.448
25207WAT      O75862   9.852   9.470   9.605
25207WAT     H175863   9.813   9.406   9.670
25207WAT     H275864   9.934   9.512   9.644
25208WAT      O75865   5.941   3.733   5.503
25208WAT     H175866   5.933   3.736   5.403
25208WAT     H275867   6.015   3.794   5.533
25209WAT      O75868   4.212   2.376   2.248
25209WAT     H175869   4.241   2.427   2.330
25209WAT     H275870   4.193   2.281   2.273
25210WAT      O75871   3.873   1.115   9.294
25210WAT     H175872   3.962   1.153   9.318
25210WAT     H275873   3.810   1.188   9.269
25211WAT      O75874   1.687   2.890   3.697
25211WAT     H175875   1.654   2.871   3.605
25211WAT     H275876   1.635   2.966   3.736
25212WAT      O75877   7.943   0.044   9.376
25212WAT     H175878   8.032   0.013   9.407
25212WAT     H275879   7.874  -0.025   9.396
25213WAT      O75880   0.917   1.179   4.203
25213WAT     H175881   0.834   1.212   4.249
25213WAT     H275882   0.943   1.243   4.130
25214WAT      O75883   3.176   3.629   6.137
25214WAT     H175884   3.120   3.641   6.055
25214WAT     H275885   3.138   3.683   6.212
25215WAT      O75886   7.870   8.701   1.931
25215WAT     H175887   7.857   8.602   1.940
25215WAT     H275888   7.818   8.735   1.853
25216WAT      O75889   7.253   0.779   0.300
25216WAT     H175890   7.235   0.685   0.271
25216WAT     H275891   7.305   0.826   0.229
25217WAT      O75892   1.032   7.812   4.985
25217WAT     H175893   1.032   7.892   5.045
25217WAT     H275894   1.075   7.735   5.033
25218WAT      O75895   4.275   0.854   8.113
25218WAT     H175896   4.224   0.768   8.122
25218WAT     H275897   4.328   0.871   8.196
25219WAT      O75898   8.807   6.922   6.126
25219WAT     H175899   8.887   6.952   6.178
25219WAT     H275900   8.725   6.933   6.183
25220WAT      O75901   7.821   8.323   7.695
25220WAT     H175902   7.778   8.344   7.608
25220WAT     H275903   7.901   8.266   7.680
25221WAT      O75904   5.190   7.502   7.326
25221WAT     H175905   5.112   7.556   7.292
25221WAT     H275906   5.157   7.413   7.358
25222WAT      O75907   4.685   8.898   5.181
25222WAT     H175908   4.690   8.843   5.097
25222WAT     H275909   4.590   8.905   5.211
25223WAT      O75910   6.600   3.918   7.376
25223WAT     H175911   6.681   3.862   7.391
25223WAT     H275912   6.531   3.865   7.326
25224WAT      O75913   1.912   0.761   1.986
25224WAT     H175914   1.981   0.710   2.038
25224WAT     H275915   1.918   0.736   1.890
25225WAT      O75916   7.022   5.234   2.044
25225WAT     H175917   7.034   5.168   2.118
25225WAT     H275918   6.996   5.323   2.081
25226WAT      O75919   2.034   7.205   6.883
25226WAT     H175920   2.080   7.137   6.939
25226WAT     H275921   2.097   7.241   6.815
25227WAT      O75922   2.794   8.151   1.423
25227WAT     H175923   2.837   8.061   1.420
25227WAT     H275924   2.825   8.206   1.346
25228WAT      O75925   9.567   1.118   3.289
25228WAT     H175926   9.565   1.021   3.310
25228WAT     H275927   9.561   1.172   3.373
25229WAT      O75928   8.776   2.332   1.214
25229WAT     H175929   8.853   2.394   1.197
25229WAT     H275930   8.733   2.310   1.127
25230WAT      O75931   5.305   8.981   6.391
25230WAT     H175932   5.274   9.024   6.476
25230WAT     H275933   5.359   8.900   6.412
25231WAT      O75934   5.701   9.458   9.671
25231WAT     H175935   5.793   9.498   9.671
25231WAT     H275936   5.633   9.531   9.682
25232WAT      O75937   0.053   0.495   5.723
25232WAT     H175938   0.098   0.487   5.811
25232WAT     H275939   0.116   0.537   5.657
25233WAT      O75940   6.649   8.250   0.733
25233WAT     H175941   6.678   8.224   0.825
25233WAT     H275942   6.553   8.279   0.735
25234WAT      O75943   3.574   7.035   0.129
25234WAT     H175944   3.582   7.118   0.073
25234WAT     H275945   3.626   6.961   0.085
25235WAT      O75946   5.907   0.638   3.896
25235WAT     H175947   5.995   0.598   3.871
25235WAT     H275948   5.890   0.623   3.994
25236WAT      O75949   3.033   4.048   9.192
25236WAT     H175950   3.066   4.062   9.286
25236WAT     H275951   3.026   4.136   9.146
25237WAT      O75952   2.739   6.866   1.355
25237WAT     H175953   2.748   6.782   1.408
25237WAT     H275954   2.647   6.871   1.316
25238WAT      O75955   5.306   6.567   2.801
25238WAT     H175956   5.296   6.467   2.800
25238WAT     H275957   5.254   6.606   2.725
25239WAT      O75958   3.740   2.293   9.476
25239WAT     H175959   3.672   2.336   9.535
25239WAT     H275960   3.717   2.311   9.380
25240WAT      O75961   4.065   0.847   5.083
25240WAT     H175962   4.052   0.839   4.984
25240WAT     H275963   4.163   0.848   5.103
25241WAT      O75964   3.230   7.678   5.191
25241WAT     H175965   3.140   7.681   5.235
25241WAT     H275966   3.264   7.771   5.179
25242WAT      O75967   2.130   9.274   3.099
25242WAT     H175968   2.152   9.268   3.001
25242WAT     H275969   2.037   9.309   3.110
25243WAT      O75970   9.149   5.065   6.313
25243WAT     H175971   9.192   5.007   6.382
25243WAT     H275972   9.132   5.011   6.231
25244WAT      O75973   9.517   3.892   9.369
25244WAT     H175974   9.584   3.938   9.311
25244WAT     H275975   9.465   3.825   9.314
25245WAT      O75976   4.430   2.087   2.077
25245WAT     H175977   4.470   2.007   2.033
25245WAT     H275978   4.450   2.169   2.023
25246WAT      O75979   6.202   8.236   2.515
25246WAT     H175980   6.274   8.301   2.539
25246WAT     H275981   6.241   8.144   2.508
25247WAT      O75982   2.601   3.952   8.490
25247WAT     H175983   2.544   3.880   8.452
25247WAT     H275984   2.617   4.023   8.422
25248WAT      O75985   7.204   9.302   1.662
25248WAT     H175986   7.278   9.253   1.709
25248WAT     H275987   7.195   9.394   1.701
25249WAT      O75988   6.103   8.428   6.749
25249WAT     H175989   6.089   8.352   6.686
25249WAT     H275990   6.015   8.464   6.780
25250WAT      O75991   1.568   4.892   3.615
25250WAT     H175992   1.516   4.864   3.696
25250WAT     H275993   1.657   4.928   3.644
25251WAT      O75994   1.115   3.557   7.266
25251WAT     H175995   1.187   3.518   7.322
25251WAT     H275996   1.085   3.490   7.198
25252WAT      O75997   8.962   8.482   1.368
25252WAT     H175998   8.886   8.545   1.388
25252WAT     H275999   8.965   8.464   1.269
25253WAT      O76000   1.784   1.563   3.548
25253WAT     H176001   1.709   1.554   3.614
25253WAT     H276002   1.788   1.658   3.516
25254WAT      O76003   0.930   9.329   9.310
25254WAT     H176004   1.029   9.319   9.320
25254WAT     H276005   0.889   9.349   9.398
25255WAT      O76006   3.402   0.348   0.919
25255WAT     H176007   3.332   0.361   0.989
25255WAT     H276008   3.465   0.276   0.948
25256WAT      O76009   4.568   5.117   5.178
25256WAT     H176010   4.597   5.211   5.161
25256WAT     H276011   4.634   5.054   5.136
25257WAT      O76012   8.850   2.256   3.705
25257WAT     H176013   8.802   2.278   3.620
25257WAT     H276014   8.790   2.274   3.783
25258WAT      O76015   1.581   9.192   6.404
25258WAT     H176016   1.659   9.130   6.403
25258WAT     H276017   1.612   9.286   6.390
25259WAT      O76018   1.723   6.009   6.975
25259WAT     H176019   1.761   5.946   6.908
25259WAT     H276020   1.717   6.101   6.936
25260WAT      O76021   8.564   9.146   3.766
25260WAT     H176022   8.494   9.114   3.830
25260WAT     H276023   8.534   9.129   3.672
25261WAT      O76024   2.616   3.533   0.291
25261WAT     H176025   2.697   3.571   0.246
25261WAT     H276026   2.637   3.515   0.387
25262WAT      O76027   6.724   2.957   6.283
25262WAT     H176028   6.772   2.909   6.209
25262WAT     H276029   6.638   2.995   6.247
25263WAT      O76030   6.887   0.556   4.361
25263WAT     H176031   6.965   0.536   4.302
25263WAT     H276032   6.804   0.517   4.322
25264WAT      O76033   1.283   3.875   8.515
25264WAT     H176034   1.367   3.882   8.461
25264WAT     H276035   1.250   3.967   8.536
25265WAT      O76036   5.769   1.285   4.972
25265WAT     H176037   5.710   1.266   4.894
25265WAT     H276038   5.831   1.360   4.950
25266WAT      O76039   8.212   2.400   3.052
25266WAT     H176040   8.221   2.357   2.962
25266WAT     H276041   8.119   2.384   3.087
25267WAT      O76042   6.277   6.604   8.669
25267WAT     H176043   6.297   6.583   8.573
25267WAT     H276044   6.318   6.535   8.728
25268WAT      O76045   4.018   7.177   0.494
25268WAT     H176046   4.096   7.152   0.551
25268WAT     H276047   4.049   7.236   0.420
25269WAT      O76048   2.495   9.532   2.682
25269WAT     H176049   2.406   9.565   2.713
25269WAT     H276050   2.552   9.609   2.654
25270WAT      O76051   2.447   9.716   5.066
25270WAT     H176052   2.363   9.746   5.111
25270WAT     H276053   2.431   9.705   4.968
25271WAT      O76054   4.083   3.459   8.917
25271WAT     H176055   4.051   3.537   8.970
25271WAT     H276056   4.054   3.374   8.961
25272WAT      O76057   0.134   5.751   9.544
25272WAT     H176058   0.136   5.814   9.621
25272WAT     H276059   0.183   5.667   9.568
25273WAT      O76060   5.364   1.780   6.709
25273WAT     H176061   5.290   1.804   6.771
25273WAT     H276062   5.421   1.709   6.751
25274WAT      O76063   1.405   9.289   5.904
25274WAT     H176064   1.405   9.384   5.870
25274WAT     H276065   1.314   9.250   5.896
25275WAT      O76066   1.809   0.366   2.992
25275WAT     H176067   1.736   0.403   3.050
25275WAT     H276068   1.895   0.368   3.042
25276WAT      O76069   2.648   1.970   5.677
25276WAT     H176070   2.633   1.952   5.774
25276WAT     H276071   2.562   1.999   5.634
25277WAT      O76072   8.093   3.383   8.221
25277WAT     H176073   8.052   3.304   8.176
25277WAT     H276074   8.189   3.363   8.242
25278WAT      O76075   6.669   8.236   0.229
25278WAT     H176076   6.742   8.174   0.255
25278WAT     H276077   6.670   8.248   0.130
25279WAT      O76078   0.241   5.895   6.393
25279WAT     H176079   0.145   5.872   6.376
25279WAT     H276080   0.300   5.819   6.362
25280WAT      O76081   9.000   1.829   6.824
25280WAT     H176082   9.018   1.916   6.778
25280WAT     H276083   8.901   1.810   6.821
25281WAT      O76084   5.590   9.410   9.255
25281WAT     H176085   5.670   9.388   9.310
25281WAT     H276086   5.508   9.413   9.313
25282WAT      O76087   1.519   6.102   8.540
25282WAT     H176088   1.603   6.060   8.573
25282WAT     H276089   1.467   6.138   8.617
25283WAT      O76090   5.857   0.767   2.897
25283WAT     H176091   5.886   0.784   2.992
25283WAT     H276092   5.789   0.836   2.871
25284WAT      O76093   3.978   5.838   8.550
25284WAT     H176094   3.978   5.919   8.609
25284WAT     H276095   3.959   5.757   8.605
25285WAT      O76096   1.458   9.442   5.020
25285WAT     H176097   1.471   9.389   5.104
25285WAT     H276098   1.547   9.473   4.986
25286WAT      O76099   7.998   7.764   8.028
25286WAT     H176100   8.069   7.816   7.982
25286WAT     H276101   8.037   7.682   8.069
25287WAT      O76102   5.438   0.059   4.744
25287WAT     H176103   5.409   0.010   4.662
25287WAT     H276104   5.501   0.133   4.719
25288WAT      O76105   3.120   5.806   2.625
25288WAT     H176106   3.036   5.796   2.572
25288WAT     H276107   3.199   5.782   2.569
25289WAT      O76108   4.003   9.532   8.416
25289WAT     H176109   3.934   9.587   8.464
25289WAT     H276110   4.035   9.459   8.477
25290WAT      O76111   7.003   3.126   1.312
25290WAT     H176112   6.966   3.219   1.318
25290WAT     H276113   7.044   3.100   1.399
25291WAT      O76114   8.136   0.500   1.617
25291WAT     H176115   8.047   0.476   1.579
25291WAT     H276116   8.187   0.417   1.638
25292WAT      O76117   6.736   9.086   6.288
25292WAT     H176118   6.773   9.014   6.346
25292WAT     H276119   6.716   9.167   6.343
25293WAT      O76120   6.517   1.405   9.469
25293WAT     H176121   6.561   1.485   9.427
25293WAT     H276122   6.576   1.368   9.541
25294WAT      O76123   5.116   9.448   9.886
25294WAT     H176124   5.103   9.483   9.978
25294WAT     H276125   5.107   9.523   9.820
25295WAT      O76126   6.361   3.493   0.195
25295WAT     H176127   6.422   3.552   0.143
25295WAT     H276128   6.296   3.449   0.132
25296WAT      O76129   7.907   8.132   4.291
25296WAT     H176130   7.811   8.147   4.314
25296WAT     H276131   7.959   8.114   4.374
25297WAT      O76132   1.600   3.891   5.845
25297WAT     H176133   1.569   3.937   5.927
25297WAT     H276134   1.607   3.793   5.862
25298WAT      O76135   3.374   7.969   9.172
25298WAT     H176136   3.360   7.929   9.262
25298WAT     H276137   3.311   8.045   9.158
25299WAT      O76138   4.824   1.519   4.040
25299WAT     H176139   4.732   1.544   4.072
25299WAT     H276140   4.821   1.502   3.941
25300WAT      O76141   7.719   2.190   3.332
25300WAT     H176142   7.709   2.095   3.361
25300WAT     H276143   7.768   2.192   3.244
25301WAT      O76144   5.510   4.881   6.808
25301WAT     H176145   5.485   4.897   6.712
25301WAT     H276146   5.565   4.958   6.841
25302WAT      O76147   0.944   9.656   9.096
25302WAT     H176148   1.034   9.700   9.103
25302WAT     H276149   0.905   9.645   9.187
25303WAT      O76150   7.928   2.894   1.110
25303WAT     H176151   7.927   2.933   1.019
25303WAT     H276152   8.022   2.871   1.137
25304WAT      O76153   7.643   4.132   7.693
25304WAT     H176154   7.644   4.033   7.710
25304WAT     H276155   7.736   4.162   7.669
25305WAT      O76156   3.893   6.201   6.397
25305WAT     H176157   3.966   6.259   6.361
25305WAT     H276158   3.825   6.257   6.444
25306WAT      O76159   8.785   6.416   6.795
25306WAT     H176160   8.767   6.513   6.778
25306WAT     H276161   8.709   6.362   6.761
25307WAT      O76162   6.307   1.189   6.660
25307WAT     H176163   6.250   1.228   6.587
25307WAT     H276164   6.351   1.263   6.711
25308WAT      O76165   4.177   4.966   0.629
25308WAT     H176166   4.157   4.887   0.571
25308WAT     H276167   4.269   4.956   0.668
25309WAT      O76168   1.869   9.318   7.458
25309WAT     H176169   1.924   9.384   7.509
25309WAT     H276170   1.845   9.356   7.369
25310WAT      O76171   7.730   0.303   8.828
25310WAT     H176172   7.679   0.389   8.818
25310WAT     H276173   7.717   0.247   8.746
25311WAT      O76174   3.851   4.518   4.588
25311WAT     H176175   3.862   4.510   4.687
25311WAT     H276176   3.794   4.598   4.567
25312WAT      O76177   6.345   0.744   6.870
25312WAT     H176178   6.245   0.734   6.875
25312WAT     H276179   6.367   0.834   6.833
25313WAT      O76180   2.308   3.331   7.047
25313WAT     H176181   2.349   3.413   7.007
25313WAT     H276182   2.253   3.284   6.978
25314WAT      O76183   3.369   5.087   8.817
25314WAT     H176184   3.293   5.142   8.782
25314WAT     H276185   3.411   5.133   8.895
25315WAT      O76186   1.948   0.754   0.995
25315WAT     H176187   1.998   0.814   0.933
25315WAT     H276188   1.899   0.684   0.943
25316WAT      O76189   2.858   7.119   2.315
25316WAT     H176190   2.776   7.075   2.279
25316WAT     H276191   2.832   7.183   2.388
25317WAT      O76192   4.447   8.560   8.508
25317WAT     H176193   4.436   8.481   8.568
25317WAT     H276194   4.441   8.644   8.561
25318WAT      O76195   8.743   6.656   1.405
25318WAT     H176196   8.644   6.644   1.397
25318WAT     H276197   8.788   6.566   1.406
25319WAT      O76198   1.099   4.139   7.463
25319WAT     H176199   1.189   4.177   7.486
25319WAT     H276200   1.107   4.041   7.447
25320WAT      O76201   8.971   9.843   9.311
25320WAT     H176202   8.936   9.762   9.264
25320WAT     H276203   9.059   9.869   9.272
25321WAT      O76204   8.998   0.184   0.604
25321WAT     H176205   8.936   0.227   0.539
25321WAT     H276206   9.000   0.236   0.689
25322WAT      O76207   5.154   1.058   9.513
25322WAT     H176208   5.119   1.011   9.594
25322WAT     H276209   5.112   1.148   9.505
25323WAT      O76210   0.134   6.496   3.299
25323WAT     H176211   0.034   6.498   3.301
25323WAT     H276212   0.168   6.570   3.240
25324WAT      O76213   0.052   8.815   4.889
25324WAT     H176214  -0.014   8.877   4.845
25324WAT     H276215   0.144   8.837   4.858
25325WAT      O76216   9.666   2.099   9.731
25325WAT     H176217   9.643   2.114   9.827
25325WAT     H276218   9.584   2.071   9.681
25326WAT      O76219   4.382   3.038   4.938
25326WAT     H176220   4.470   3.075   4.907
25326WAT     H276221   4.380   2.939   4.922
25327WAT      O76222   6.547   4.576   8.350
25327WAT     H176223   6.464   4.602   8.399
25327WAT     H276224   6.536   4.483   8.315
25328WAT      O76225   8.037   2.758   0.071
25328WAT     H176226   8.034   2.835   0.008
25328WAT     H276227   7.967   2.691   0.046
25329WAT      O76228   8.373   5.381   6.370
25329WAT     H176229   8.414   5.386   6.462
25329WAT     H276230   8.277   5.406   6.376
25330WAT      O76231   0.393   2.323   5.342
25330WAT     H176232   0.436   2.233   5.355
25330WAT     H276233   0.464   2.394   5.342
25331WAT      O76234   3.185   2.022   9.345
25331WAT     H176235   3.151   2.001   9.437
25331WAT     H276236   3.285   2.030   9.347
25332WAT      O76237   8.267   5.694   9.569
25332WAT     H176238   8.329   5.628   9.611
25332WAT     H276239   8.316   5.778   9.548
25333WAT      O76240   3.390   3.013   4.287
25333WAT     H176241   3.348   2.967   4.209
25333WAT     H276242   3.363   2.965   4.371
25334WAT      O76243   3.873   9.129   2.970
25334WAT     H176244   3.786   9.164   2.934
25334WAT     H276245   3.880   9.031   2.953
25335WAT      O76246   7.772   6.697   5.487
25335WAT     H176247   7.757   6.626   5.555
25335WAT     H276248   7.790   6.785   5.532
25336WAT      O76249   3.171   2.830   6.165
25336WAT     H176250   3.110   2.854   6.241
25336WAT     H276251   3.116   2.806   6.085
25337WAT      O76252   0.496   7.214   7.011
25337WAT     H176253   0.477   7.125   6.970
25337WAT     H276254   0.411   7.268   7.015
25338WAT      O76255   1.785   1.149   0.953
25338WAT     H176256   1.760   1.102   1.037
25338WAT     H276257   1.861   1.211   0.970
25339WAT      O76258   7.236   0.732   6.644
25339WAT     H176259   7.211   0.829   6.651
25339WAT     H276260   7.333   0.724   6.622
25340WAT      O76261   4.864   1.873   8.361
25340WAT     H176262   4.844   1.818   8.281
25340WAT     H276263   4.955   1.912   8.353
25341WAT      O76264   4.098   1.856   6.046
25341WAT     H176265   4.173   1.815   6.099
25341WAT     H276266   4.120   1.854   5.949
25342WAT      O76267   0.825   7.924   2.074
25342WAT     H176268   0.774   7.870   2.141
25342WAT     H276269   0.831   8.019   2.105
25343WAT      O76270   0.912   7.223   9.020
25343WAT     H176271   0.867   7.154   8.964
25343WAT     H276272   0.883   7.314   8.991
25344WAT      O76273   0.996   6.559   4.061
25344WAT     H176274   1.048   6.509   3.993
25344WAT     H276275   1.049   6.638   4.093
25345WAT      O76276   1.392   0.684   0.795
25345WAT     H176277   1.336   0.765   0.776
25345WAT     H276278   1.468   0.709   0.854
25346WAT      O76279   4.612   1.108   1.725
25346WAT     H176280   4.710   1.087   1.716
25346WAT     H276281   4.581   1.154   1.642
25347WAT      O76282   6.394   9.641   6.287
25347WAT     H176283   6.297   9.617   6.297
25347WAT     H276284   6.410   9.733   6.323
25348WAT      O76285   9.736   4.501   8.811
25348WAT     H176286   9.661   4.566   8.798
25348WAT     H276287   9.700   4.413   8.843
25349WAT      O76288   0.828   5.655   8.687
25349WAT     H176289   0.754   5.698   8.737
25349WAT     H276290   0.792   5.580   8.631
25350WAT      O76291   4.498   3.051   6.125
25350WAT     H176292   4.455   3.108   6.056
25350WAT     H276293   4.598   3.061   6.119
25351WAT      O76294   9.026   8.373   5.481
25351WAT     H176295   8.998   8.422   5.399
25351WAT     H276296   8.962   8.393   5.556
25352WAT      O76297   6.484   7.671   2.341
25352WAT     H176298   6.496   7.624   2.428
25352WAT     H276299   6.456   7.766   2.358
25353WAT      O76300   4.338   5.750   5.876
25353WAT     H176301   4.301   5.812   5.807
25353WAT     H276302   4.403   5.799   5.935
25354WAT      O76303   1.736   4.523   3.590
25354WAT     H176304   1.760   4.572   3.673
25354WAT     H276305   1.731   4.587   3.513
25355WAT      O76306   6.136   6.779   6.424
25355WAT     H176307   6.097   6.860   6.380
25355WAT     H276308   6.109   6.777   6.521
25356WAT      O76309   2.083   6.818   8.023
25356WAT     H176310   2.090   6.917   8.036
25356WAT     H276311   2.076   6.797   7.926
25357WAT      O76312   6.152   3.762   4.664
25357WAT     H176313   6.065   3.716   4.648
25357WAT     H276314   6.154   3.848   4.614
25358WAT      O76315   7.589   4.069   6.489
25358WAT     H176316   7.547   4.136   6.550
25358WAT     H276317   7.631   3.996   6.543
25359WAT      O76318   2.777   4.053   5.953
25359WAT     H176319   2.752   4.091   5.864
25359WAT     H276320   2.694   4.021   6.000
25360WAT      O76321   6.420   0.877   0.893
25360WAT     H176322   6.493   0.897   0.828
25360WAT     H276323   6.417   0.779   0.911
25361WAT      O76324   7.402   9.218   5.268
25361WAT     H176325   7.456   9.263   5.198
25361WAT     H276326   7.439   9.126   5.284
25362WAT      O76327   5.434   7.217   6.614
25362WAT     H176328   5.434   7.276   6.696
25362WAT     H276329   5.356   7.241   6.556
25363WAT      O76330   5.170   0.131   1.325
25363WAT     H176331   5.233   0.104   1.252
25363WAT     H276332   5.222   0.173   1.400
25364WAT      O76333   1.016   0.553   8.862
25364WAT     H176334   1.036   0.582   8.956
25364WAT     H276335   0.994   0.455   8.862
25365WAT      O76336   2.837   2.609   8.144
25365WAT     H176337   2.927   2.631   8.105
25365WAT     H276338   2.785   2.693   8.156
25366WAT      O76339   1.983   5.511   3.509
25366WAT     H176340   2.029   5.457   3.439
25366WAT     H276341   1.892   5.536   3.478
25367WAT      O76342   2.342   1.398   7.336
25367WAT     H176343   2.429   1.395   7.385
25367WAT     H276344   2.355   1.439   7.246
25368WAT      O76345   4.107   1.372   8.269
25368WAT     H176346   4.168   1.451   8.282
25368WAT     H276347   4.012   1.404   8.270
25369WAT      O76348   8.112   6.479   8.240
25369WAT     H176349   8.173   6.513   8.169
25369WAT     H276350   8.166   6.456   8.322
25370WAT      O76351   4.513   1.228   6.083
25370WAT     H176352   4.430   1.191   6.126
25370WAT     H276353   4.487   1.293   6.012
25371WAT      O76354   9.141   5.371   6.322
25371WAT     H176355   9.140   5.285   6.271
25371WAT     H276356   9.161   5.352   6.418
25372WAT      O76357   4.517   9.631   1.618
25372WAT     H176358   4.575   9.666   1.544
25372WAT     H276359   4.456   9.560   1.582
25373WAT      O76360   4.204   3.962   5.171
25373WAT     H176361   4.279   4.028   5.166
25373WAT     H276362   4.213   3.895   5.098
25374WAT      O76363   9.088   2.120   4.779
25374WAT     H176364   9.094   2.025   4.749
25374WAT     H276365   9.094   2.124   4.879
25375WAT      O76366   3.828   9.026   5.778
25375WAT     H176367   3.893   9.091   5.739
25375WAT     H276368   3.860   8.995   5.867
25376WAT      O76369   8.845   8.317   4.106
25376WAT     H176370   8.830   8.381   4.031
25376WAT     H276371   8.763   8.261   4.119
25377WAT      O76372   1.943   5.528   9.637
25377WAT     H176373   1.993   5.525   9.551
25377WAT     H276374   1.974   5.607   9.691
25378WAT      O76375   8.491   9.600   7.597
25378WAT     H176376   8.584   9.621   7.627
25378WAT     H276377   8.477   9.501   7.597
25379WAT      O76378   8.999   4.467   4.769
25379WAT     H176379   9.092   4.442   4.741
25379WAT     H276380   8.934   4.401   4.732
25380WAT      O76381   5.240   5.186   1.183
25380WAT     H176382   5.255   5.256   1.253
25380WAT     H276383   5.327   5.142   1.162
25381WAT      O76384   6.891   8.088   2.520
25381WAT     H176385   6.894   8.019   2.592
25381WAT     H276386   6.876   8.044   2.432
25382WAT      O76387   0.819   5.480   3.962
25382WAT     H176388   0.781   5.558   4.010
25382WAT     H276389   0.848   5.410   4.028
25383WAT      O76390   3.001   1.882   0.837
25383WAT     H176391   3.069   1.869   0.764
25383WAT     H276392   2.918   1.831   0.814
25384WAT      O76393   7.163   5.874   1.490
25384WAT     H176394   7.120   5.963   1.508
25384WAT     H276395   7.139   5.844   1.397
25385WAT      O76396   0.946   5.755   9.285
25385WAT     H176397   0.997   5.746   9.200
25385WAT     H276398   0.939   5.852   9.310
25386WAT      O76399   7.190   8.096   5.065
25386WAT     H176400   7.273   8.044   5.082
25386WAT     H276401   7.157   8.080   4.972
25387WAT      O76402   8.375   3.172   8.923
25387WAT     H176403   8.364   3.073   8.928
25387WAT     H276404   8.295   3.212   8.878
25388WAT      O76405   9.163   4.284   8.678
25388WAT     H176406   9.069   4.257   8.656
25388WAT     H276407   9.197   4.228   8.754
25389WAT      O76408   7.810   7.218   3.094
25389WAT     H176409   7.906   7.206   3.119
25389WAT     H276410   7.801   7.293   3.029
25390WAT      O76411   3.607   4.831   2.576
25390WAT     H176412   3.601   4.772   2.495
25390WAT     H276413   3.657   4.914   2.554
25391WAT      O76414   5.235   7.601   3.745
25391WAT     H176415   5.315   7.644   3.787
25391WAT     H276416   5.230   7.505   3.772
25392WAT      O76417   5.853   9.351   7.446
25392WAT     H176418   5.884   9.381   7.536
25392WAT     H276419   5.903   9.400   7.375
25393WAT      O76420   1.523   1.981   0.011
25393WAT     H176421   1.456   2.025  -0.050
25393WAT     H276422   1.587   2.050   0.045
25394WAT      O76423   1.458   8.453   1.388
25394WAT     H176424   1.521   8.411   1.323
25394WAT     H276425   1.461   8.403   1.475
25395WAT      O76426   0.379   7.804   2.893
25395WAT     H176427   0.314   7.880   2.885
25395WAT     H276428   0.428   7.793   2.807
25396WAT      O76429   4.243   3.440   5.828
25396WAT     H176430   4.252   3.417   5.731
25396WAT     H276431   4.150   3.472   5.846
25397WAT      O76432   6.051   2.713   2.484
25397WAT     H176433   6.003   2.775   2.546
25397WAT     H276434   5.987   2.644   2.450
25398WAT      O76435   6.354   4.559   8.748
25398WAT     H176436   6.448   4.528   8.741
25398WAT     H276437   6.296   4.506   8.685
25399WAT      O76438   1.185   4.314   1.371
25399WAT     H176439   1.160   4.224   1.335
25399WAT     H276440   1.136   4.385   1.321
25400WAT      O76441   6.430   9.145   4.561
25400WAT     H176442   6.412   9.123   4.466
25400WAT     H276443   6.493   9.078   4.600
25401WAT      O76444   0.440   3.630   8.390
25401WAT     H176445   0.344   3.651   8.411
25401WAT     H276446   0.492   3.621   8.475
25402WAT      O76447   2.433   0.932   3.369
25402WAT     H176448   2.526   0.910   3.400
25402WAT     H276449   2.396   1.007   3.424
25403WAT      O76450   3.243   0.123   6.971
25403WAT     H176451   3.218   0.028   6.951
25403WAT     H276452   3.234   0.178   6.887
25404WAT      O76453   2.562   8.387   0.601
25404WAT     H176454   2.644   8.433   0.636
25404WAT     H276455   2.560   8.293   0.633
25405WAT      O76456   0.047   1.591   2.710
25405WAT     H176457  -0.037   1.608   2.760
25405WAT     H276458   0.126   1.606   2.770
25406WAT      O76459   9.351   3.608   3.980
25406WAT     H176460   9.297   3.622   3.897
25406WAT     H276461   9.293   3.569   4.052
25407WAT      O76462   8.779   6.681   8.886
25407WAT     H176463   8.781   6.687   8.986
25407WAT     H276464   8.770   6.586   8.858
25408WAT      O76465   8.262   1.703   9.643
25408WAT     H176466   8.269   1.800   9.618
25408WAT     H276467   8.232   1.650   9.564
25409WAT      O76468   2.769   3.425   1.365
25409WAT     H176469   2.857   3.436   1.318
25409WAT     H276470   2.778   3.355   1.436
25410WAT      O76471   4.976   8.292   8.087
25410WAT     H176472   4.902   8.358   8.097
25410WAT     H276473   4.983   8.237   8.171
25411WAT      O76474   2.131   4.991   7.073
25411WAT     H176475   2.087   4.949   7.153
25411WAT     H276476   2.122   5.090   7.079
25412WAT      O76477   5.434   1.737   3.608
25412WAT     H176478   5.382   1.759   3.526
25412WAT     H276479   5.446   1.638   3.615
25413WAT      O76480   5.018   6.486   1.999
25413WAT     H176481   4.975   6.505   2.087
25413WAT     H276482   4.998   6.561   1.936
25414WAT      O76483   4.224   4.695   0.587
25414WAT     H176484   4.153   4.638   0.546
25414WAT     H276485   4.308   4.688   0.534
25415WAT      O76486   6.764   4.341   2.624
25415WAT     H176487   6.785   4.309   2.532
25415WAT     H276488   6.815   4.286   2.691
25416WAT      O76489   0.992   5.130   9.877
25416WAT     H176490   1.004   5.036   9.907
25416WAT     H276491   0.931   5.133   9.798
25417WAT      O76492   9.660   8.718   0.357
25417WAT     H176493   9.690   8.793   0.297
25417WAT     H276494   9.688   8.738   0.451
25418WAT      O76495   8.329   6.968   3.707
25418WAT     H176496   8.268   6.923   3.642
25418WAT     H276497   8.352   6.905   3.781
25419WAT      O76498   1.531   6.497   0.572
25419WAT     H176499   1.595   6.502   0.495
25419WAT     H276500   1.489   6.406   0.575
25420WAT      O76501   5.523   8.711   1.762
25420WAT     H176502   5.488   8.780   1.699
25420WAT     H276503   5.446   8.665   1.807
25421WAT      O76504   1.691   5.672   0.156
25421WAT     H176505   1.775   5.627   0.185
25421WAT     H276506   1.656   5.730   0.229
25422WAT      O76507   4.165   3.759   0.782
25422WAT     H176508   4.255   3.757   0.827
25422WAT     H276509   4.093   3.754   0.851
25423WAT      O76510   7.613   7.157   8.645
25423WAT     H176511   7.588   7.171   8.741
25423WAT     H276512   7.598   7.062   8.620
25424WAT      O76513   7.852   1.513   0.340
25424WAT     H176514   7.853   1.550   0.433
25424WAT     H276515   7.944   1.484   0.314
25425WAT      O76516   9.083   4.589   6.778
25425WAT     H176517   9.062   4.544   6.691
25425WAT     H276518   9.114   4.521   6.844
25426WAT      O76519   0.932   1.162   7.294
25426WAT     H176520   0.869   1.097   7.252
25426WAT     H276521   0.991   1.202   7.224
25427WAT      O76522   8.561   4.524   5.785
25427WAT     H176523   8.568   4.425   5.771
25427WAT     H276524   8.549   4.569   5.696
25428WAT      O76525   1.164   6.616   2.994
25428WAT     H176526   1.158   6.586   3.090
25428WAT     H276527   1.222   6.697   2.988
25429WAT      O76528   5.396   6.895   9.369
25429WAT     H176529   5.299   6.869   9.374
25429WAT     H276530   5.424   6.901   9.274
25430WAT      O76531   9.783   2.821   4.963
25430WAT     H176532   9.822   2.829   4.872
25430WAT     H276533   9.683   2.819   4.956
25431WAT      O76534   0.824   5.558   2.110
25431WAT     H176535   0.924   5.556   2.104
25431WAT     H276536   0.795   5.645   2.150
25432WAT      O76537   8.253   3.000   7.647
25432WAT     H176538   8.208   2.911   7.641
25432WAT     H276539   8.299   3.008   7.735
25433WAT      O76540   6.310   2.246   8.310
25433WAT     H176541   6.211   2.256   8.323
25433WAT     H276542   6.328   2.170   8.248
25434WAT      O76543   0.397   8.762   4.689
25434WAT     H176544   0.496   8.776   4.690
25434WAT     H276545   0.366   8.750   4.594
25435WAT      O76546   2.233   6.748   1.523
25435WAT     H176547   2.246   6.847   1.515
25435WAT     H276548   2.180   6.728   1.605
25436WAT      O76549   3.905   2.881   6.509
25436WAT     H176550   3.921   2.911   6.603
25436WAT     H276551   3.853   2.795   6.509
25437WAT      O76552   7.643   8.207   0.774
25437WAT     H176553   7.570   8.271   0.750
25437WAT     H276554   7.639   8.188   0.872
25438WAT      O76555   7.273   5.722   0.101
25438WAT     H176556   7.222   5.805   0.124
25438WAT     H276557   7.312   5.682   0.183
25439WAT      O76558   0.395   8.341   7.459
25439WAT     H176559   0.482   8.347   7.410
25439WAT     H276560   0.356   8.432   7.471
25440WAT      O76561   2.249   7.910   7.286
25440WAT     H176562   2.249   7.997   7.336
25440WAT     H276563   2.259   7.835   7.351
25441WAT      O76564   7.262   2.287   8.729
25441WAT     H176565   7.216   2.356   8.674
25441WAT     H276566   7.197   2.249   8.796
25442WAT      O76567   7.949   8.382   6.544
25442WAT     H176568   7.878   8.324   6.505
25442WAT     H276569   8.028   8.384   6.484
25443WAT      O76570   4.591   3.512   1.360
25443WAT     H176571   4.620   3.470   1.274
25443WAT     H276572   4.599   3.445   1.434
25444WAT      O76573   3.305   6.764   0.238
25444WAT     H176574   3.283   6.828   0.165
25444WAT     H276575   3.222   6.712   0.261
25445WAT      O76576   9.523   8.101   8.110
25445WAT     H176577   9.514   8.195   8.142
25445WAT     H276578   9.620   8.076   8.106
25446WAT      O76579   7.474   6.769   2.067
25446WAT     H176580   7.567   6.798   2.093
25446WAT     H276581   7.478   6.677   2.027
25447WAT      O76582   7.914   1.470   9.570
25447WAT     H176583   7.993   1.518   9.530
25447WAT     H276584   7.899   1.502   9.663
25448WAT      O76585   4.017   6.971   7.509
25448WAT     H176586   3.992   6.937   7.599
25448WAT     H276587   4.043   6.894   7.451
25449WAT      O76588   8.006   4.922   2.514
25449WAT     H176589   7.917   4.960   2.488
25449WAT     H276590   7.994   4.866   2.596
25450WAT      O76591   2.313   7.583   0.935
25450WAT     H176592   2.215   7.593   0.915
25450WAT     H276593   2.359   7.671   0.921
25451WAT      O76594   2.079   1.166   6.814
25451WAT     H176595   2.002   1.131   6.867
25451WAT     H276596   2.045   1.223   6.739
25452WAT      O76597   2.850   4.751   9.025
25452WAT     H176598   2.852   4.719   8.931
25452WAT     H276599   2.897   4.840   9.031
25453WAT      O76600   9.476   2.909   4.069
25453WAT     H176601   9.487   3.006   4.092
25453WAT     H276602   9.490   2.897   3.971
25454WAT      O76603   6.015   3.116   4.196
25454WAT     H176604   6.054   3.095   4.106
25454WAT     H276605   6.069   3.072   4.267
25455WAT      O76606   0.038   5.153   8.641
25455WAT     H176607   0.091   5.191   8.565
25455WAT     H276608   0.062   5.057   8.653
25456WAT      O76609   8.763   1.918   0.424
25456WAT     H176610   8.791   2.012   0.444
25456WAT     H276611   8.680   1.919   0.368
25457WAT      O76612   5.543   7.773   3.288
25457WAT     H176613   5.581   7.865   3.294
25457WAT     H276614   5.594   7.720   3.221
25458WAT      O76615   0.399   3.286   1.752
25458WAT     H176616   0.484   3.316   1.707
25458WAT     H276617   0.421   3.234   1.834
25459WAT      O76618   8.015   8.284   3.634
25459WAT     H176619   7.965   8.359   3.590
25459WAT     H276620   7.968   8.257   3.718
25460WAT      O76621   3.506   3.873   6.834
25460WAT     H176622   3.479   3.893   6.740
25460WAT     H276623   3.576   3.937   6.863
25461WAT      O76624   5.045   9.464   7.386
25461WAT     H176625   5.107   9.523   7.439
25461WAT     H276626   4.963   9.515   7.363
25462WAT      O76627   1.633   9.120   5.864
25462WAT     H176628   1.671   9.090   5.951
25462WAT     H276629   1.548   9.170   5.879
25463WAT      O76630   3.023   8.865   9.697
25463WAT     H176631   2.969   8.851   9.781
25463WAT     H276632   2.961   8.875   9.619
25464WAT      O76633   4.908   9.726   2.815
25464WAT     H176634   4.897   9.653   2.747
25464WAT     H276635   5.005   9.752   2.819
25465WAT      O76636   7.523   1.077   0.587
25465WAT     H176637   7.606   1.103   0.537
25465WAT     H276638   7.446   1.131   0.555
25466WAT      O76639   3.558   7.191   7.476
25466WAT     H176640   3.558   7.092   7.461
25466WAT     H276641   3.589   7.211   7.569
25467WAT      O76642   0.190   0.356   5.940
25467WAT     H176643   0.245   0.275   5.923
25467WAT     H276644   0.246   0.425   5.986
25468WAT      O76645   3.472   0.134   1.394
25468WAT     H176646   3.515   0.063   1.337
25468WAT     H276647   3.524   0.144   1.479
25469WAT      O76648   9.424   2.157   3.189
25469WAT     H176649   9.457   2.221   3.258
25469WAT     H276650   9.331   2.128   3.212
25470WAT      O76651   5.143   2.504   5.630
25470WAT     H176652   5.107   2.570   5.563
25470WAT     H276653   5.067   2.458   5.675
25471WAT      O76654   3.987   9.700   9.370
25471WAT     H176655   3.931   9.624   9.405
25471WAT     H276656   4.002   9.767   9.442
25472WAT      O76657   1.117   5.207   9.214
25472WAT     H176658   1.033   5.154   9.199
25472WAT     H276659   1.148   5.245   9.128
25473WAT      O76660   9.052   0.830   8.533
25473WAT     H176661   9.045   0.911   8.591
25473WAT     H276662   9.146   0.820   8.500
25474WAT      O76663   1.565   0.844   4.256
25474WAT     H176664   1.570   0.805   4.164
25474WAT     H276665   1.619   0.929   4.258
25475WAT      O76666   9.588   5.330   2.623
25475WAT     H176667   9.635   5.364   2.542
25475WAT     H276668   9.518   5.395   2.651
25476WAT      O76669   0.133   1.104   9.463
25476WAT     H176670   0.073   1.140   9.534
25476WAT     H276671   0.219   1.154   9.463
25477WAT      O76672   1.415   8.482   9.724
25477WAT     H176673   1.511   8.477   9.753
25477WAT     H276674   1.366   8.401   9.755
25478WAT      O76675   7.579   2.768   5.725
25478WAT     H176676   7.541   2.826   5.652
25478WAT     H276677   7.558   2.672   5.705
25479WAT      O76678   6.741   6.051   2.303
25479WAT     H176679   6.744   6.042   2.204
25479WAT     H276680   6.646   6.051   2.334
25480WAT      O76681   3.298   1.421   1.490
25480WAT     H176682   3.314   1.454   1.583
25480WAT     H276683   3.263   1.327   1.494
25481WAT      O76684   2.855   5.204   1.921
25481WAT     H176685   2.772   5.149   1.932
25481WAT     H276686   2.858   5.275   1.992
25482WAT      O76687   4.389   7.499   4.904
25482WAT     H176688   4.419   7.580   4.954
25482WAT     H276689   4.468   7.453   4.864
25483WAT      O76690   2.703   3.603   8.889
25483WAT     H176691   2.629   3.639   8.833
25483WAT     H276692   2.764   3.677   8.915
25484WAT      O76693   6.449   6.682   1.225
25484WAT     H176694   6.439   6.668   1.323
25484WAT     H276695   6.427   6.598   1.176
25485WAT      O76696   2.421   1.326   5.097
25485WAT     H176697   2.499   1.276   5.134
25485WAT     H276698   2.449   1.419   5.075
25486WAT      O76699   6.384   0.974   1.306
25486WAT     H176700   6.322   0.928   1.370
25486WAT     H276701   6.408   1.064   1.343
25487WAT      O76702   9.477   6.558   1.843
25487WAT     H176703   9.460   6.585   1.748
25487WAT     H276704   9.548   6.618   1.882
25488WAT      O76705   6.862   2.626   4.593
25488WAT     H176706   6.855   2.635   4.692
25488WAT     H276707   6.823   2.539   4.564
25489WAT      O76708   6.310   0.273   6.333
25489WAT     H176709   6.377   0.346   6.344
25489WAT     H276710   6.243   0.277   6.408
25490WAT      O76711   5.064   8.831   1.348
25490WAT     H176712   5.140   8.881   1.307
25490WAT     H276713   4.979   8.881   1.332
25491WAT      O76714   0.430   8.623   6.419
25491WAT     H176715   0.379   8.602   6.502
25491WAT     H276716   0.393   8.570   6.342
25492WAT      O76717   1.475   5.534   4.485
25492WAT     H176718   1.573   5.515   4.482
25492WAT     H276719   1.451   5.600   4.413
25493WAT      O76720   7.293   8.963   1.318
25493WAT     H176721   7.300   8.956   1.219
25493WAT     H276722   7.309   8.873   1.359
25494WAT      O76723   5.498   1.904   8.223
25494WAT     H176724   5.564   1.835   8.195
25494WAT     H276725   5.531   1.995   8.197
25495WAT      O76726   5.473   5.399   7.211
25495WAT     H176727   5.404   5.395   7.284
25495WAT     H276728   5.454   5.476   7.151
25496WAT      O76729   1.323   3.553   5.524
25496WAT     H176730   1.331   3.486   5.598
25496WAT     H276731   1.388   3.628   5.539
25497WAT      O76732   8.262   9.229   2.593
25497WAT     H176733   8.236   9.325   2.579
25497WAT     H276734   8.281   9.214   2.690
25498WAT      O76735   4.518   8.532   2.258
25498WAT     H176736   4.456   8.543   2.335
25498WAT     H276737   4.485   8.587   2.181
25499WAT      O76738   1.029   9.220   1.729
25499WAT     H176739   0.987   9.143   1.776
25499WAT     H276740   1.043   9.295   1.794
25500WAT      O76741   0.129   5.406   4.027
25500WAT     H176742   0.056   5.384   3.963
25500WAT     H276743   0.156   5.502   4.015
25501WAT      O76744   3.567   1.693   8.143
25501WAT     H176745   3.577   1.741   8.056
25501WAT     H276746   3.571   1.594   8.128
25502WAT      O76747   8.781   1.155   8.103
25502WAT     H176748   8.802   1.154   8.005
25502WAT     H276749   8.754   1.063   8.132
25503WAT      O76750   1.361   0.847   1.297
25503WAT     H176751   1.378   0.942   1.324
25503WAT     H276752   1.395   0.833   1.204
25504WAT      O76753   0.453   1.386   6.700
25504WAT     H176754   0.427   1.339   6.616
25504WAT     H276755   0.392   1.358   6.774
25505WAT      O76756   2.896   4.373   5.663
25505WAT     H176757   2.984   4.326   5.655
25505WAT     H276758   2.907   4.454   5.721
25506WAT      O76759   5.771   0.711   8.093
25506WAT     H176760   5.734   0.803   8.083
25506WAT     H276761   5.700   0.644   8.070
25507WAT      O76762   3.972   8.669   9.836
25507WAT     H176763   3.999   8.688   9.742
25507WAT     H276764   4.000   8.745   9.894
25508WAT      O76765   3.132   5.718   3.960
25508WAT     H176766   3.068   5.659   3.911
25508WAT     H276767   3.083   5.798   3.996
25509WAT      O76768   0.760   3.150   2.127
25509WAT     H176769   0.674   3.101   2.109
25509WAT     H276770   0.831   3.116   2.064
25510WAT      O76771   3.840   5.881   3.486
25510WAT     H176772   3.814   5.940   3.409
25510WAT     H276773   3.769   5.886   3.556
25511WAT      O76774   7.111   8.853   8.698
25511WAT     H176775   7.033   8.895   8.746
25511WAT     H276776   7.078   8.777   8.643
25512WAT      O76777   0.391   9.616   2.906
25512WAT     H176778   0.476   9.645   2.863
25512WAT     H276779   0.396   9.518   2.928
25513WAT      O76780   5.656   7.747   1.489
25513WAT     H176781   5.755   7.743   1.507
25513WAT     H276782   5.615   7.659   1.511
25514WAT      O76783   9.212   7.945   3.631
25514WAT     H176784   9.301   7.900   3.625
25514WAT     H276785   9.154   7.915   3.556
25515WAT      O76786   8.206   3.187   8.477
25515WAT     H176787   8.186   3.282   8.501
25515WAT     H276788   8.243   3.183   8.384
25516WAT      O76789   4.377   1.450   4.345
25516WAT     H176790   4.424   1.369   4.310
25516WAT     H276791   4.356   1.438   4.442
25517WAT      O76792   5.685   1.456   0.081
25517WAT     H176793   5.620   1.432   0.154
25517WAT     H276794   5.671   1.552   0.054
25518WAT      O76795   7.493   5.458   3.477
25518WAT     H176796   7.536   5.369   3.458
25518WAT     H276797   7.403   5.461   3.434
25519WAT      O76798   8.327   8.387   7.030
25519WAT     H176799   8.368   8.477   7.041
25519WAT     H276800   8.360   8.326   7.103
25520WAT      O76801   4.687   7.649   2.006
25520WAT     H176802   4.738   7.563   2.012
25520WAT     H276803   4.651   7.672   2.096
25521WAT      O76804   5.157   8.350   5.031
25521WAT     H176805   5.221   8.280   5.063
25521WAT     H276806   5.197   8.399   4.953
25522WAT      O76807   1.362   0.065   9.002
25522WAT     H176808   1.371   0.146   8.945
25522WAT     H276809   1.266   0.050   9.025
25523WAT      O76810   5.671   9.111   1.718
25523WAT     H176811   5.586   9.132   1.670
25523WAT     H276812   5.653   9.044   1.790
25524WAT      O76813   3.844   8.348   6.257
25524WAT     H176814   3.942   8.362   6.264
25524WAT     H276815   3.800   8.432   6.228
25525WAT      O76816   9.655   4.365   5.042
25525WAT     H176817   9.607   4.324   4.964
25525WAT     H276818   9.638   4.463   5.043
25526WAT      O76819   0.728   7.642   2.357
25526WAT     H176820   0.746   7.581   2.434
25526WAT     H276821   0.630   7.659   2.350
25527WAT      O76822   3.091   6.731   7.891
25527WAT     H176823   3.087   6.827   7.919
25527WAT     H276824   3.044   6.719   7.804
25528WAT      O76825   6.987   1.374   8.974
25528WAT     H176826   7.046   1.435   9.028
25528WAT     H276827   6.953   1.301   9.033
25529WAT      O76828   1.852   6.781   8.931
25529WAT     H176829   1.851   6.878   8.908
25529WAT     H276830   1.878   6.728   8.850
25530WAT      O76831   1.707   5.677   3.758
25530WAT     H176832   1.647   5.686   3.838
25530WAT     H276833   1.737   5.582   3.749
25531WAT      O76834   1.202   8.537   0.940
25531WAT     H176835   1.229   8.620   0.988
25531WAT     H276836   1.143   8.482   1.000
25532WAT      O76837   4.926   1.756   2.525
25532WAT     H176838   4.912   1.814   2.445
25532WAT     H276839   4.986   1.803   2.590
25533WAT      O76840   0.192   3.548   4.225
25533WAT     H176841   0.167   3.599   4.142
25533WAT     H276842   0.291   3.532   4.225
25534WAT      O76843   0.506   9.776   0.913
25534WAT     H176844   0.424   9.768   0.855
25534WAT     H276845   0.583   9.731   0.868
25535WAT      O76846   2.864   7.624   7.249
25535WAT     H176847   2.912   7.667   7.172
25535WAT     H276848   2.924   7.621   7.328
25536WAT      O76849   2.541   9.583   5.287
25536WAT     H176850   2.502   9.520   5.354
25536WAT     H276851   2.472   9.607   5.219
25537WAT      O76852   3.286   3.646   8.711
25537WAT     H176853   3.284   3.690   8.801
25537WAT     H276854   3.236   3.560   8.715
25538WAT      O76855   4.299   0.433   9.440
25538WAT     H176856   4.379   0.416   9.384
25538WAT     H276857   4.285   0.531   9.451
25539WAT      O76858   2.232   5.710   4.548
25539WAT     H176859   2.255   5.700   4.451
25539WAT     H276860   2.140   5.675   4.564
25540WAT      O76861   5.422   9.391   7.196
25540WAT     H176862   5.327   9.418   7.182
25540WAT     H276863   5.469   9.387   7.108
25541WAT      O76864   9.873   9.254   6.969
25541WAT     H176865   9.970   9.233   6.985
25541WAT     H276866   9.851   9.238   6.873
25542WAT      O76867   3.137   9.457   6.221
25542WAT     H176868   3.077   9.536   6.238
25542WAT     H276869   3.085   9.373   6.236
25543WAT      O76870   1.081   3.267   9.042
25543WAT     H176871   1.035   3.355   9.056
25543WAT     H276872   1.179   3.279   9.056
25544WAT      O76873   7.016   5.278   1.350
25544WAT     H176874   6.966   5.347   1.298
25544WAT     H276875   7.032   5.197   1.292
25545WAT      O76876   9.179   8.873   2.820
25545WAT     H176877   9.080   8.877   2.806
25545WAT     H276878   9.223   8.947   2.768
25546WAT      O76879   9.409   2.004   8.236
25546WAT     H176880   9.427   2.096   8.271
25546WAT     H276881   9.330   1.965   8.284
25547WAT      O76882   1.339   9.115   0.297
25547WAT     H176883   1.372   9.206   0.321
25547WAT     H276884   1.400   9.045   0.334
25548WAT      O76885   4.910   6.147   6.344
25548WAT     H176886   4.969   6.125   6.421
25548WAT     H276887   4.958   6.208   6.281
25549WAT      O76888   1.430   9.452   3.753
25549WAT     H176889   1.423   9.549   3.732
25549WAT     H276890   1.481   9.440   3.838
25550WAT      O76891   4.451   1.766   3.684
25550WAT     H176892   4.406   1.851   3.656
25550WAT     H276893   4.545   1.785   3.710
25551WAT      O76894   2.792   2.229   5.627
25551WAT     H176895   2.766   2.134   5.643
25551WAT     H276896   2.711   2.288   5.632
25552WAT      O76897   1.700   1.133   6.345
25552WAT     H176898   1.751   1.213   6.375
25552WAT     H276899   1.678   1.142   6.248
25553WAT      O76900   4.150   8.952   7.555
25553WAT     H176901   4.080   8.960   7.626
25553WAT     H276902   4.240   8.939   7.598
25554WAT      O76903   5.867   5.867   2.681
25554WAT     H176904   5.882   5.959   2.718
25554WAT     H276905   5.954   5.818   2.679
25555WAT      O76906   1.532   6.224   7.225
25555WAT     H176907   1.623   6.191   7.248
25555WAT     H276908   1.471   6.210   7.303
25556WAT      O76909   6.084   2.587   9.282
25556WAT     H176910   6.041   2.666   9.239
25556WAT     H276911   6.119   2.526   9.211
25557WAT      O76912   7.891   3.722   3.129
25557WAT     H176913   7.839   3.729   3.043
25557WAT     H276914   7.829   3.700   3.204
25558WAT      O76915   8.086   1.261   6.780
25558WAT     H176916   8.065   1.163   6.775
25558WAT     H276917   8.168   1.276   6.834
25559WAT      O76918   4.556   3.209   7.561
25559WAT     H176919   4.499   3.287   7.538
25559WAT     H276920   4.653   3.234   7.550
25560WAT      O76921   8.427   5.174   6.202
25560WAT     H176922   8.401   5.261   6.244
25560WAT     H276923   8.511   5.186   6.150
25561WAT      O76924   7.017   2.347   8.232
25561WAT     H176925   7.055   2.287   8.303
25561WAT     H276926   6.926   2.315   8.207
25562WAT      O76927   0.195   0.111   9.611
25562WAT     H176928   0.110   0.162   9.597
25562WAT     H276929   0.218   0.062   9.527
25563WAT      O76930   2.350   4.297   6.530
25563WAT     H176931   2.430   4.337   6.576
25563WAT     H276932   2.277   4.365   6.527
25564WAT      O76933   0.982   2.785   5.912
25564WAT     H176934   0.883   2.797   5.913
25564WAT     H276935   1.011   2.745   5.825
25565WAT      O76936   9.650   4.827   0.236
25565WAT     H176937   9.715   4.755   0.213
25565WAT     H276938   9.698   4.915   0.241
25566WAT      O76939   8.761   0.645   9.635
25566WAT     H176940   8.707   0.569   9.671
25566WAT     H276941   8.836   0.665   9.697
25567WAT      O76942   9.016   5.970   7.201
25567WAT     H176943   9.077   6.033   7.153
25567WAT     H276944   9.047   5.876   7.187
25568WAT      O76945   0.917   4.770   6.812
25568WAT     H176946   0.868   4.823   6.882
25568WAT     H276947   0.932   4.677   6.846
25569WAT      O76948   2.269   1.038   1.186
25569WAT     H176949   2.350   0.989   1.155
25569WAT     H276950   2.266   1.037   1.286
25570WAT      O76951   2.783   3.465   9.793
25570WAT     H176952   2.770   3.421   9.704
25570WAT     H276953   2.694   3.494   9.828
25571WAT      O76954   6.297   5.916   6.200
25571WAT     H176955   6.256   5.972   6.272
25571WAT     H276956   6.251   5.935   6.113
25572WAT      O76957   0.252   7.348   9.527
25572WAT     H176958   0.234   7.427   9.467
25572WAT     H276959   0.301   7.278   9.476
25573WAT      O76960   5.417   9.246   1.656
25573WAT     H176961   5.419   9.250   1.756
25573WAT     H276962   5.325   9.220   1.625
25574WAT      O76963   7.747   3.944   1.932
25574WAT     H176964   7.729   4.008   2.007
25574WAT     H276965   7.676   3.953   1.862
25575WAT      O76966   5.748   8.183   4.022
25575WAT     H176967   5.769   8.091   3.989
25575WAT     H276968   5.832   8.237   4.029
25576WAT      O76969   0.377   2.692   6.842
25576WAT     H176970   0.370   2.597   6.811
25576WAT     H276971   0.382   2.694   6.942
25577WAT      O76972   7.722   6.216   5.035
25577WAT     H176973   7.680   6.237   4.946
25577WAT     H276974   7.683   6.276   5.105
25578WAT      O76975   7.470   4.224   0.421
25578WAT     H176976   7.469   4.290   0.497
25578WAT     H276977   7.481   4.273   0.335
25579WAT      O76978   3.467   4.453   6.694
25579WAT     H176979   3.513   4.418   6.613
25579WAT     H276980   3.466   4.553   6.691
25580WAT      O76981   3.234   0.603   6.914
25580WAT     H176982   3.210   0.582   6.819
25580WAT     H276983   3.153   0.640   6.961
25581WAT      O76984   9.163   7.647   3.222
25581WAT     H176985   9.100   7.639   3.145
25581WAT     H276986   9.255   7.620   3.192
25582WAT      O76987   3.298   2.596   7.185
25582WAT     H176988   3.314   2.652   7.266
25582WAT     H276989   3.386   2.573   7.142
25583WAT      O76990   1.669   9.224   8.784
25583WAT     H176991   1.587   9.166   8.782
25583WAT     H276992   1.750   9.166   8.784
25584WAT      O76993   0.753   3.965   0.477
25584WAT     H176994   0.797   4.050   0.506
25584WAT     H276995   0.814   3.915   0.416
25585WAT      O76996   2.379   3.211   7.714
25585WAT     H176997   2.362   3.264   7.631
25585WAT     H276998   2.435   3.131   7.692
25586WAT      O76999   9.687   1.779   7.240
25586WAT     H177000   9.782   1.795   7.212
25586WAT     H277001   9.674   1.812   7.334
25587WAT      O77002   6.128   8.366   7.504
25587WAT     H177003   6.141   8.451   7.555
25587WAT     H277004   6.098   8.293   7.566
25588WAT      O77005   4.807   1.146   1.014
25588WAT     H177006   4.769   1.216   1.076
25588WAT     H277007   4.873   1.189   0.953
25589WAT      O77008   0.001   8.511   0.200
25589WAT     H177009  -0.082   8.457   0.216
25589WAT     H277010   0.076   8.449   0.175
25590WAT      O77011   2.226   4.634   3.378
25590WAT     H177012   2.160   4.656   3.449
25590WAT     H277013   2.258   4.718   3.335
25591WAT      O77014   8.915   9.234   1.037
25591WAT     H177015   8.943   9.328   1.022
25591WAT     H277016   8.863   9.202   0.957
25592WAT      O77017   0.635   8.301   9.182
25592WAT     H177018   0.657   8.278   9.276
25592WAT     H277019   0.656   8.224   9.122
25593WAT      O77020   7.033   7.593   3.430
25593WAT     H177021   7.131   7.578   3.439
25593WAT     H277022   7.014   7.639   3.343
25594WAT      O77023   6.620   5.605   5.373
25594WAT     H177024   6.614   5.690   5.424
25594WAT     H277025   6.563   5.610   5.291
25595WAT      O77026   7.576   5.791   7.643
25595WAT     H177027   7.479   5.775   7.624
25595WAT     H277028   7.601   5.746   7.729
25596WAT      O77029   2.938   2.779   1.096
25596WAT     H177030   2.912   2.804   1.189
25596WAT     H277031   2.917   2.682   1.080
25597WAT      O77032   5.140   4.951   3.264
25597WAT     H177033   5.108   4.857   3.264
25597WAT     H277034   5.106   4.998   3.346
25598WAT      O77035   2.831   2.651   4.294
25598WAT     H177036   2.765   2.704   4.241
25598WAT     H277037   2.803   2.649   4.390
25599WAT      O77038   6.350   8.874   1.434
25599WAT     H177039   6.406   8.958   1.434
25599WAT     H277040   6.403   8.799   1.474
25600WAT      O77041   8.365   5.989   5.249
25600WAT     H177042   8.343   5.976   5.152
25600WAT     H277043   8.463   5.976   5.263
25601WAT      O77044   7.332   4.094   9.011
25601WAT     H177045   7.412   4.034   9.008
25601WAT     H277046   7.283   4.089   8.923
25602WAT      O77047   4.069   4.509   3.214
25602WAT     H177048   3.974   4.486   3.194
25602WAT     H277049   4.108   4.561   3.137
25603WAT      O77050   7.546   7.574   2.370
25603WAT     H177051   7.536   7.591   2.468
25603WAT     H277052   7.613   7.638   2.332
25604WAT      O77053   7.851   8.014   6.618
25604WAT     H177054   7.828   8.087   6.554
25604WAT     H277055   7.771   7.994   6.676
25605WAT      O77056   5.090   7.044   8.791
25605WAT     H177057   5.006   7.092   8.766
25605WAT     H277058   5.125   6.995   8.711
25606WAT      O77059   3.067   0.262   9.226
25606WAT     H177060   3.163   0.274   9.250
25606WAT     H277061   3.010   0.270   9.308
25607WAT      O77062   8.685   9.829   9.592
25607WAT     H177063   8.672   9.901   9.524
25607WAT     H277064   8.749   9.860   9.662
25608WAT      O77065   5.659   8.057   0.620
25608WAT     H177066   5.607   8.133   0.579
25608WAT     H277067   5.605   8.017   0.694
25609WAT      O77068   9.167   2.957   9.612
25609WAT     H177069   9.263   2.974   9.637
25609WAT     H277070   9.147   3.000   9.525
25610WAT      O77071   6.846   2.893   5.746
25610WAT     H177072   6.922   2.865   5.805
25610WAT     H277073   6.883   2.930   5.660
25611WAT      O77074   5.068   0.074   5.591
25611WAT     H177075   4.987   0.086   5.534
25611WAT     H277076   5.122  -0.002   5.557
25612WAT      O77077   8.812   8.579   2.973
25612WAT     H177078   8.799   8.536   3.063
25612WAT     H277079   8.831   8.676   2.985
25613WAT      O77080   0.895   2.499   1.118
25613WAT     H177081   0.911   2.443   1.036
25613WAT     H277082   0.816   2.558   1.103
25614WAT      O77083   8.351   7.839   7.312
25614WAT     H177084   8.265   7.791   7.330
25614WAT     H277085   8.355   7.921   7.369
25615WAT      O77086   4.363   3.802   3.353
25615WAT     H177087   4.387   3.769   3.444
25615WAT     H277088   4.358   3.724   3.290
25616WAT      O77089   6.278   7.677   0.659
25616WAT     H177090   6.258   7.696   0.755
25616WAT     H277091   6.302   7.762   0.613
25617WAT      O77092   2.491   4.785   5.704
25617WAT     H177093   2.459   4.698   5.742
25617WAT     H277094   2.590   4.793   5.717
25618WAT      O77095   5.796   7.270   8.868
25618WAT     H177096   5.721   7.307   8.922
25618WAT     H277097   5.882   7.279   8.919
25619WAT      O77098   3.544   9.251   1.693
25619WAT     H177099   3.554   9.155   1.716
25619WAT     H277100   3.616   9.277   1.628
25620WAT      O77101   7.662   6.595   6.775
25620WAT     H177102   7.687   6.608   6.679
25620WAT     H277103   7.666   6.682   6.823
25621WAT      O77104   3.581   8.794   8.597
25621WAT     H177105   3.572   8.871   8.534
25621WAT     H277106   3.579   8.828   8.691
25622WAT      O77107   7.241   6.803   2.254
25622WAT     H177108   7.196   6.835   2.338
25622WAT     H277109   7.266   6.882   2.198
25623WAT      O77110   1.390   5.137   2.382
25623WAT     H177111   1.291   5.146   2.392
25623WAT     H277112   1.435   5.189   2.455
25624WAT      O77113   3.639   2.972   9.400
25624WAT     H177114   3.653   2.873   9.395
25624WAT     H277115   3.557   2.997   9.350
25625WAT      O77116   7.497   5.898   3.767
25625WAT     H177117   7.436   5.826   3.800
25625WAT     H277118   7.447   5.956   3.703
25626WAT      O77119   2.661   1.719   6.507
25626WAT     H177120   2.584   1.723   6.443
25626WAT     H277121   2.683   1.811   6.538
25627WAT      O77122   3.315   1.473   2.811
25627WAT     H177123   3.410   1.442   2.806
25627WAT     H277124   3.289   1.485   2.906
25628WAT      O77125   9.867   2.484   7.099
25628WAT     H177126   9.859   2.452   7.005
25628WAT     H277127   9.964   2.489   7.125
25629WAT      O77128   1.744   3.920   2.528
25629WAT     H177129   1.744   3.839   2.469
25629WAT     H277130   1.800   3.903   2.609
25630WAT      O77131   4.032   3.976   8.926
25630WAT     H177132   4.101   3.961   8.997
25630WAT     H277133   3.960   3.907   8.935
25631WAT      O77134   2.773   6.113   0.082
25631WAT     H177135   2.708   6.085   0.011
25631WAT     H277136   2.791   6.035   0.143
25632WAT      O77137   8.523   5.071   8.113
25632WAT     H177138   8.600   5.119   8.156
25632WAT     H277139   8.441   5.129   8.117
25633WAT      O77140   0.306   1.242   4.592
25633WAT     H177141   0.243   1.216   4.665
25633WAT     H277142   0.315   1.167   4.527
25634WAT      O77143   4.430   5.741   9.119
25634WAT     H177144   4.474   5.654   9.139
25634WAT     H277145   4.464   5.777   9.032
25635WAT      O77146   2.782   0.695   2.578
25635WAT     H177147   2.839   0.614   2.587
25635WAT     H277148   2.803   0.742   2.493
25636WAT      O77149   3.658   6.942   8.805
25636WAT     H177150   3.746   6.943   8.758
25636WAT     H277151   3.589   6.985   8.748
25637WAT      O77152   8.081   7.438   5.904
25637WAT     H177153   8.046   7.372   5.838
25637WAT     H277154   8.024   7.435   5.986
25638WAT      O77155   0.969   8.442   9.698
25638WAT     H177156   0.982   8.441   9.599
25638WAT     H277157   0.937   8.352   9.728
25639WAT      O77158   9.180   7.441   9.591
25639WAT     H177159   9.167   7.501   9.512
25639WAT     H277160   9.208   7.350   9.559
25640WAT      O77161   8.759   8.568   7.389
25640WAT     H177162   8.855   8.591   7.373
25640WAT     H277163   8.741   8.477   7.352
25641WAT      O77164   9.229   5.648   9.188
25641WAT     H177165   9.166   5.711   9.142
25641WAT     H277166   9.322   5.667   9.157
25642WAT      O77167   0.640   2.325   9.129
25642WAT     H177168   0.613   2.343   9.224
25642WAT     H277169   0.732   2.359   9.114
25643WAT      O77170   2.578   3.465   9.575
25643WAT     H177171   2.502   3.526   9.554
25643WAT     H277172   2.543   3.373   9.594
25644WAT      O77173   9.635   3.624   4.714
25644WAT     H177174   9.607   3.654   4.623
25644WAT     H277175   9.617   3.526   4.723
25645WAT      O77176   8.381   4.050   0.835
25645WAT     H177177   8.332   3.964   0.825
25645WAT     H277178   8.315   4.125   0.840
25646WAT      O77179   9.715   9.514   7.928
25646WAT     H177180   9.671   9.596   7.965
25646WAT     H277181   9.800   9.541   7.881
25647WAT      O77182   7.590   8.045   2.231
25647WAT     H177183   7.511   7.989   2.204
25647WAT     H277184   7.642   8.069   2.149
25648WAT      O77185   2.362   3.639   9.664
25648WAT     H177186   2.273   3.594   9.656
25648WAT     H277187   2.365   3.690   9.750
25649WAT      O77188   5.692   9.704   6.202
25649WAT     H177189   5.619   9.741   6.145
25649WAT     H277190   5.666   9.709   6.298
25650WAT      O77191   7.975   1.895   4.760
25650WAT     H177192   8.020   1.888   4.849
25650WAT     H277193   8.000   1.816   4.703
25651WAT      O77194   4.914   8.533   1.919
25651WAT     H177195   4.948   8.456   1.864
25651WAT     H277196   4.952   8.618   1.885
25652WAT      O77197   3.607   1.416   8.787
25652WAT     H177198   3.527   1.425   8.728
25652WAT     H277199   3.639   1.506   8.814
25653WAT      O77200   6.964   6.698   3.584
25653WAT     H177201   6.992   6.744   3.669
25653WAT     H277202   6.975   6.760   3.507
25654WAT      O77203   2.541   6.655   5.116
25654WAT     H177204   2.534   6.714   5.036
25654WAT     H277205   2.489   6.571   5.101
25655WAT      O77206   8.458   4.805   1.736
25655WAT     H177207   8.458   4.834   1.640
25655WAT     H277208   8.543   4.834   1.779
25656WAT      O77209   0.214   4.487   7.062
25656WAT     H177210   0.148   4.557   7.033
25656WAT     H277211   0.227   4.493   7.161
25657WAT      O77212   1.369   1.939   8.243
25657WAT     H177213   1.285   1.918   8.294
25657WAT     H277214   1.344   1.974   8.152
25658WAT      O77215   9.864   2.133   9.124
25658WAT     H177216   9.958   2.105   9.104
25658WAT     H277217   9.802   2.057   9.106
25659WAT      O77218   5.943   2.144   5.467
25659WAT     H177219   6.027   2.167   5.515
25659WAT     H277220   5.948   2.050   5.433
25660WAT      O77221   7.711   9.831   5.840
25660WAT     H177222   7.761   9.744   5.839
25660WAT     H277223   7.771   9.904   5.806
25661WAT      O77224   8.616   4.758   5.270
25661WAT     H177225   8.630   4.662   5.294
25661WAT     H277226   8.691   4.812   5.309
25662WAT      O77227   2.817   6.409   7.823
25662WAT     H177228   2.795   6.315   7.847
25662WAT     H277229   2.900   6.411   7.767
25663WAT      O77230   0.833   0.706   8.743
25663WAT     H177231   0.798   0.646   8.671
25663WAT     H277232   0.885   0.652   8.809
25664WAT      O77233   0.828   8.927   9.083
25664WAT     H177234   0.874   8.934   8.994
25664WAT     H277235   0.808   8.831   9.103
25665WAT      O77236   3.245   3.798   8.924
25665WAT     H177237   3.202   3.881   8.888
25665WAT     H277238   3.185   3.756   8.992
25666WAT      O77239   0.827   3.579   6.994
25666WAT     H177240   0.910   3.523   7.001
25666WAT     H277241   0.769   3.564   7.074
25667WAT      O77242   4.309   8.315   2.769
25667WAT     H177243   4.356   8.227   2.758
25667WAT     H277244   4.343   8.380   2.702
25668WAT      O77245   8.138   9.044   8.761
25668WAT     H177246   8.129   9.105   8.683
25668WAT     H277247   8.099   9.087   8.842
25669WAT      O77248   3.255   9.478   7.890
25669WAT     H177249   3.330   9.529   7.849
25669WAT     H277250   3.290   9.398   7.938
25670WAT      O77251   3.865   4.368   8.630
25670WAT     H177252   3.930   4.404   8.698
25670WAT     H277253   3.778   4.347   8.676
25671WAT      O77254   5.369   0.012   9.351
25671WAT     H177255   5.431  -0.057   9.315
25671WAT     H277256   5.294  -0.033   9.399
25672WAT      O77257   6.223   9.434   3.849
25672WAT     H177258   6.301   9.374   3.865
25672WAT     H277259   6.138   9.386   3.873
25673WAT      O77260   0.593   4.752   3.326
25673WAT     H177261   0.637   4.842   3.335
25673WAT     H277262   0.543   4.731   3.410
25674WAT      O77263   0.395   6.102   2.649
25674WAT     H177264   0.376   6.107   2.747
25674WAT     H277265   0.467   6.167   2.626
25675WAT      O77266   1.855   5.569   8.939
25675WAT     H177267   1.859   5.560   9.039
25675WAT     H277268   1.894   5.657   8.912
25676WAT      O77269   7.446   4.911   1.450
25676WAT     H177270   7.492   4.935   1.365
25676WAT     H277271   7.350   4.938   1.445
25677WAT      O77272   8.589   2.620   8.872
25677WAT     H177273   8.618   2.616   8.968
25677WAT     H277274   8.602   2.713   8.837
25678WAT      O77275   8.394   8.842   0.758
25678WAT     H177276   8.439   8.917   0.709
25678WAT     H277277   8.444   8.757   0.741
25679WAT      O77278   5.477   8.236   2.094
25679WAT     H177279   5.538   8.268   2.022
25679WAT     H277280   5.382   8.256   2.069
25680WAT      O77281   4.249   1.668   4.917
25680WAT     H177282   4.261   1.632   5.009
25680WAT     H277283   4.153   1.693   4.902
25681WAT      O77284   7.853   8.536   5.150
25681WAT     H177285   7.843   8.549   5.248
25681WAT     H277286   7.790   8.465   5.118
25682WAT      O77287   1.920   9.078   7.970
25682WAT     H177288   1.955   9.016   8.041
25682WAT     H277289   1.850   9.031   7.917
25683WAT      O77290   0.122   3.692   4.440
25683WAT     H177291   0.066   3.765   4.401
25683WAT     H277292   0.151   3.629   4.369
25684WAT      O77293   0.517   6.552   1.280
25684WAT     H177294   0.497   6.605   1.363
25684WAT     H277295   0.436   6.549   1.222
25685WAT      O77296   9.325   9.276   7.003
25685WAT     H177297   9.265   9.208   6.961
25685WAT     H277298   9.420   9.247   6.990
25686WAT      O77299   2.323   2.057   3.231
25686WAT     H177300   2.422   2.068   3.243
25686WAT     H277301   2.294   2.102   3.147
25687WAT      O77302   3.354   5.260   4.371
25687WAT     H177303   3.262   5.298   4.384
25687WAT     H277304   3.417   5.303   4.436
25688WAT      O77305   7.931   0.148   5.775
25688WAT     H177306   7.957   0.063   5.730
25688WAT     H277307   7.994   0.166   5.851
25689WAT      O77308   3.519   0.790   3.778
25689WAT     H177309   3.453   0.725   3.739
25689WAT     H277310   3.597   0.740   3.815
25690WAT      O77311   1.064   7.192   2.926
25690WAT     H177312   1.130   7.121   2.950
25690WAT     H277313   1.110   7.281   2.928
25691WAT      O77314   3.003   8.149   4.106
25691WAT     H177315   2.997   8.175   4.203
25691WAT     H277316   3.082   8.089   4.093
25692WAT      O77317   8.692   8.904   4.764
25692WAT     H177318   8.622   8.971   4.787
25692WAT     H277319   8.696   8.893   4.665
25693WAT      O77320   4.547   0.405   0.687
25693WAT     H177321   4.608   0.459   0.745
25693WAT     H277322   4.456   0.447   0.687
25694WAT      O77323   6.853   1.087   4.989
25694WAT     H177324   6.794   1.012   5.021
25694WAT     H277325   6.797   1.156   4.943
25695WAT      O77326   4.018   4.459   8.840
25695WAT     H177327   4.011   4.549   8.881
25695WAT     H277328   4.114   4.432   8.832
25696WAT      O77329   3.502   8.261   3.517
25696WAT     H177330   3.470   8.333   3.455
25696WAT     H277331   3.590   8.226   3.485
25697WAT      O77332   2.623   2.538   7.587
25697WAT     H177333   2.660   2.467   7.526
25697WAT     H277334   2.546   2.500   7.638
25698WAT      O77335   4.547   7.547   8.826
25698WAT     H177336   4.465   7.491   8.816
25698WAT     H277337   4.526   7.629   8.879
25699WAT      O77338   0.100   6.520   0.199
25699WAT     H177339   0.190   6.550   0.166
25699WAT     H277340   0.092   6.421   0.191
25700WAT      O77341   5.010   9.224   3.768
25700WAT     H177342   4.973   9.316   3.779
25700WAT     H277343   5.048   9.192   3.855
25701WAT      O77344   7.973   0.241   2.470
25701WAT     H177345   7.947   0.156   2.516
25701WAT     H277346   7.912   0.256   2.392
25702WAT      O77347   4.960   3.801   9.563
25702WAT     H177348   5.054   3.816   9.594
25702WAT     H277349   4.931   3.709   9.588
25703WAT      O77350   4.871   2.731   6.610
25703WAT     H177351   4.829   2.641   6.597
25703WAT     H277352   4.849   2.766   6.701
25704WAT      O77353   8.395   6.221   5.391
25704WAT     H177354   8.364   6.145   5.333
25704WAT     H277355   8.338   6.226   5.473
25705WAT      O77356   7.098   1.583   9.139
25705WAT     H177357   7.134   1.560   9.229
25705WAT     H277358   7.154   1.656   9.098
25706WAT      O77359   1.678   6.630   8.034
25706WAT     H177360   1.737   6.700   8.074
25706WAT     H277361   1.673   6.551   8.094
25707WAT      O77362   4.360   7.259   1.658
25707WAT     H177363   4.300   7.264   1.738
25707WAT     H277364   4.316   7.304   1.580
25708WAT      O77365   7.738   5.735   1.682
25708WAT     H177366   7.665   5.736   1.614
25708WAT     H277367   7.781   5.645   1.684
25709WAT      O77368   1.223   8.054   1.674
25709WAT     H177369   1.127   8.048   1.701
25709WAT     H277370   1.229   8.095   1.583
25710WAT      O77371   4.677   7.010   1.793
25710WAT     H177372   4.674   6.915   1.823
25710WAT     H277373   4.625   7.020   1.708
25711WAT      O77374   0.148   5.760   3.656
25711WAT     H177375   0.190   5.816   3.586
25711WAT     H277376   0.218   5.716   3.711
25712WAT      O77377   0.406   1.079   2.999
25712WAT     H177378   0.416   1.055   3.095
25712WAT     H277379   0.342   1.016   2.955
25713WAT      O77380   7.728   5.844   2.231
25713WAT     H177381   7.759   5.806   2.145
25713WAT     H277382   7.795   5.825   2.303
25714WAT      O77383   7.764   8.121   7.013
25714WAT     H177384   7.816   8.204   7.034
25714WAT     H277385   7.725   8.084   7.098
25715WAT      O77386   0.134   6.178   1.761
25715WAT     H177387   0.114   6.256   1.820
25715WAT     H277388   0.052   6.154   1.708
25716WAT      O77389   9.445   0.226   1.390
25716WAT     H177390   9.459   0.265   1.481
25716WAT     H277391   9.501   0.275   1.324
25717WAT      O77392   9.080   5.541   1.353
25717WAT     H177393   9.176   5.553   1.376
25717WAT     H277394   9.071   5.483   1.272
25718WAT      O77395   6.767   4.179   5.239
25718WAT     H177396   6.781   4.158   5.142
25718WAT     H277397   6.696   4.119   5.276
25719WAT      O77398   3.975   9.253   6.993
25719WAT     H177399   3.966   9.349   7.021
25719WAT     H277400   3.980   9.248   6.894
25720WAT      O77401   6.295   6.508   1.647
25720WAT     H177402   6.283   6.600   1.683
25720WAT     H277403   6.206   6.464   1.636
25721WAT      O77404   0.559   2.562   5.049
25721WAT     H177405   0.571   2.538   4.952
25721WAT     H277406   0.462   2.574   5.069
25722WAT      O77407   2.229   1.903   6.814
25722WAT     H177408   2.132   1.913   6.791
25722WAT     H277409   2.239   1.831   6.883
25723WAT      O77410   4.684   6.881   1.263
25723WAT     H177411   4.594   6.838   1.255
25723WAT     H277412   4.673   6.973   1.301
25724WAT      O77413   2.655   2.153   5.151
25724WAT     H177414   2.714   2.208   5.092
25724WAT     H277415   2.709   2.120   5.229
25725WAT      O77416   4.185   2.954   3.469
25725WAT     H177417   4.213   3.050   3.477
25725WAT     H277418   4.222   2.915   3.385
25726WAT      O77419   2.425   9.519   5.850
25726WAT     H177420   2.425   9.593   5.784
25726WAT     H277421   2.434   9.556   5.943
25727WAT      O77422   6.826   3.285   9.661
25727WAT     H177423   6.819   3.220   9.585
25727WAT     H277424   6.910   3.338   9.652
25728WAT      O77425   2.144   7.449   1.607
25728WAT     H177426   2.113   7.535   1.567
25728WAT     H277427   2.238   7.431   1.579
25729WAT      O77428   3.613   5.383   1.433
25729WAT     H177429   3.679   5.325   1.481
25729WAT     H277430   3.658   5.467   1.403
25730WAT      O77431   0.929   2.371   3.337
25730WAT     H177432   0.855   2.309   3.309
25730WAT     H277433   0.984   2.395   3.257
25731WAT      O77434   9.058   7.332   2.237
25731WAT     H177435   9.056   7.431   2.219
25731WAT     H277436   9.026   7.283   2.157
25732WAT      O77437   7.893   8.359   4.055
25732WAT     H177438   7.845   8.369   4.142
25732WAT     H277439   7.862   8.430   3.992
25733WAT      O77440   1.924   1.388   8.404
25733WAT     H177441   1.859   1.438   8.347
25733WAT     H277442   1.881   1.363   8.490
25734WAT      O77443   8.517   7.501   8.951
25734WAT     H177444   8.574   7.462   8.879
25734WAT     H277445   8.422   7.476   8.935
25735WAT      O77446   3.674   7.605   7.630
25735WAT     H177447   3.591   7.552   7.646
25735WAT     H277448   3.742   7.548   7.585
25736WAT      O77449   6.615   5.680   3.519
25736WAT     H177450   6.620   5.777   3.544
25736WAT     H277451   6.539   5.665   3.457
25737WAT      O77452   8.179   3.443   8.544
25737WAT     H177453   8.116   3.520   8.553
25737WAT     H277454   8.273   3.474   8.562
25738WAT      O77455   9.504   7.418   1.100
25738WAT     H177456   9.441   7.344   1.075
25738WAT     H277457   9.474   7.503   1.057
25739WAT      O77458   1.758   1.991   2.553
25739WAT     H177459   1.738   1.960   2.460
25739WAT     H277460   1.846   1.953   2.583
25740WAT      O77461   7.714   2.046   8.340
25740WAT     H177462   7.780   1.986   8.385
25740WAT     H277463   7.661   2.096   8.409
25741WAT      O77464   8.160   8.161   7.158
25741WAT     H177465   8.196   8.223   7.088
25741WAT     H277466   8.136   8.073   7.116
25742WAT      O77467   3.066   3.164   5.388
25742WAT     H177468   3.109   3.236   5.442
25742WAT     H277469   3.119   3.148   5.304
25743WAT      O77470   7.717   4.158   5.117
25743WAT     H177471   7.747   4.111   5.034
25743WAT     H277472   7.772   4.240   5.131
25744WAT      O77473   1.349   3.261   9.137
25744WAT     H177474   1.341   3.234   9.233
25744WAT     H277475   1.388   3.185   9.084
25745WAT      O77476   0.135   5.099   5.720
25745WAT     H177477   0.141   5.057   5.630
25745WAT     H277478   0.225   5.094   5.764
25746WAT      O77479   8.006   5.769   8.014
25746WAT     H177480   7.953   5.714   8.079
25746WAT     H277481   8.101   5.739   8.014
25747WAT      O77482   7.549   1.234   1.940
25747WAT     H177483   7.507   1.315   1.981
25747WAT     H277484   7.553   1.161   2.007
25748WAT      O77485   5.960   2.508   0.418
25748WAT     H177486   5.873   2.490   0.463
25748WAT     H277487   6.011   2.423   0.409
25749WAT      O77488   0.631   9.031   3.035
25749WAT     H177489   0.538   9.008   3.064
25749WAT     H277490   0.666   8.960   2.974
25750WAT      O77491   4.216   4.031   9.116
25750WAT     H177492   4.264   3.946   9.140
25750WAT     H277493   4.192   4.080   9.199
25751WAT      O77494   2.743   3.305   0.963
25751WAT     H177495   2.704   3.231   1.019
25751WAT     H277496   2.764   3.270   0.872
25752WAT      O77497   0.686   7.218   8.764
25752WAT     H177498   0.746   7.169   8.701
25752WAT     H277499   0.680   7.168   8.851
25753WAT      O77500   0.867   4.787   4.606
25753WAT     H177501   0.815   4.760   4.525
25753WAT     H277502   0.842   4.729   4.683
25754WAT      O77503   6.608   4.479   8.840
25754WAT     H177504   6.664   4.531   8.905
25754WAT     H277505   6.625   4.511   8.747
25755WAT      O77506   2.147   7.128   0.112
25755WAT     H177507   2.224   7.097   0.167
25755WAT     H277508   2.064   7.081   0.142
25756WAT      O77509   4.006   6.993   3.641
25756WAT     H177510   4.003   6.897   3.614
25756WAT     H277511   4.069   7.005   3.717
25757WAT      O77512   3.068   5.659   1.272
25757WAT     H177513   3.119   5.731   1.319
25757WAT     H277514   3.097   5.654   1.177
25758WAT      O77515   7.757   7.173   7.765
25758WAT     H177516   7.740   7.191   7.668
25758WAT     H277517   7.685   7.215   7.820
25759WAT      O77518   0.651   1.157   4.011
25759WAT     H177519   0.713   1.152   3.933
25759WAT     H277520   0.640   1.067   4.052
25760WAT      O77521   9.136   5.950   2.210
25760WAT     H177522   9.055   5.960   2.268
25760WAT     H277523   9.107   5.929   2.116
25761WAT      O77524   0.237   1.496   4.631
25761WAT     H177525   0.266   1.406   4.597
25761WAT     H277526   0.140   1.493   4.653
25762WAT      O77527   1.241   2.224   6.971
25762WAT     H177528   1.210   2.312   6.936
25762WAT     H277529   1.251   2.160   6.895
25763WAT      O77530   1.936   1.828   0.322
25763WAT     H177531   1.912   1.899   0.256
25763WAT     H277532   2.034   1.836   0.343
25764WAT      O77533   3.388   4.501   4.212
25764WAT     H177534   3.370   4.412   4.254
25764WAT     H277535   3.486   4.521   4.219
25765WAT      O77536   7.249   7.907   4.607
25765WAT     H177537   7.213   7.991   4.567
25765WAT     H277538   7.216   7.829   4.554
25766WAT      O77539   8.089   7.356   4.746
25766WAT     H177540   8.105   7.260   4.721
25766WAT     H277541   8.081   7.411   4.663
25767WAT      O77542   4.973   8.239   0.764
25767WAT     H177543   5.068   8.224   0.735
25767WAT     H277544   4.920   8.156   0.748
25768WAT      O77545   7.036   7.197   5.836
25768WAT     H177546   7.006   7.123   5.896
25768WAT     H277547   6.973   7.274   5.845
25769WAT      O77548   0.279   7.802   4.777
25769WAT     H177549   0.188   7.806   4.736
25769WAT     H277550   0.348   7.791   4.705
25770WAT      O77551   3.276   8.222   0.184
25770WAT     H177552   3.223   8.167   0.120
25770WAT     H277553   3.254   8.318   0.172
25771WAT      O77554   3.159   3.618   8.117
25771WAT     H177555   3.077   3.600   8.062
25771WAT     H277556   3.195   3.709   8.093
25772WAT      O77557   0.179   4.264   2.988
25772WAT     H177558   0.216   4.264   3.081
25772WAT     H277559   0.134   4.352   2.971
25773WAT      O77560   1.683   8.253   4.804
25773WAT     H177561   1.708   8.210   4.717
25773WAT     H277562   1.589   8.286   4.799
25774WAT      O77563   7.417   6.924   1.164
25774WAT     H177564   7.471   7.009   1.159
25774WAT     H277565   7.349   6.933   1.236
25775WAT      O77566   9.244   3.111   6.742
25775WAT     H177567   9.327   3.146   6.785
25775WAT     H277568   9.248   3.011   6.739
25776WAT      O77569   4.890   6.779   2.649
25776WAT     H177570   4.845   6.756   2.563
25776WAT     H277571   4.823   6.778   2.723
25777WAT      O77572   8.155   2.024   5.717
25777WAT     H177573   8.067   1.987   5.688
25777WAT     H277574   8.156   2.123   5.703
25778WAT      O77575   2.421   2.415   7.731
25778WAT     H177576   2.442   2.334   7.676
25778WAT     H277577   2.347   2.466   7.687
25779WAT      O77578   0.351   8.572   3.646
25779WAT     H177579   0.376   8.668   3.645
25779WAT     H277580   0.428   8.517   3.613
25780WAT      O77581   1.863   7.309   2.394
25780WAT     H177582   1.952   7.265   2.404
25780WAT     H277583   1.828   7.334   2.484
25781WAT      O77584   0.290   4.615   5.060
25781WAT     H177585   0.362   4.605   4.991
25781WAT     H277586   0.203   4.586   5.022
25782WAT      O77587   9.127   9.777   4.686
25782WAT     H177588   9.197   9.755   4.753
25782WAT     H277589   9.152   9.860   4.637
25783WAT      O77590   6.693   8.369   7.200
25783WAT     H177591   6.634   8.449   7.210
25783WAT     H277592   6.654   8.306   7.133
25784WAT      O77593   4.153   6.706   1.798
25784WAT     H177594   4.137   6.776   1.729
25784WAT     H277595   4.240   6.660   1.780
25785WAT      O77596   3.645   3.719   6.241
25785WAT     H177597   3.576   3.724   6.169
25785WAT     H277598   3.628   3.790   6.309
25786WAT      O77599   3.702   5.028   6.231
25786WAT     H177600   3.772   4.961   6.206
25786WAT     H277601   3.735   5.120   6.211
25787WAT      O77602   7.125   7.778   6.194
25787WAT     H177603   7.089   7.696   6.151
25787WAT     H277604   7.223   7.784   6.176
25788WAT      O77605   5.333   0.483   4.906
25788WAT     H177606   5.283   0.522   4.984
25788WAT     H277607   5.350   0.554   4.838
25789WAT      O77608   3.068   2.209   8.909
25789WAT     H177609   3.026   2.122   8.881
25789WAT     H277610   3.167   2.202   8.902
25790WAT      O77611   3.386   0.853   8.314
25790WAT     H177612   3.363   0.840   8.218
25790WAT     H277613   3.339   0.784   8.369
25791WAT      O77614   1.168   6.967   4.983
25791WAT     H177615   1.232   7.026   5.031
25791WAT     H277616   1.095   6.939   5.045
25792WAT      O77617   4.754   5.685   9.851
25792WAT     H177618   4.732   5.590   9.830
25792WAT     H277619   4.779   5.694   9.948
25793WAT      O77620   8.896   5.698   9.808
25793WAT     H177621   8.994   5.680   9.816
25793WAT     H277622   8.871   5.771   9.872
25794WAT      O77623   9.268   0.409   7.521
25794WAT     H177624   9.291   0.503   7.549
25794WAT     H277625   9.170   0.404   7.500
25795WAT      O77626   3.251   7.158   8.242
25795WAT     H177627   3.291   7.096   8.175
25795WAT     H277628   3.186   7.107   8.299
25796WAT      O77629   8.007   7.222   2.073
25796WAT     H177630   7.995   7.255   2.166
25796WAT     H277631   8.092   7.259   2.035
25797WAT      O77632   7.965   8.002   2.240
25797WAT     H177633   8.006   7.945   2.312
25797WAT     H277634   7.933   7.944   2.166
25798WAT      O77635   5.332   2.874   7.228
25798WAT     H177636   5.344   2.907   7.134
25798WAT     H277637   5.346   2.775   7.230
25799WAT      O77638   1.713   5.012   0.992
25799WAT     H177639   1.714   5.107   1.024
25799WAT     H277640   1.789   4.962   1.033
25800WAT      O77641   2.948   1.843   7.027
25800WAT     H177642   2.964   1.768   7.091
25800WAT     H277643   2.978   1.815   6.936
25801WAT      O77644   4.465   7.771   0.223
25801WAT     H177645   4.455   7.853   0.166
25801WAT     H277646   4.559   7.764   0.256
25802WAT      O77647   9.789   6.853   4.202
25802WAT     H177648   9.708   6.799   4.225
25802WAT     H277649   9.836   6.812   4.125
25803WAT      O77650   8.792   5.266   8.782
25803WAT     H177651   8.848   5.297   8.705
25803WAT     H277652   8.851   5.223   8.851
25804WAT      O77653   7.550   6.658   6.344
25804WAT     H177654   7.514   6.712   6.419
25804WAT     H277655   7.627   6.602   6.376
25805WAT      O77656   2.303   8.499   1.313
25805WAT     H177657   2.253   8.512   1.227
25805WAT     H277658   2.266   8.559   1.383
25806WAT      O77659   0.201   6.344   4.753
25806WAT     H177660   0.199   6.421   4.690
25806WAT     H277661   0.149   6.268   4.713
25807WAT      O77662   5.459   2.385   0.021
25807WAT     H177663   5.501   2.365   0.110
25807WAT     H277664   5.376   2.331   0.011
25808WAT      O77665   0.649   7.530   5.958
25808WAT     H177666   0.729   7.574   5.998
25808WAT     H277667   0.604   7.474   6.027
25809WAT      O77668   4.273   3.145   1.817
25809WAT     H177669   4.284   3.085   1.737
25809WAT     H277670   4.318   3.105   1.896
25810WAT      O77671   3.671   8.897   2.068
25810WAT     H177672   3.740   8.848   2.121
25810WAT     H277673   3.588   8.907   2.123
25811WAT      O77674   0.183   2.621   8.324
25811WAT     H177675   0.115   2.548   8.330
25811WAT     H277676   0.193   2.649   8.228
25812WAT      O77677   3.433   2.173   6.176
25812WAT     H177678   3.357   2.162   6.112
25812WAT     H277679   3.492   2.248   6.146
25813WAT      O77680   7.966   8.257   0.902
25813WAT     H177681   7.963   8.213   0.992
25813WAT     H277682   8.038   8.214   0.846
25814WAT      O77683   6.253   9.046   3.650
25814WAT     H177684   6.167   9.094   3.632
25814WAT     H277685   6.242   8.948   3.631
25815WAT      O77686   0.761   1.819   8.747
25815WAT     H177687   0.712   1.885   8.690
25815WAT     H277688   0.849   1.858   8.775
25816WAT      O77689   5.157   0.556   1.256
25816WAT     H177690   5.169   0.478   1.195
25816WAT     H277691   5.180   0.641   1.207
25817WAT      O77692   8.521   5.782   3.290
25817WAT     H177693   8.481   5.800   3.201
25817WAT     H277694   8.620   5.772   3.281
25818WAT      O77695   1.355   4.642   4.523
25818WAT     H177696   1.266   4.643   4.569
25818WAT     H277697   1.341   4.625   4.426
25819WAT      O77698   8.508   1.310   0.679
25819WAT     H177699   8.546   1.218   0.691
25819WAT     H277700   8.545   1.351   0.596
25820WAT      O77701   5.726   3.046   6.482
25820WAT     H177702   5.663   3.124   6.472
25820WAT     H277703   5.674   2.964   6.505
25821WAT      O77704   2.889   1.144   1.529
25821WAT     H177705   2.982   1.121   1.558
25821WAT     H277706   2.889   1.163   1.431
25822WAT      O77707   4.124   2.773   6.065
25822WAT     H177708   4.100   2.804   6.157
25822WAT     H277709   4.112   2.849   6.000
25823WAT      O77710   1.651   9.535   6.515
25823WAT     H177711   1.611   9.616   6.559
25823WAT     H277712   1.600   9.515   6.431
25824WAT      O77713   2.481   2.831   8.616
25824WAT     H177714   2.463   2.737   8.587
25824WAT     H277715   2.398   2.870   8.656
25825WAT      O77716   1.499   6.096   7.660
25825WAT     H177717   1.515   6.047   7.575
25825WAT     H277718   1.493   6.194   7.642
25826WAT      O77719   0.065   5.233   0.540
25826WAT     H177720   0.071   5.219   0.639
25826WAT     H277721   0.157   5.249   0.504
25827WAT      O77722   0.659   7.648   7.063
25827WAT     H177723   0.702   7.710   7.129
25827WAT     H277724   0.614   7.702   6.992
25828WAT      O77725   4.977   2.526   0.374
25828WAT     H177726   4.965   2.489   0.466
25828WAT     H277727   4.936   2.618   0.370
25829WAT      O77728   5.157   1.276   4.037
25829WAT     H177729   5.116   1.300   4.125
25829WAT     H277730   5.137   1.348   3.971
25830WAT      O77731   4.393   4.621   7.125
25830WAT     H177732   4.473   4.578   7.084
25830WAT     H277733   4.321   4.632   7.056
25831WAT      O77734   2.460   2.505   8.359
25831WAT     H177735   2.429   2.526   8.452
25831WAT     H277736   2.400   2.436   8.318
25832WAT      O77737   8.748   6.460   7.625
25832WAT     H177738   8.754   6.555   7.593
25832WAT     H277739   8.813   6.403   7.574
25833WAT      O77740   2.816   6.634   2.191
25833WAT     H177741   2.855   6.542   2.196
25833WAT     H277742   2.758   6.650   2.270
25834WAT      O77743   9.188   3.428   6.939
25834WAT     H177744   9.147   3.341   6.966
25834WAT     H277745   9.287   3.418   6.934
25835WAT      O77746   8.890   4.717   1.928
25835WAT     H177747   8.955   4.667   1.986
25835WAT     H277748   8.937   4.793   1.884
25836WAT      O77749   0.638   9.279   8.160
25836WAT     H177750   0.539   9.280   8.174
25836WAT     H277751   0.670   9.184   8.152
25837WAT      O77752   8.268   4.795   9.037
25837WAT     H177753   8.303   4.778   9.129
25837WAT     H277754   8.241   4.891   9.029
25838WAT      O77755   2.609   3.080   1.082
25838WAT     H177756   2.598   3.048   1.176
25838WAT     H277757   2.646   3.006   1.026
25839WAT      O77758   4.876   9.373   6.828
25839WAT     H177759   4.938   9.450   6.811
25839WAT     H277760   4.860   9.324   6.742
25840WAT      O77761   4.550   2.201   4.388
25840WAT     H177762   4.466   2.249   4.366
25840WAT     H277763   4.529   2.110   4.424
25841WAT      O77764   5.804   9.424   2.702
25841WAT     H177765   5.714   9.463   2.683
25841WAT     H277766   5.870   9.497   2.717
25842WAT      O77767   9.660   7.850   2.911
25842WAT     H177768   9.656   7.949   2.920
25842WAT     H277769   9.730   7.814   2.973
25843WAT      O77770   5.203   4.019   8.201
25843WAT     H177771   5.137   3.989   8.269
25843WAT     H277772   5.221   3.943   8.137
25844WAT      O77773   1.687   0.938   5.191
25844WAT     H177774   1.771   0.914   5.143
25844WAT     H277775   1.674   0.876   5.269
25845WAT      O77776   9.544   9.474   9.145
25845WAT     H177777   9.519   9.474   9.048
25845WAT     H277778   9.496   9.549   9.191
25846WAT      O77779   3.704   5.205   2.267
25846WAT     H177780   3.623   5.191   2.325
25846WAT     H277781   3.773   5.256   2.319
25847WAT      O77782   2.966   0.446   5.984
25847WAT     H177783   2.875   0.483   5.963
25847WAT     H277784   3.023   0.518   6.025
25848WAT      O77785   7.467   3.452   1.068
25848WAT     H177786   7.381   3.411   1.097
25848WAT     H277787   7.526   3.466   1.148
25849WAT      O77788   3.457   7.769   7.098
25849WAT     H177789   3.429   7.855   7.055
25849WAT     H277790   3.500   7.788   7.186
25850WAT      O77791   8.562   9.156   4.393
25850WAT     H177792   8.632   9.091   4.421
25850WAT     H277793   8.572   9.241   4.444
25851WAT      O77794   2.246   2.556   7.565
25851WAT     H177795   2.277   2.649   7.586
25851WAT     H277796   2.149   2.548   7.588
25852WAT      O77797   8.235   5.697   0.648
25852WAT     H177798   8.161   5.654   0.596
25852WAT     H277799   8.314   5.712   0.588
25853WAT      O77800   7.772   4.990   8.493
25853WAT     H177801   7.705   4.926   8.455
25853WAT     H277802   7.864   4.954   8.480
25854WAT      O77803   5.904   5.913   6.980
25854WAT     H177804   5.926   5.857   7.059
25854WAT     H277805   5.820   5.965   6.998
25855WAT      O77806   6.477   2.682   6.289
25855WAT     H177807   6.543   2.701   6.217
25855WAT     H277808   6.424   2.601   6.265
25856WAT      O77809   0.408   8.349   7.743
25856WAT     H177810   0.391   8.343   7.645
25856WAT     H277811   0.423   8.257   7.779
25857WAT      O77812   0.713   4.961   0.225
25857WAT     H177813   0.772   5.042   0.227
25857WAT     H277814   0.638   4.973   0.291
25858WAT      O77815   7.789   0.229   9.499
25858WAT     H177816   7.862   0.163   9.480
25858WAT     H277817   7.804   0.312   9.445
25859WAT      O77818   7.980   5.305   6.899
25859WAT     H177819   8.036   5.250   6.962
25859WAT     H277820   7.894   5.258   6.881
25860WAT      O77821   7.326   4.542   3.605
25860WAT     H177822   7.243   4.517   3.554
25860WAT     H277823   7.391   4.466   3.601
25861WAT      O77824   4.914   2.371   7.123
25861WAT     H177825   4.917   2.284   7.172
25861WAT     H277826   5.003   2.391   7.083
25862WAT      O77827   3.877   1.778   2.237
25862WAT     H177828   3.780   1.797   2.229
25862WAT     H277829   3.927   1.862   2.260
25863WAT      O77830   8.816   3.285   5.402
25863WAT     H177831   8.881   3.310   5.330
25863WAT     H277832   8.746   3.225   5.363
25864WAT      O77833   9.477   0.981   2.160
25864WAT     H177834   9.397   1.012   2.211
25864WAT     H277835   9.553   0.968   2.223
25865WAT      O77836   3.725   1.312   6.439
25865WAT     H177837   3.756   1.400   6.403
25865WAT     H277838   3.797   1.273   6.496
25866WAT      O77839   9.478   9.190   5.007
25866WAT     H177840   9.455   9.252   4.932
25866WAT     H277841   9.396   9.142   5.037
25867WAT      O77842   9.708   1.787   0.399
25867WAT     H177843   9.738   1.806   0.492
25867WAT     H277844   9.683   1.691   0.391
25868WAT      O77845   2.513   8.466   3.390
25868WAT     H177846   2.442   8.535   3.398
25868WAT     H277847   2.506   8.402   3.466
25869WAT      O77848   5.537   2.059   4.955
25869WAT     H177849   5.584   2.025   4.873
25869WAT     H277850   5.517   1.984   5.017
25870WAT      O77851   1.060   4.279   0.900
25870WAT     H177852   1.008   4.260   0.817
25870WAT     H277853   1.039   4.371   0.932
25871WAT      O77854   6.958   1.963   4.607
25871WAT     H177855   6.978   2.061   4.612
25871WAT     H277856   6.953   1.926   4.699
25872WAT      O77857   3.250   2.082   3.031
25872WAT     H177858   3.242   2.176   3.066
25872WAT     H277859   3.191   2.022   3.084
25873WAT      O77860   8.403   7.435   2.744
25873WAT     H177861   8.444   7.367   2.804
25873WAT     H277862   8.454   7.439   2.658
25874WAT      O77863   7.770   4.418   6.434
25874WAT     H177864   7.741   4.509   6.406
25874WAT     H277865   7.837   4.425   6.508
25875WAT      O77866   8.523   2.197   3.372
25875WAT     H177867   8.496   2.162   3.461
25875WAT     H277868   8.449   2.254   3.335
25876WAT      O77869   2.660   2.209   6.317
25876WAT     H177870   2.577   2.153   6.321
25876WAT     H277871   2.661   2.263   6.233
25877WAT      O77872   1.614   5.237   3.120
25877WAT     H177873   1.571   5.196   3.201
25877WAT     H277874   1.713   5.223   3.124
25878WAT      O77875   1.239   2.017   6.791
25878WAT     H177876   1.250   2.001   6.693
25878WAT     H277877   1.192   1.940   6.833
25879WAT      O77878   1.328   0.278   2.796
25879WAT     H177879   1.413   0.253   2.841
25879WAT     H277880   1.343   0.360   2.740
25880WAT      O77881   0.656   2.150   5.566
25880WAT     H177882   0.597   2.207   5.623
25880WAT     H277883   0.703   2.207   5.499
25881WAT      O77884   2.709   5.920   8.226
25881WAT     H177885   2.665   6.001   8.187
25881WAT     H277886   2.773   5.882   8.159
25882WAT      O77887   4.300   1.690   1.772
25882WAT     H177888   4.258   1.674   1.861
25882WAT     H277889   4.320   1.788   1.761
25883WAT      O77890   8.823   5.039   3.506
25883WAT     H177891   8.796   5.033   3.410
25883WAT     H277892   8.812   5.134   3.537
25884WAT      O77893   9.167   3.845   7.159
25884WAT     H177894   9.201   3.886   7.075
25884WAT     H277895   9.115   3.763   7.138
25885WAT      O77896   2.475   2.242   1.927
25885WAT     H177897   2.572   2.269   1.929
25885WAT     H277898   2.466   2.148   1.959
25886WAT      O77899   6.567   0.065   4.568
25886WAT     H177900   6.647   0.064   4.628
25886WAT     H277901   6.568   0.148   4.513
25887WAT      O77902   4.822   9.111   3.622
25887WAT     H177903   4.886   9.134   3.695
25887WAT     H277904   4.848   9.024   3.580
25888WAT      O77905   2.206   0.280   2.355
25888WAT     H177906   2.294   0.243   2.385
25888WAT     H277907   2.137   0.260   2.424
25889WAT      O77908   8.595   8.726   5.076
25889WAT     H177909   8.692   8.748   5.067
25889WAT     H277910   8.586   8.631   5.108
25890WAT      O77911   2.254   4.024   1.139
25890WAT     H177912   2.258   4.124   1.150
25890WAT     H277913   2.162   3.998   1.111
25891WAT      O77914   8.394   7.329   1.148
25891WAT     H177915   8.489   7.347   1.123
25891WAT     H277916   8.364   7.396   1.216
25892WAT      O77917   8.106   0.562   8.403
25892WAT     H177918   8.124   0.483   8.345
25892WAT     H277919   8.013   0.555   8.440
25893WAT      O77920   6.274   0.290   4.726
25893WAT     H177921   6.222   0.322   4.647
25893WAT     H277922   6.244   0.337   4.809
25894WAT      O77923   0.594   7.748   9.099
25894WAT     H177924   0.606   7.707   9.190
25894WAT     H277925   0.511   7.713   9.058
25895WAT      O77926   7.120   8.900   9.818
25895WAT     H177927   7.159   8.893   9.910
25895WAT     H277928   7.034   8.850   9.813
25896WAT      O77929   7.992   7.278   5.671
25896WAT     H177930   7.982   7.178   5.671
25896WAT     H277931   8.082   7.303   5.635
25897WAT      O77932   8.973   9.391   5.609
25897WAT     H177933   8.881   9.367   5.641
25897WAT     H277934   9.014   9.312   5.564
25898WAT      O77935   0.931   6.337   1.793
25898WAT     H177936   0.881   6.312   1.710
25898WAT     H277937   0.870   6.333   1.872
25899WAT      O77938   8.341   0.110   1.595
25899WAT     H177939   8.327   0.192   1.652
25899WAT     H277940   8.343   0.029   1.653
25900WAT      O77941   0.448   5.898   8.300
25900WAT     H177942   0.374   5.936   8.355
25900WAT     H277943   0.424   5.806   8.271
25901WAT      O77944   5.129   5.981   5.599
25901WAT     H177945   5.096   5.954   5.509
25901WAT     H277946   5.207   6.042   5.589
25902WAT      O77947   7.017   8.604   8.611
25902WAT     H177948   7.095   8.546   8.588
25902WAT     H277949   6.944   8.548   8.650
25903WAT      O77950   9.431   0.049   5.934
25903WAT     H177951   9.349   0.081   5.981
25903WAT     H277952   9.418  -0.046   5.906
25904WAT      O77953   7.812   1.404   2.659
25904WAT     H177954   7.869   1.323   2.644
25904WAT     H277955   7.725   1.376   2.699
25905WAT      O77956   2.768   3.582   7.700
25905WAT     H177957   2.696   3.515   7.718
25905WAT     H277958   2.840   3.573   7.768
25906WAT      O77959   1.319   5.664   7.459
25906WAT     H177960   1.223   5.689   7.466
25906WAT     H277961   1.351   5.629   7.547
25907WAT      O77962   4.419   5.225   6.788
25907WAT     H177963   4.368   5.252   6.706
25907WAT     H277964   4.359   5.173   6.849
25908WAT      O77965   8.028   7.199   8.611
25908WAT     H177966   8.050   7.293   8.585
25908WAT     H277967   7.965   7.200   8.689
25909WAT      O77968   1.842   4.753   6.139
25909WAT     H177969   1.774   4.759   6.066
25909WAT     H277970   1.845   4.840   6.189
25910WAT      O77971   4.406   6.555   0.288
25910WAT     H177972   4.482   6.615   0.265
25910WAT     H277973   4.440   6.476   0.339
25911WAT      O77974   7.371   8.404   9.534
25911WAT     H177975   7.401   8.343   9.606
25911WAT     H277976   7.363   8.497   9.570
25912WAT      O77977   3.496   6.078   5.941
25912WAT     H177978   3.500   6.039   6.033
25912WAT     H277979   3.451   6.167   5.945
25913WAT      O77980   4.196   5.123   8.392
25913WAT     H177981   4.160   5.201   8.442
25913WAT     H277982   4.123   5.056   8.377
25914WAT      O77983   3.166   1.713   1.001
25914WAT     H177984   3.131   1.803   0.975
25914WAT     H277985   3.160   1.651   0.923
25915WAT      O77986   4.680   7.964   7.288
25915WAT     H177987   4.673   7.877   7.239
25915WAT     H277988   4.630   7.958   7.374
25916WAT      O77989   7.228   0.777   1.615
25916WAT     H177990   7.287   0.719   1.559
25916WAT     H277991   7.231   0.746   1.710
25917WAT      O77992   7.174   2.774   0.185
25917WAT     H177993   7.156   2.852   0.245
25917WAT     H277994   7.163   2.689   0.236
25918WAT      O77995   1.045   8.372   7.828
25918WAT     H177996   1.066   8.275   7.839
25918WAT     H277997   0.946   8.385   7.836
25919WAT      O77998   6.856   7.017   9.408
25919WAT     H177999   6.838   7.113   9.433
25919WAT     H278000   6.820   6.999   9.317
25920WAT      O78001   7.791   8.796   1.621
25920WAT     H178002   7.845   8.774   1.540
25920WAT     H278003   7.719   8.728   1.632
25921WAT      O78004   4.348   2.479   9.088
25921WAT     H178005   4.374   2.414   9.016
25921WAT     H278006   4.431   2.510   9.135
25922WAT      O78007   7.846   9.161   8.278
25922WAT     H178008   7.945   9.174   8.271
25922WAT     H278009   7.825   9.108   8.360
25923WAT      O78010   5.332   2.007   8.716
25923WAT     H178011   5.355   1.957   8.633
25923WAT     H278012   5.252   2.065   8.699
25924WAT      O78013   8.434   2.516   4.807
25924WAT     H178014   8.384   2.430   4.796
25924WAT     H278015   8.384   2.589   4.760
25925WAT      O78016   8.492   8.486   4.761
25925WAT     H178017   8.467   8.469   4.666
25925WAT     H278018   8.457   8.413   4.819
25926WAT      O78019   3.503   3.751   7.067
25926WAT     H178020   3.426   3.779   7.123
25926WAT     H278021   3.481   3.765   6.970
25927WAT      O78022   5.424   1.385   6.416
25927WAT     H178023   5.357   1.410   6.486
25927WAT     H278024   5.378   1.374   6.328
25928WAT      O78025   2.868   5.819   7.106
25928WAT     H178026   2.907   5.887   7.169
25928WAT     H278027   2.924   5.814   7.023
25929WAT      O78028   6.693   7.006   1.820
25929WAT     H178029   6.683   7.002   1.919
25929WAT     H278030   6.617   7.059   1.781
25930WAT      O78031   2.549   9.701   0.299
25930WAT     H178032   2.618   9.773   0.308
25930WAT     H278033   2.550   9.644   0.381
25931WAT      O78034   6.209   5.737   3.303
25931WAT     H178035   6.229   5.831   3.332
25931WAT     H278036   6.281   5.706   3.241
25932WAT      O78037   4.593   3.327   7.930
25932WAT     H178038   4.693   3.322   7.930
25932WAT     H278039   4.556   3.252   7.875
25933WAT      O78040   8.393   9.632   8.190
25933WAT     H178041   8.386   9.544   8.237
25933WAT     H278042   8.304   9.678   8.192
25934WAT      O78043   4.802   1.347   1.504
25934WAT     H178044   4.849   1.435   1.494
25934WAT     H278045   4.704   1.360   1.484
25935WAT      O78046   5.160   8.215   9.651
25935WAT     H178047   5.096   8.153   9.607
25935WAT     H278048   5.246   8.167   9.669
25936WAT      O78049   1.287   8.584   9.369
25936WAT     H178050   1.294   8.673   9.415
25936WAT     H278051   1.266   8.598   9.272
25937WAT      O78052   1.361   2.244   3.876
25937WAT     H178053   1.407   2.259   3.963
25937WAT     H278054   1.277   2.191   3.891
25938WAT      O78055   2.978   4.536   7.038
25938WAT     H178056   2.973   4.457   7.100
25938WAT     H278057   3.045   4.517   6.966
25939WAT      O78058   4.436   6.766   7.659
25939WAT     H178059   4.353   6.780   7.713
25939WAT     H278060   4.487   6.852   7.652
25940WAT      O78061   0.888   3.404   8.727
25940WAT     H178062   0.932   3.443   8.808
25940WAT     H278063   0.950   3.409   8.649
25941WAT      O78064   8.221   7.122   7.006
25941WAT     H178065   8.208   7.044   6.945
25941WAT     H278066   8.288   7.098   7.077
25942WAT      O78067   6.391   2.854   1.670
25942WAT     H178068   6.487   2.838   1.694
25942WAT     H278069   6.343   2.893   1.748
25943WAT      O78070   5.935   3.641   2.368
25943WAT     H178071   6.031   3.667   2.362
25943WAT     H278072   5.916   3.566   2.305
25944WAT      O78073   5.190   6.352   6.950
25944WAT     H178074   5.164   6.446   6.970
25944WAT     H278075   5.264   6.351   6.883
25945WAT      O78076   8.135   0.245   3.303
25945WAT     H178077   8.196   0.252   3.382
25945WAT     H278078   8.043   0.276   3.328
25946WAT      O78079   8.423   4.713   8.639
25946WAT     H178080   8.519   4.741   8.641
25946WAT     H278081   8.365   4.792   8.658
25947WAT      O78082   5.575   0.187   7.720
25947WAT     H178083   5.601   0.159   7.812
25947WAT     H278084   5.652   0.235   7.677
25948WAT      O78085   3.696   0.955   4.811
25948WAT     H178086   3.610   1.001   4.833
25948WAT     H278087   3.735   0.914   4.893
25949WAT      O78088   5.934   0.615   5.181
25949WAT     H178089   5.960   0.520   5.167
25949WAT     H278090   6.013   0.674   5.170
25950WAT      O78091   4.903   6.021   1.588
25950WAT     H178092   4.813   6.048   1.552
25950WAT     H278093   4.918   6.067   1.675
25951WAT      O78094   1.935   1.640   0.717
25951WAT     H178095   1.886   1.561   0.754
25951WAT     H278096   2.033   1.623   0.721
25952WAT      O78097   1.046   1.234   6.649
25952WAT     H178098   1.036   1.138   6.673
25952WAT     H278099   0.969   1.286   6.686
25953WAT      O78100   4.064   6.999   9.871
25953WAT     H178101   3.997   6.953   9.929
25953WAT     H278102   4.017   7.055   9.803
25954WAT      O78103   3.099   6.828   3.163
25954WAT     H178104   3.101   6.924   3.136
25954WAT     H278105   3.084   6.771   3.082
25955WAT      O78106   5.179   3.951   0.869
25955WAT     H178107   5.267   3.972   0.827
25955WAT     H278108   5.137   3.873   0.823
25956WAT      O78109   3.260   3.250   0.481
25956WAT     H178110   3.312   3.224   0.563
25956WAT     H278111   3.235   3.167   0.430
25957WAT      O78112   2.905   7.473   9.004
25957WAT     H178113   2.903   7.427   8.915
25957WAT     H278114   2.996   7.466   9.043
25958WAT      O78115   8.306   5.465   2.622
25958WAT     H178116   8.396   5.422   2.614
25958WAT     H278117   8.275   5.495   2.532
25959WAT      O78118   5.702   8.830   5.960
25959WAT     H178119   5.735   8.839   6.054
25959WAT     H278120   5.774   8.792   5.902
25960WAT      O78121   0.290   7.003   3.969
25960WAT     H178122   0.251   7.035   4.056
25960WAT     H278123   0.351   6.926   3.985
25961WAT      O78124   9.738   0.025   6.623
25961WAT     H178125   9.835   0.008   6.606
25961WAT     H278126   9.690  -0.062   6.631
25962WAT      O78127   5.728   2.519   6.064
25962WAT     H178128   5.717   2.577   6.145
25962WAT     H278129   5.646   2.524   6.007
25963WAT      O78130   0.693   8.591   8.892
25963WAT     H178131   0.766   8.550   8.947
25963WAT     H278132   0.631   8.642   8.952
25964WAT      O78133   1.975   3.267   9.082
25964WAT     H178134   1.905   3.215   9.132
25964WAT     H278135   1.946   3.362   9.075
25965WAT      O78136   3.106   1.728   5.135
25965WAT     H178137   3.111   1.690   5.042
25965WAT     H278138   3.150   1.818   5.135
25966WAT      O78139   5.034   1.456   8.619
25966WAT     H178140   5.064   1.442   8.524
25966WAT     H278141   5.070   1.543   8.653
25967WAT      O78142   1.815   8.994   1.989
25967WAT     H178143   1.902   8.945   1.996
25967WAT     H278144   1.785   8.998   1.894
25968WAT      O78145   8.231   3.391   3.105
25968WAT     H178146   8.205   3.358   3.015
25968WAT     H278147   8.329   3.411   3.106
25969WAT      O78148   7.910   0.958   6.441
25969WAT     H178149   7.905   0.916   6.350
25969WAT     H278150   7.859   1.043   6.441
25970WAT      O78151   2.637   5.631   0.441
25970WAT     H178152   2.596   5.540   0.441
25970WAT     H278153   2.599   5.686   0.516
25971WAT      O78154   0.487   6.109   6.151
25971WAT     H178155   0.416   6.174   6.177
25971WAT     H278156   0.444   6.021   6.129
25972WAT      O78157   0.234   6.498   2.089
25972WAT     H178158   0.312   6.442   2.119
25972WAT     H278159   0.162   6.438   2.054
25973WAT      O78160   3.655   8.419   5.961
25973WAT     H178161   3.615   8.334   5.996
25973WAT     H278162   3.658   8.417   5.861
25974WAT      O78163   9.361   9.764   3.764
25974WAT     H178164   9.275   9.740   3.809
25974WAT     H278165   9.370   9.713   3.679
25975WAT      O78166   7.149   2.437   6.980
25975WAT     H178167   7.059   2.393   6.978
25975WAT     H278168   7.139   2.534   6.955
25976WAT      O78169   0.246   7.910   7.575
25976WAT     H178170   0.339   7.884   7.601
25976WAT     H278171   0.183   7.836   7.596
25977WAT      O78172   8.149   8.362   4.138
25977WAT     H178173   8.149   8.423   4.217
25977WAT     H278174   8.054   8.341   4.112
25978WAT      O78175   8.527   0.461   9.675
25978WAT     H178176   8.477   0.426   9.754
25978WAT     H278177   8.469   0.455   9.594
25979WAT      O78178   3.081   5.038   5.288
25979WAT     H178179   3.002   4.980   5.271
25979WAT     H278180   3.141   5.037   5.208
25980WAT      O78181   8.242   8.088   9.175
25980WAT     H178182   8.303   8.060   9.249
25980WAT     H278183   8.183   8.011   9.151
25981WAT      O78184   2.516   9.455   2.969
25981WAT     H178185   2.487   9.359   2.974
25981WAT     H278186   2.508   9.487   2.875
25982WAT      O78187   4.683   6.483   5.270
25982WAT     H178188   4.713   6.549   5.201
25982WAT     H278189   4.753   6.476   5.341
25983WAT      O78190   2.465   6.910   1.229
25983WAT     H178191   2.455   6.814   1.204
25983WAT     H278192   2.385   6.961   1.199
25984WAT      O78193   3.993   0.341   4.040
25984WAT     H178194   3.947   0.318   4.126
25984WAT     H278195   4.009   0.258   3.987
25985WAT      O78196   4.081   5.816   5.490
25985WAT     H178197   4.065   5.852   5.398
25985WAT     H278198   4.158   5.752   5.489
25986WAT      O78199   2.094   6.414   9.480
25986WAT     H178200   2.186   6.440   9.511
25986WAT     H278201   2.051   6.492   9.435
25987WAT      O78202   6.317   7.208   3.959
25987WAT     H178203   6.376   7.280   3.994
25987WAT     H278204   6.373   7.137   3.915
25988WAT      O78205   9.794   8.862   8.403
25988WAT     H178206   9.769   8.779   8.354
25988WAT     H278207   9.841   8.839   8.488
25989WAT      O78208   6.243   7.521   6.907
25989WAT     H178209   6.274   7.474   6.824
25989WAT     H278210   6.271   7.617   6.903
25990WAT      O78211   5.264   7.511   5.092
25990WAT     H178212   5.178   7.544   5.131
25990WAT     H278213   5.253   7.417   5.060
25991WAT      O78214   5.761   8.569   7.181
25991WAT     H178215   5.832   8.620   7.134
25991WAT     H278216   5.802   8.514   7.254
25992WAT      O78217   3.017   9.518   7.770
25992WAT     H178218   2.994   9.455   7.695
25992WAT     H278219   3.111   9.502   7.799
25993WAT      O78220   5.397   1.316   7.625
25993WAT     H178221   5.325   1.246   7.619
25993WAT     H278222   5.422   1.330   7.721
25994WAT      O78223   0.457   6.717   0.428
25994WAT     H178224   0.526   6.645   0.420
25994WAT     H278225   0.455   6.771   0.344
25995WAT      O78226   6.580   7.850   7.083
25995WAT     H178227   6.552   7.823   7.175
25995WAT     H278228   6.507   7.828   7.018
25996WAT      O78229   1.942   7.956   3.321
25996WAT     H178230   1.890   7.920   3.244
25996WAT     H278231   2.038   7.964   3.295
25997WAT      O78232   9.416   3.263   9.730
25997WAT     H178233   9.363   3.319   9.794
25997WAT     H278234   9.489   3.216   9.779
25998WAT      O78235   1.775   1.141   4.568
25998WAT     H178236   1.728   1.195   4.638
25998WAT     H278237   1.863   1.183   4.547
25999WAT      O78238   6.742   8.820   0.032
25999WAT     H178239   6.769   8.783  -0.057
25999WAT     H278240   6.645   8.799   0.048
26000WAT      O78241   2.922   3.547   7.953
26000WAT     H178242   2.866   3.609   8.008
26000WAT     H278243   2.891   3.453   7.967
26001WAT      O78244   6.819   6.273   7.347
26001WAT     H178245   6.856   6.232   7.431
26001WAT     H278246   6.732   6.318   7.368
26002WAT      O78247   6.598   7.653   0.759
26002WAT     H178248   6.543   7.579   0.721
26002WAT     H278249   6.550   7.696   0.835
26003WAT      O78250   9.427   6.210   9.640
26003WAT     H178251   9.367   6.130   9.638
26003WAT     H278252   9.469   6.223   9.550
26004WAT      O78253   6.940   1.903   9.890
26004WAT     H178254   6.901   1.846   9.961
26004WAT     H278255   6.898   1.881   9.802
26005WAT      O78256   0.907   2.354   9.108
26005WAT     H178257   0.997   2.310   9.100
26005WAT     H278258   0.919   2.449   9.134
26006WAT      O78259   8.870   4.830   3.671
26006WAT     H178260   8.868   4.926   3.645
26006WAT     H278261   8.877   4.773   3.589
26007WAT      O78262   6.420   5.142   4.145
26007WAT     H178263   6.452   5.188   4.062
26007WAT     H278264   6.425   5.205   4.222
26008WAT      O78265   0.215   3.112   3.115
26008WAT     H178266   0.263   3.025   3.102
26008WAT     H278267   0.239   3.175   3.040
26009WAT      O78268   2.184   4.459   1.836
26009WAT     H178269   2.221   4.552   1.840
26009WAT     H278270   2.085   4.462   1.843
26010WAT      O78271   8.499   5.845   4.343
26010WAT     H178272   8.563   5.850   4.421
26010WAT     H278273   8.407   5.830   4.378
26011WAT      O78274   7.383   7.074   0.205
26011WAT     H178275   7.299   7.020   0.218
26011WAT     H278276   7.445   7.057   0.281
26012WAT      O78277   7.061   2.815   5.887
26012WAT     H178278   7.140   2.762   5.856
26012WAT     H278279   7.088   2.910   5.901
26013WAT      O78280   2.500   4.960   6.663
26013WAT     H178281   2.537   4.871   6.636
26013WAT     H278282   2.503   5.023   6.586
26014WAT      O78283   7.424   2.044   5.504
26014WAT     H178284   7.344   2.070   5.450
26014WAT     H278285   7.502   2.029   5.443
26015WAT      O78286   1.285   3.525   8.135
26015WAT     H178287   1.221   3.568   8.199
26015WAT     H278288   1.350   3.594   8.103
26016WAT      O78289   2.418   7.354   6.314
26016WAT     H178290   2.418   7.261   6.352
26016WAT     H278291   2.481   7.411   6.367
26017WAT      O78292   0.459   1.668   3.223
26017WAT     H178293   0.504   1.579   3.217
26017WAT     H278294   0.472   1.707   3.314
26018WAT      O78295   4.869   1.001   5.345
26018WAT     H178296   4.802   0.942   5.300
26018WAT     H278297   4.933   1.037   5.278
26019WAT      O78298   5.719   1.325   3.552
26019WAT     H178299   5.797   1.382   3.526
26019WAT     H278300   5.726   1.303   3.649
26020WAT      O78301   3.630   7.703   3.011
26020WAT     H178302   3.600   7.782   3.065
26020WAT     H278303   3.719   7.673   3.044
26021WAT      O78304   8.259   8.101   6.846
26021WAT     H178305   8.177   8.106   6.791
26021WAT     H278306   8.319   8.178   6.824
26022WAT      O78307   1.727   6.556   3.694
26022WAT     H178308   1.664   6.503   3.638
26022WAT     H278309   1.711   6.654   3.679
26023WAT      O78310   5.148   1.523   3.939
26023WAT     H178311   5.126   1.529   3.842
26023WAT     H278312   5.080   1.575   3.992
26024WAT      O78313   2.868   6.353   9.606
26024WAT     H178314   2.890   6.324   9.699
26024WAT     H278315   2.781   6.313   9.578
26025WAT      O78316   7.641   0.720   9.076
26025WAT     H178317   7.557   0.775   9.072
26025WAT     H278318   7.669   0.709   9.171
26026WAT      O78319   4.163   7.903   3.604
26026WAT     H178320   4.177   7.850   3.688
26026WAT     H278321   4.110   7.848   3.539
26027WAT      O78322   2.225   6.460   4.775
26027WAT     H178323   2.211   6.533   4.708
26027WAT     H278324   2.238   6.373   4.728
26028WAT      O78325   6.503   8.076   7.534
26028WAT     H178326   6.511   8.116   7.443
26028WAT     H278327   6.407   8.066   7.558
26029WAT      O78328   5.079   1.715   8.737
26029WAT     H178329   5.049   1.779   8.808
26029WAT     H278330   5.171   1.740   8.706
26030WAT      O78331   3.701   6.590   8.406
26030WAT     H178332   3.701   6.626   8.499
26030WAT     H278333   3.791   6.606   8.364
26031WAT      O78334   8.682   0.146   1.548
26031WAT     H178335   8.767   0.162   1.498
26031WAT     H278336   8.650   0.053   1.530
26032WAT      O78337   4.187   5.582   2.660
26032WAT     H178338   4.273   5.633   2.658
26032WAT     H278339   4.175   5.539   2.749
26033WAT      O78340   3.239   2.440   2.474
26033WAT     H178341   3.325   2.389   2.472
26033WAT     H278342   3.217   2.465   2.568
26034WAT      O78343   0.803   6.190   5.739
26034WAT     H178344   0.722   6.177   5.795
26034WAT     H278345   0.859   6.263   5.778
26035WAT      O78346   1.315   3.491   4.291
26035WAT     H178347   1.236   3.534   4.335
26035WAT     H278348   1.373   3.562   4.251
26036WAT      O78349   8.869   4.529   0.051
26036WAT     H178350   8.861   4.625   0.076
26036WAT     H278351   8.784   4.498   0.009
26037WAT      O78352   6.869   3.378   4.705
26037WAT     H178353   6.792   3.315   4.697
26037WAT     H278354   6.896   3.385   4.801
26038WAT      O78355   3.028   4.651   8.246
26038WAT     H178356   3.059   4.707   8.169
26038WAT     H278357   2.978   4.709   8.310
26039WAT      O78358   7.685   1.149   9.761
26039WAT     H178359   7.683   1.052   9.785
26039WAT     H278360   7.752   1.197   9.819
26040WAT      O78361   0.896   6.240   1.479
26040WAT     H178362   0.855   6.158   1.521
26040WAT     H278363   0.823   6.297   1.441
26041WAT      O78364   4.604   0.909   5.920
26041WAT     H178365   4.553   0.982   5.966
26041WAT     H278366   4.634   0.842   5.987
26042WAT      O78367   3.439   3.878   3.604
26042WAT     H178368   3.449   3.975   3.579
26042WAT     H278369   3.523   3.846   3.648
26043WAT      O78370   0.826   7.592   4.956
26043WAT     H178371   0.870   7.679   4.935
26043WAT     H278372   0.887   7.536   5.012
26044WAT      O78373   5.541   4.168   0.462
26044WAT     H178374   5.613   4.110   0.425
26044WAT     H278375   5.575   4.216   0.543
26045WAT      O78376   1.623   2.900   3.175
26045WAT     H178377   1.640   2.859   3.085
26045WAT     H278378   1.681   2.981   3.186
26046WAT      O78379   9.214   5.499   7.760
26046WAT     H178380   9.274   5.431   7.801
26046WAT     H278381   9.258   5.589   7.767
26047WAT      O78382   1.256   5.189   1.301
26047WAT     H178383   1.299   5.256   1.362
26047WAT     H278384   1.187   5.234   1.245
26048WAT      O78385   8.565   9.766   7.054
26048WAT     H178386   8.554   9.719   7.141
26048WAT     H278387   8.484   9.751   6.997
26049WAT      O78388   8.839   9.442   8.028
26049WAT     H178389   8.758   9.404   8.070
26049WAT     H278390   8.841   9.417   7.931
26050WAT      O78391   6.714   0.794   1.042
26050WAT     H178392   6.723   0.789   0.943
26050WAT     H278393   6.797   0.757   1.085
26051WAT      O78394   7.335   0.350   5.176
26051WAT     H178395   7.245   0.364   5.134
26051WAT     H278396   7.395   0.426   5.152
26052WAT      O78397   0.375   8.873   7.518
26052WAT     H178398   0.372   8.971   7.537
26052WAT     H278399   0.429   8.856   7.436
26053WAT      O78400   1.566   6.943   1.227
26053WAT     H178401   1.515   6.899   1.300
26053WAT     H278402   1.580   7.040   1.249
26054WAT      O78403   7.568   6.663   3.660
26054WAT     H178404   7.484   6.677   3.712
26054WAT     H278405   7.592   6.747   3.612
26055WAT      O78406   5.375   2.814   8.127
26055WAT     H178407   5.302   2.848   8.068
26055WAT     H278408   5.400   2.884   8.194
26056WAT      O78409   1.552   2.248   5.620
26056WAT     H178410   1.464   2.209   5.592
26056WAT     H278411   1.592   2.192   5.692
26057WAT      O78412   3.488   4.375   2.459
26057WAT     H178413   3.459   4.394   2.553
26057WAT     H278414   3.409   4.382   2.398
26058WAT      O78415   5.863   3.828   3.555
26058WAT     H178416   5.847   3.810   3.458
26058WAT     H278417   5.941   3.889   3.565
26059WAT      O78418   2.816   0.622   4.058
26059WAT     H178419   2.719   0.597   4.064
26059WAT     H278420   2.853   0.635   4.150
26060WAT      O78421   2.033   7.033   1.348
26060WAT     H178422   2.040   7.026   1.447
26060WAT     H278423   1.969   6.964   1.314
26061WAT      O78424   4.474   5.972   2.601
26061WAT     H178425   4.389   5.935   2.564
26061WAT     H278426   4.538   5.898   2.619
26062WAT      O78427   1.029   2.425   4.124
26062WAT     H178428   1.024   2.326   4.133
26062WAT     H278429   0.949   2.458   4.073
26063WAT      O78430   2.528   5.800   7.991
26063WAT     H178431   2.585   5.800   8.074
26063WAT     H278432   2.432   5.795   8.017
26064WAT      O78433   3.714   1.926   3.724
26064WAT     H178434   3.748   1.844   3.678
26064WAT     H278435   3.779   1.955   3.794
26065WAT      O78436   0.597   8.663   9.572
26065WAT     H178437   0.519   8.601   9.576
26065WAT     H278438   0.621   8.680   9.477
26066WAT      O78439   7.114   5.364   8.912
26066WAT     H178440   7.138   5.267   8.908
26066WAT     H278441   7.144   5.409   8.828
26067WAT      O78442   4.224   3.057   9.338
26067WAT     H178443   4.187   2.965   9.329
26067WAT     H278444   4.275   3.065   9.423
26068WAT      O78445   1.463   2.696   4.389
26068WAT     H178446   1.448   2.747   4.474
26068WAT     H278447   1.375   2.667   4.352
26069WAT      O78448   4.268   8.526   7.882
26069WAT     H178449   4.215   8.540   7.799
26069WAT     H278450   4.223   8.571   7.959
26070WAT      O78451   0.396   6.688   2.815
26070WAT     H178452   0.462   6.658   2.884
26070WAT     H278453   0.345   6.609   2.781
26071WAT      O78454   2.232   3.666   4.958
26071WAT     H178455   2.150   3.688   4.906
26071WAT     H278456   2.216   3.584   5.013
26072WAT      O78457   9.451   0.712   6.557
26072WAT     H178458   9.475   0.741   6.649
26072WAT     H278459   9.528   0.665   6.515
26073WAT      O78460   8.884   6.474   3.383
26073WAT     H178461   8.855   6.569   3.371
26073WAT     H278462   8.920   6.438   3.296
26074WAT      O78463   9.409   6.757   0.126
26074WAT     H178464   9.493   6.722   0.168
26074WAT     H278465   9.358   6.810   0.193
26075WAT      O78466   5.385   0.283   2.675
26075WAT     H178467   5.415   0.209   2.735
26075WAT     H278468   5.428   0.369   2.704
26076WAT      O78469   2.083   7.799   5.495
26076WAT     H178470   2.043   7.842   5.576
26076WAT     H278471   2.009   7.772   5.432
26077WAT      O78472   4.497   6.575   8.213
26077WAT     H178473   4.549   6.489   8.208
26077WAT     H278474   4.436   6.582   8.134
26078WAT      O78475   3.196   3.594   9.550
26078WAT     H178476   3.241   3.505   9.560
26078WAT     H278477   3.146   3.615   9.634
26079WAT      O78478   0.913   2.375   9.650
26079WAT     H178479   0.898   2.293   9.705
26079WAT     H278480   0.835   2.437   9.661
26080WAT      O78481   8.650   9.328   4.116
26080WAT     H178482   8.694   9.257   4.172
26080WAT     H278483   8.557   9.343   4.149
26081WAT      O78484   0.693   0.792   4.853
26081WAT     H178485   0.738   0.817   4.767
26081WAT     H278486   0.660   0.874   4.899
26082WAT      O78487   5.898   3.433   0.182
26082WAT     H178488   5.877   3.337   0.164
26082WAT     H278489   5.909   3.447   0.280
26083WAT      O78490   2.300   9.709   6.736
26083WAT     H178491   2.372   9.776   6.755
26083WAT     H278492   2.342   9.626   6.698
26084WAT      O78493   5.846   8.374   6.851
26084WAT     H178494   5.771   8.438   6.834
26084WAT     H278495   5.823   8.314   6.927
26085WAT      O78496   8.640   2.783   4.754
26085WAT     H178497   8.624   2.685   4.740
26085WAT     H278498   8.599   2.811   4.841
26086WAT      O78499   8.845   1.590   2.921
26086WAT     H178500   8.796   1.517   2.872
26086WAT     H278501   8.792   1.674   2.916
26087WAT      O78502   4.331   7.376   8.200
26087WAT     H178503   4.237   7.407   8.182
26087WAT     H278504   4.389   7.396   8.121
26088WAT      O78505   8.464   2.884   1.973
26088WAT     H178506   8.390   2.926   2.025
26088WAT     H278507   8.541   2.947   1.969
26089WAT      O78508   6.459   1.005   3.704
26089WAT     H178509   6.383   0.957   3.748
26089WAT     H278510   6.469   1.096   3.743
26090WAT      O78511   2.537   4.999   4.691
26090WAT     H178512   2.458   4.938   4.701
26090WAT     H278513   2.507   5.090   4.663
26091WAT      O78514   5.126   6.669   2.599
26091WAT     H178515   5.044   6.721   2.625
26091WAT     H278516   5.099   6.580   2.562
26092WAT      O78517   5.733   9.581   8.424
26092WAT     H178518   5.792   9.589   8.344
26092WAT     H278519   5.783   9.532   8.497
26093WAT      O78520   7.832   5.679   5.488
26093WAT     H178521   7.900   5.627   5.437
26093WAT     H278522   7.741   5.647   5.465
26094WAT      O78523   9.743   8.107   5.195
26094WAT     H178524   9.817   8.124   5.130
26094WAT     H278525   9.691   8.026   5.167
26095WAT      O78526   6.276   1.304   0.983
26095WAT     H178527   6.261   1.216   1.028
26095WAT     H278528   6.366   1.304   0.940
26096WAT      O78529   0.260   6.480   5.371
26096WAT     H178530   0.230   6.386   5.355
26096WAT     H278531   0.230   6.509   5.462
26097WAT      O78532   3.799   9.530   9.439
26097WAT     H178533   3.792   9.430   9.431
26097WAT     H278534   3.710   9.572   9.422
26098WAT      O78535   4.844   0.233   3.240
26098WAT     H178536   4.822   0.152   3.294
26098WAT     H278537   4.896   0.298   3.296
26099WAT      O78538   1.283   1.677   4.992
26099WAT     H178539   1.275   1.768   4.952
26099WAT     H278540   1.329   1.683   5.081
26100WAT      O78541   5.261   5.646   7.475
26100WAT     H178542   5.167   5.672   7.498
26100WAT     H278543   5.263   5.549   7.448
26101WAT      O78544   7.220   1.164   2.844
26101WAT     H178545   7.282   1.085   2.850
26101WAT     H278546   7.226   1.218   2.928
26102WAT      O78547   8.143   2.120   1.639
26102WAT     H178548   8.159   2.217   1.619
26102WAT     H278549   8.108   2.111   1.732
26103WAT      O78550   9.319   1.724   2.224
26103WAT     H178551   9.320   1.637   2.272
26103WAT     H278552   9.230   1.769   2.238
26104WAT      O78553   2.675   5.335   3.759
26104WAT     H178554   2.653   5.237   3.756
26104WAT     H278555   2.746   5.354   3.691
26105WAT      O78556   6.858   5.424   8.814
26105WAT     H178557   6.925   5.454   8.882
26105WAT     H278558   6.902   5.411   8.726
26106WAT      O78559   0.587   7.172   7.519
26106WAT     H178560   0.614   7.090   7.468
26106WAT     H278561   0.492   7.163   7.548
26107WAT      O78562   2.489   8.216   5.706
26107WAT     H178563   2.547   8.225   5.787
26107WAT     H278564   2.430   8.136   5.716
26108WAT      O78565   7.245   2.125   7.259
26108WAT     H178566   7.167   2.186   7.270
26108WAT     H278567   7.227   2.062   7.184
26109WAT      O78568   6.609   3.456   9.191
26109WAT     H178569   6.528   3.433   9.137
26109WAT     H278570   6.691   3.421   9.144
26110WAT      O78571   9.111   2.704   2.612
26110WAT     H178572   9.073   2.795   2.631
26110WAT     H278573   9.037   2.637   2.612
26111WAT      O78574   2.866   1.152   2.914
26111WAT     H178575   2.822   1.111   2.993
26111WAT     H278576   2.856   1.252   2.918
26112WAT      O78577   2.083   1.142   9.634
26112WAT     H178578   2.037   1.067   9.682
26112WAT     H278579   2.105   1.113   9.541
26113WAT      O78580   2.461   3.871   1.078
26113WAT     H178581   2.430   3.777   1.064
26113WAT     H278582   2.383   3.928   1.102
26114WAT      O78583   6.686   8.156   0.987
26114WAT     H178584   6.738   8.167   1.072
26114WAT     H278585   6.628   8.075   0.994
26115WAT      O78586   7.303   2.374   9.802
26115WAT     H178587   7.315   2.471   9.780
26115WAT     H278588   7.377   2.344   9.861
26116WAT      O78589   5.309   4.509   1.442
26116WAT     H178590   5.369   4.447   1.493
26116WAT     H278591   5.290   4.590   1.497
26117WAT      O78592   1.555   6.814   7.135
26117WAT     H178593   1.607   6.869   7.200
26117WAT     H278594   1.474   6.864   7.105
26118WAT      O78595   5.725   7.662   1.087
26118WAT     H178596   5.644   7.604   1.095
26118WAT     H278597   5.713   7.746   1.141
26119WAT      O78598   7.829   8.522   3.821
26119WAT     H178599   7.835   8.487   3.727
26119WAT     H278600   7.826   8.622   3.820
26120WAT      O78601   4.526   4.725   9.427
26120WAT     H178602   4.581   4.752   9.505
26120WAT     H278603   4.454   4.662   9.456
26121WAT      O78604   8.205   3.587   9.663
26121WAT     H178605   8.169   3.501   9.698
26121WAT     H278606   8.129   3.647   9.637
26122WAT      O78607   6.309   4.559   2.583
26122WAT     H178608   6.395   4.564   2.634
26122WAT     H278609   6.260   4.475   2.608
26123WAT      O78610   4.773   7.110   9.210
26123WAT     H178611   4.698   7.116   9.276
26123WAT     H278612   4.751   7.163   9.129
26124WAT      O78613   2.932   7.075   0.582
26124WAT     H178614   2.862   7.007   0.604
26124WAT     H278615   2.987   7.094   0.664
26125WAT      O78616   0.782   6.492   9.386
26125WAT     H178617   0.704   6.466   9.444
26125WAT     H278618   0.785   6.433   9.306
26126WAT      O78619   0.961   0.633   9.470
26126WAT     H178620   0.907   0.697   9.524
26126WAT     H278621   0.913   0.612   9.384
26127WAT      O78622   3.991   9.818   3.391
26127WAT     H178623   3.967   9.890   3.326
26127WAT     H278624   4.088   9.795   3.382
26128WAT      O78625   3.104   5.337   4.408
26128WAT     H178626   3.021   5.321   4.354
26128WAT     H278627   3.085   5.407   4.478
26129WAT      O78628   6.615   4.844   0.921
26129WAT     H178629   6.539   4.878   0.865
26129WAT     H278630   6.645   4.755   0.885
26130WAT      O78631   1.212   9.635   7.603
26130WAT     H178632   1.204   9.547   7.650
26130WAT     H278633   1.307   9.666   7.605
26131WAT      O78634   9.233   1.413   0.416
26131WAT     H178635   9.162   1.482   0.400
26131WAT     H278636   9.234   1.388   0.513
26132WAT      O78637   6.748   8.230   4.399
26132WAT     H178638   6.781   8.307   4.454
26132WAT     H278639   6.752   8.146   4.454
26133WAT      O78640   8.717   8.922   4.492
26133WAT     H178641   8.784   8.996   4.498
26133WAT     H278642   8.727   8.875   4.404
26134WAT      O78643   4.014   9.233   9.230
26134WAT     H178644   3.925   9.226   9.275
26134WAT     H278645   4.071   9.299   9.280
26135WAT      O78646   3.881   1.361   3.806
26135WAT     H178647   3.792   1.334   3.844
26135WAT     H278648   3.877   1.357   3.707
26136WAT      O78649   6.500   2.280   6.047
26136WAT     H178650   6.599   2.286   6.052
26136WAT     H278651   6.464   2.362   6.001
26137WAT      O78652   1.146   5.055   5.193
26137WAT     H178653   1.068   5.061   5.132
26137WAT     H278654   1.199   4.973   5.171
26138WAT      O78655   9.715   9.728   0.943
26138WAT     H178656   9.702   9.824   0.917
26138WAT     H278657   9.744   9.723   1.038
26139WAT      O78658   6.727   0.283   3.312
26139WAT     H178659   6.805   0.273   3.374
26139WAT     H278660   6.653   0.332   3.359
26140WAT      O78661   7.464   6.032   2.711
26140WAT     H178662   7.482   5.938   2.684
26140WAT     H278663   7.548   6.086   2.705
26141WAT      O78664   1.632   2.121   9.332
26141WAT     H178665   1.677   2.051   9.276
26141WAT     H278666   1.699   2.163   9.393
26142WAT      O78667   7.050   3.728   1.692
26142WAT     H178668   7.086   3.803   1.636
26142WAT     H278669   6.973   3.761   1.746
26143WAT      O78670   7.831   9.205   4.456
26143WAT     H178671   7.760   9.137   4.472
26143WAT     H278672   7.842   9.220   4.358
26144WAT      O78673   0.753   9.103   5.925
26144WAT     H178674   0.725   9.007   5.919
26144WAT     H278675   0.690   9.152   5.984
26145WAT      O78676   5.866   7.263   3.969
26145WAT     H178677   5.798   7.314   3.916
26145WAT     H278678   5.834   7.169   3.983
26146WAT      O78679   3.184   2.440   4.056
26146WAT     H178680   3.282   2.450   4.037
26146WAT     H278681   3.164   2.346   4.081
26147WAT      O78682   6.994   3.823   5.171
26147WAT     H178683   6.939   3.811   5.253
26147WAT     H278684   7.072   3.883   5.191
26148WAT      O78685   3.472   7.096   4.731
26148WAT     H178686   3.465   7.006   4.690
26148WAT     H278687   3.415   7.101   4.813
26149WAT      O78688   6.413   3.079   0.827
26149WAT     H178689   6.488   3.021   0.857
26149WAT     H278690   6.384   3.138   0.902
26150WAT      O78691   1.468   8.649   0.624
26150WAT     H178692   1.421   8.719   0.677
26150WAT     H278693   1.422   8.561   0.638
26151WAT      O78694   8.193   9.264   3.515
26151WAT     H178695   8.120   9.318   3.473
26151WAT     H278696   8.152   9.194   3.574
26152WAT      O78697   5.926   4.860   6.313
26152WAT     H178698   5.997   4.918   6.272
26152WAT     H278699   5.875   4.913   6.381
26153WAT      O78700   1.517   1.981   6.829
26153WAT     H178701   1.417   1.987   6.822
26153WAT     H278702   1.550   2.052   6.892
26154WAT      O78703   4.628   5.067   8.143
26154WAT     H178704   4.579   5.094   8.225
26154WAT     H278705   4.643   5.147   8.085
26155WAT      O78706   4.651   2.512   8.166
26155WAT     H178707   4.735   2.485   8.214
26155WAT     H278708   4.632   2.608   8.185
26156WAT      O78709   8.897   6.274   0.406
26156WAT     H178710   8.849   6.310   0.326
26156WAT     H278711   8.975   6.220   0.376
26157WAT      O78712   7.653   1.063   0.900
26157WAT     H178713   7.574   1.086   0.843
26157WAT     H278714   7.628   0.989   0.963
26158WAT      O78715   2.221   1.521   0.938
26158WAT     H178716   2.276   1.495   0.859
26158WAT     H278717   2.230   1.619   0.954
26159WAT      O78718   9.358   1.779   0.546
26159WAT     H178719   9.398   1.740   0.463
26159WAT     H278720   9.272   1.825   0.523
26160WAT      O78721   1.266   3.241   4.270
26160WAT     H178722   1.192   3.242   4.203
26160WAT     H278723   1.286   3.335   4.299
26161WAT      O78724   6.185   1.390   7.855
26161WAT     H178725   6.107   1.394   7.917
26161WAT     H278726   6.216   1.295   7.847
26162WAT      O78727   1.891   5.578   0.613
26162WAT     H178728   1.861   5.673   0.601
26162WAT     H278729   1.877   5.550   0.708
26163WAT      O78730   8.523   4.094   7.193
26163WAT     H178731   8.594   4.051   7.137
26163WAT     H278732   8.518   4.192   7.171
26164WAT      O78733   8.848   2.711   7.521
26164WAT     H178734   8.828   2.767   7.441
26164WAT     H278735   8.847   2.614   7.494
26165WAT      O78736   6.848   1.061   3.473
26165WAT     H178737   6.861   1.131   3.543
26165WAT     H278738   6.758   1.019   3.484
26166WAT      O78739   4.205   9.826   9.786
26166WAT     H178740   4.301   9.831   9.757
26166WAT     H278741   4.180   9.730   9.801
26167WAT      O78742   3.896   1.628   5.722
26167WAT     H178743   3.889   1.727   5.734
26167WAT     H278744   3.807   1.591   5.694
26168WAT      O78745   8.146   8.949   6.230
26168WAT     H178746   8.068   8.999   6.267
26168WAT     H278747   8.120   8.907   6.142
26169WAT      O78748   8.503   8.127   1.073
26169WAT     H178749   8.436   8.201   1.085
26169WAT     H278750   8.557   8.145   0.991
26170WAT      O78751   7.165   2.642   6.195
26170WAT     H178752   7.195   2.736   6.177
26170WAT     H278753   7.230   2.598   6.257
26171WAT      O78754   9.418   7.469   8.167
26171WAT     H178755   9.336   7.510   8.126
26171WAT     H278756   9.418   7.485   8.265
26172WAT      O78757   2.647   3.898   4.089
26172WAT     H178758   2.611   3.971   4.148
26172WAT     H278759   2.741   3.878   4.114
26173WAT      O78760   9.818   5.615   8.065
26173WAT     H178761   9.811   5.697   8.008
26173WAT     H278762   9.811   5.533   8.008
26174WAT      O78763   8.341   9.243   9.088
26174WAT     H178764   8.306   9.287   9.171
26174WAT     H278765   8.366   9.313   9.022
26175WAT      O78766   2.603   8.111   8.989
26175WAT     H178767   2.618   8.119   8.890
26175WAT     H278768   2.655   8.182   9.037
26176WAT      O78769   5.909   2.718   9.652
26176WAT     H178770   5.860   2.695   9.736
26176WAT     H278771   5.854   2.692   9.573
26177WAT      O78772   5.871   2.177   9.545
26177WAT     H178773   5.818   2.251   9.586
26177WAT     H278774   5.942   2.148   9.609
26178WAT      O78775   2.436   5.142   4.422
26178WAT     H178776   2.401   5.233   4.397
26178WAT     H278777   2.363   5.087   4.462
26179WAT      O78778   1.915   3.232   9.463
26179WAT     H178779   1.864   3.302   9.513
26179WAT     H278780   2.012   3.257   9.459
26180WAT      O78781   5.657   7.178   8.439
26180WAT     H178782   5.677   7.244   8.367
26180WAT     H278783   5.566   7.139   8.424
26181WAT      O78784   8.142   6.481   9.270
26181WAT     H178785   8.158   6.394   9.315
26181WAT     H278786   8.149   6.555   9.337
26182WAT      O78787   2.133   5.643   3.116
26182WAT     H178788   2.086   5.613   3.033
26182WAT     H278789   2.172   5.564   3.163
26183WAT      O78790   9.450   8.564   2.076
26183WAT     H178791   9.360   8.596   2.108
26183WAT     H278792   9.460   8.467   2.097
26184WAT      O78793   9.041   7.105   4.323
26184WAT     H178794   9.130   7.079   4.285
26184WAT     H278795   9.046   7.102   4.423
26185WAT      O78796   0.141   9.426   0.657
26185WAT     H178797   0.222   9.375   0.630
26185WAT     H278798   0.069   9.413   0.588
26186WAT      O78799   7.951   1.729   4.455
26186WAT     H178800   8.040   1.712   4.412
26186WAT     H278801   7.889   1.768   4.388
26187WAT      O78802   2.517   1.261   2.974
26187WAT     H178803   2.548   1.332   2.911
26187WAT     H278804   2.445   1.207   2.930
26188WAT      O78805   7.874   6.002   7.960
26188WAT     H178806   7.836   6.017   8.052
26188WAT     H278807   7.921   5.914   7.958
26189WAT      O78808   5.710   0.547   1.937
26189WAT     H178809   5.719   0.526   2.034
26189WAT     H278810   5.779   0.497   1.885
26190WAT      O78811   3.547   7.163   4.327
26190WAT     H178812   3.594   7.235   4.276
26190WAT     H278813   3.582   7.160   4.420
26191WAT      O78814   9.185   0.689   5.336
26191WAT     H178815   9.174   0.590   5.340
26191WAT     H278816   9.280   0.711   5.313
26192WAT      O78817   9.229   3.585   7.533
26192WAT     H178818   9.166   3.557   7.606
26192WAT     H278819   9.186   3.657   7.478
26193WAT      O78820   9.057   1.661   4.397
26193WAT     H178821   8.971   1.707   4.418
26193WAT     H278822   9.044   1.562   4.401
26194WAT      O78823   2.475   1.020   8.011
26194WAT     H178824   2.505   1.056   8.099
26194WAT     H278825   2.537   0.947   7.982
26195WAT      O78826   0.088   4.130   9.822
26195WAT     H178827   0.018   4.075   9.868
26195WAT     H278828   0.178   4.087   9.834
26196WAT      O78829   7.421   3.917   1.119
26196WAT     H178830   7.388   3.859   1.044
26196WAT     H278831   7.467   3.859   1.187
26197WAT      O78832   1.538   7.136   2.137
26197WAT     H178833   1.558   7.122   2.234
26197WAT     H278834   1.623   7.136   2.085
26198WAT      O78835   3.023   8.948   4.714
26198WAT     H178836   3.052   8.865   4.666
26198WAT     H278837   3.093   8.974   4.780
26199WAT      O78838   3.370   4.362   8.398
26199WAT     H178839   3.345   4.318   8.484
26199WAT     H278840   3.403   4.455   8.416
26200WAT      O78841   4.220   2.937   1.646
26200WAT     H178842   4.280   2.863   1.614
26200WAT     H278843   4.124   2.909   1.635
26201WAT      O78844   1.850   6.795   7.558
26201WAT     H178845   1.914   6.865   7.525
26201WAT     H278846   1.757   6.831   7.554
26202WAT      O78847   6.153   0.701   4.363
26202WAT     H178848   6.151   0.735   4.457
26202WAT     H278849   6.086   0.751   4.309
26203WAT      O78850   6.999   8.930   0.694
26203WAT     H178851   7.033   8.848   0.739
26203WAT     H278852   7.013   9.009   0.754
26204WAT      O78853   5.061   6.068   6.554
26204WAT     H178854   5.154   6.102   6.566
26204WAT     H278855   5.062   5.968   6.559
26205WAT      O78856   5.373   7.333   1.364
26205WAT     H178857   5.273   7.333   1.369
26205WAT     H278858   5.408   7.241   1.385
26206WAT      O78859   4.377   1.974   6.327
26206WAT     H178860   4.315   2.049   6.304
26206WAT     H278861   4.346   1.929   6.411
26207WAT      O78862   2.964   2.369   8.490
26207WAT     H178863   3.051   2.376   8.538
26207WAT     H278864   2.911   2.453   8.504
26208WAT      O78865   4.326   9.077   8.961
26208WAT     H178866   4.406   9.019   8.979
26208WAT     H278867   4.252   9.052   9.023
26209WAT      O78868   8.447   0.138   4.354
26209WAT     H178869   8.544   0.161   4.362
26209WAT     H278870   8.437   0.040   4.336
26210WAT      O78871   7.260   5.934   5.751
26210WAT     H178872   7.176   5.919   5.698
26210WAT     H278873   7.309   5.847   5.761
26211WAT      O78874   3.692   1.935   8.235
26211WAT     H178875   3.649   1.845   8.224
26211WAT     H278876   3.682   1.986   8.149
26212WAT      O78877   2.100   9.288   7.930
26212WAT     H178878   2.055   9.364   7.976
26212WAT     H278879   2.037   9.210   7.924
26213WAT      O78880   1.932   4.667   4.686
26213WAT     H178881   1.859   4.722   4.646
26213WAT     H278882   1.949   4.698   4.780
26214WAT      O78883   8.456   4.212   3.040
26214WAT     H178884   8.390   4.141   3.065
26214WAT     H278885   8.522   4.174   2.974
26215WAT      O78886   7.780   6.902   4.134
26215WAT     H178887   7.742   6.878   4.044
26215WAT     H278888   7.860   6.846   4.152
26216WAT      O78889   9.075   0.891   3.539
26216WAT     H178890   9.035   0.800   3.528
26216WAT     H278891   9.004   0.957   3.563
26217WAT      O78892   8.774   0.165   9.369
26217WAT     H178893   8.840   0.092   9.353
26217WAT     H278894   8.819   0.254   9.355
26218WAT      O78895   1.452   1.243   0.917
26218WAT     H178896   1.550   1.232   0.933
26218WAT     H278897   1.429   1.209   0.825
26219WAT      O78898   5.131   7.785   5.481
26219WAT     H178899   5.112   7.883   5.485
26219WAT     H278900   5.229   7.770   5.494
26220WAT      O78901   2.876   1.815   6.244
26220WAT     H178902   2.968   1.777   6.256
26220WAT     H278903   2.838   1.785   6.157
26221WAT      O78904   0.325   4.224   0.185
26221WAT     H178905   0.333   4.307   0.241
26221WAT     H278906   0.242   4.174   0.212
26222WAT      O78907   6.768   5.404   2.357
26222WAT     H178908   6.835   5.447   2.418
26222WAT     H278909   6.702   5.473   2.327
26223WAT      O78910   1.893   4.915   3.057
26223WAT     H178911   1.817   4.884   3.000
26223WAT     H278912   1.978   4.874   3.024
26224WAT      O78913   1.357   0.361   9.090
26224WAT     H178914   1.361   0.327   8.996
26224WAT     H278915   1.283   0.427   9.100
26225WAT      O78916   4.089   4.873   7.669
26225WAT     H178917   4.097   4.832   7.759
26225WAT     H278918   4.146   4.822   7.604
26226WAT      O78919   6.043   3.289   5.875
26226WAT     H178920   5.999   3.370   5.915
26226WAT     H278921   6.133   3.314   5.841
26227WAT      O78922   2.434   6.825   2.798
26227WAT     H178923   2.344   6.821   2.755
26227WAT     H278924   2.435   6.765   2.879
26228WAT      O78925   7.121   8.000   1.894
26228WAT     H178926   7.194   7.974   1.831
26228WAT     H278927   7.131   8.097   1.918
26229WAT      O78928   8.857   9.410   9.673
26229WAT     H178929   8.807   9.491   9.644
26229WAT     H278930   8.818   9.375   9.758
26230WAT      O78931   1.889   7.061   0.150
26230WAT     H178932   1.906   6.976   0.200
26230WAT     H278933   1.811   7.109   0.191
26231WAT      O78934   1.601   1.159   6.053
26231WAT     H178935   1.680   1.118   6.007
26231WAT     H278936   1.541   1.086   6.088
26232WAT      O78937   8.701   5.045   8.596
26232WAT     H178938   8.756   5.104   8.656
26232WAT     H278939   8.733   4.951   8.603
26233WAT      O78940   4.332   6.198   9.571
26233WAT     H178941   4.347   6.296   9.581
26233WAT     H278942   4.258   6.183   9.505
26234WAT      O78943   2.185   8.530   0.021
26234WAT     H178944   2.168   8.518  -0.076
26234WAT     H278945   2.167   8.625   0.046
26235WAT      O78946   9.091   7.387   5.428
26235WAT     H178947   9.136   7.384   5.517
26235WAT     H278948   9.000   7.346   5.435
26236WAT      O78949   5.659   1.710   6.563
26236WAT     H178950   5.566   1.728   6.530
26236WAT     H278951   5.655   1.684   6.659
26237WAT      O78952   0.850   9.798   7.032
26237WAT     H178953   0.835   9.895   7.047
26237WAT     H278954   0.767   9.747   7.058
26238WAT      O78955   4.816   2.089   9.599
26238WAT     H178956   4.915   2.077   9.608
26238WAT     H278957   4.794   2.125   9.509
26239WAT      O78958   9.419   2.521   9.502
26239WAT     H178959   9.357   2.449   9.473
26239WAT     H278960   9.500   2.480   9.545
26240WAT      O78961   9.824   0.986   5.148
26240WAT     H178962   9.869   1.011   5.234
26240WAT     H278963   9.893   0.970   5.077
26241WAT      O78964   9.416   3.895   6.480
26241WAT     H178965   9.368   3.822   6.431
26241WAT     H278966   9.430   3.867   6.575
26242WAT      O78967   8.125   7.477   2.737
26242WAT     H178968   8.224   7.482   2.750
26242WAT     H278969   8.079   7.508   2.820
26243WAT      O78970   8.595   1.893   4.778
26243WAT     H178971   8.574   1.873   4.873
26243WAT     H278972   8.548   1.977   4.750
26244WAT      O78973   0.880   7.332   5.515
26244WAT     H178974   0.979   7.319   5.512
26244WAT     H278975   0.841   7.279   5.590
26245WAT      O78976   2.498   5.661   1.989
26245WAT     H178977   2.448   5.589   2.036
26245WAT     H278978   2.596   5.638   1.986
26246WAT      O78979   6.413   1.649   8.345
26246WAT     H178980   6.341   1.594   8.302
26246WAT     H278981   6.501   1.623   8.306
26247WAT      O78982   5.195   3.192   7.789
26247WAT     H178983   5.255   3.271   7.807
26247WAT     H278984   5.147   3.168   7.873
26248WAT      O78985   5.714   5.456   1.862
26248WAT     H178986   5.704   5.441   1.764
26248WAT     H278987   5.805   5.492   1.882
26249WAT      O78988   7.320   2.999   4.671
26249WAT     H178989   7.231   2.984   4.627
26249WAT     H278990   7.307   3.053   4.754
26250WAT      O78991   3.381   6.617   7.649
26250WAT     H178992   3.366   6.614   7.747
26250WAT     H278993   3.473   6.652   7.630
26251WAT      O78994   4.942   3.057   3.390
26251WAT     H178995   4.888   3.141   3.395
26251WAT     H278996   4.996   3.058   3.306
26252WAT      O78997   7.917   5.743   9.473
26252WAT     H178998   8.001   5.794   9.453
26252WAT     H278999   7.893   5.686   9.395
26253WAT      O79000   3.969   8.041   1.862
26253WAT     H179001   3.966   8.018   1.959
26253WAT     H279002   3.897   7.991   1.813
26254WAT      O79003   6.066   0.586   3.142
26254WAT     H179004   6.012   0.670   3.140
26254WAT     H279005   6.162   0.609   3.161
26255WAT      O79006   7.676   3.224   7.636
26255WAT     H179007   7.764   3.220   7.588
26255WAT     H279008   7.655   3.319   7.660
26256WAT      O79009   0.238   1.281   5.580
26256WAT     H179010   0.221   1.263   5.677
26256WAT     H279011   0.152   1.305   5.535
26257WAT      O79012   4.705   6.414   8.254
26257WAT     H179013   4.775   6.481   8.277
26257WAT     H279014   4.742   6.349   8.187
26258WAT      O79015   1.190   7.468   2.545
26258WAT     H179016   1.173   7.566   2.543
26258WAT     H279017   1.183   7.431   2.453
26259WAT      O79018   2.209   9.143   0.086
26259WAT     H179019   2.242   9.049   0.071
26259WAT     H279020   2.124   9.140   0.139
26260WAT      O79021   5.069   6.970   6.890
26260WAT     H179022   4.982   6.926   6.912
26260WAT     H279023   5.076   6.982   6.791
26261WAT      O79024   2.562   4.131   4.249
26261WAT     H179025   2.471   4.162   4.277
26261WAT     H279026   2.582   4.167   4.158
26262WAT      O79027   3.577   7.120   9.592
26262WAT     H179028   3.597   7.035   9.641
26262WAT     H279029   3.649   7.137   9.524
26263WAT      O79030   9.472   5.981   6.033
26263WAT     H179031   9.497   5.966   6.129
26263WAT     H279032   9.379   6.019   6.028
26264WAT      O79033   6.091   7.324   8.964
26264WAT     H179034   6.187   7.306   8.983
26264WAT     H279035   6.078   7.422   8.947
26265WAT      O79036   3.693   4.871   0.076
26265WAT     H179037   3.650   4.802   0.016
26265WAT     H279038   3.790   4.879   0.053
26266WAT      O79039   2.961   1.677   9.510
26266WAT     H179040   3.035   1.656   9.446
26266WAT     H279041   2.878   1.630   9.479
26267WAT      O79042   1.460   5.310   2.574
26267WAT     H179043   1.376   5.278   2.617
26267WAT     H279044   1.513   5.364   2.639
26268WAT      O79045   5.138   2.205   9.352
26268WAT     H179046   5.226   2.189   9.307
26268WAT     H279047   5.134   2.153   9.437
26269WAT      O79048   4.633   3.656   0.265
26269WAT     H179049   4.535   3.660   0.283
26269WAT     H279050   4.649   3.607   0.179
26270WAT      O79051   7.021   7.217   1.823
26270WAT     H179052   6.964   7.216   1.904
26270WAT     H279053   7.099   7.156   1.835
26271WAT      O79054   9.038   4.994   9.329
26271WAT     H179055   9.023   5.083   9.285
26271WAT     H279056   9.117   4.949   9.288
26272WAT      O79057   8.074   4.232   9.329
26272WAT     H179058   8.090   4.221   9.427
26272WAT     H279059   8.118   4.316   9.298
26273WAT      O79060   4.210   0.042   6.056
26273WAT     H179061   4.252   0.050   6.146
26273WAT     H279062   4.182   0.132   6.023
26274WAT      O79063   2.479   7.921   3.150
26274WAT     H179064   2.490   7.821   3.147
26274WAT     H279065   2.382   7.943   3.164
26275WAT      O79066   1.090   4.565   5.905
26275WAT     H179067   1.155   4.605   5.839
26275WAT     H279068   0.998   4.567   5.866
26276WAT      O79069   3.835   5.469   4.738
26276WAT     H179070   3.790   5.451   4.826
26276WAT     H279071   3.932   5.446   4.746
26277WAT      O79072   2.700   6.883   0.616
26277WAT     H179073   2.731   6.790   0.636
26277WAT     H279074   2.607   6.880   0.581
26278WAT      O79075   5.513   8.270   0.497
26278WAT     H179076   5.489   8.305   0.587
26278WAT     H279077   5.502   8.342   0.429
26279WAT      O79078   2.525   1.835   3.108
26279WAT     H179079   2.530   1.927   3.147
26279WAT     H279080   2.495   1.770   3.179
26280WAT      O79081   8.499   2.058   1.357
26280WAT     H179082   8.435   2.055   1.279
26280WAT     H279083   8.447   2.052   1.442
26281WAT      O79084   3.773   7.587   7.269
26281WAT     H179085   3.709   7.638   7.327
26281WAT     H279086   3.751   7.604   7.173
26282WAT      O79087   6.904   2.587   6.329
26282WAT     H179088   6.836   2.656   6.355
26282WAT     H279089   6.961   2.624   6.255
26283WAT      O79090   3.033   6.165   1.095
26283WAT     H179091   3.019   6.105   1.174
26283WAT     H279092   2.946   6.181   1.049
26284WAT      O79093   8.498   2.576   2.928
26284WAT     H179094   8.490   2.478   2.943
26284WAT     H279095   8.589   2.607   2.955
26285WAT      O79096   0.076   6.715   3.596
26285WAT     H179097   0.151   6.754   3.543
26285WAT     H279098   0.052   6.777   3.671
26286WAT      O79099   5.009   5.341   2.642
26286WAT     H179100   4.943   5.359   2.715
26286WAT     H279101   5.043   5.247   2.650
26287WAT      O79102   1.930   0.850   3.829
26287WAT     H179103   1.905   0.753   3.839
26287WAT     H279104   2.028   0.857   3.807
26288WAT      O79105   5.132   5.315   0.575
26288WAT     H179106   5.084   5.371   0.507
26288WAT     H279107   5.155   5.371   0.654
26289WAT      O79108   6.703   7.234   8.660
26289WAT     H179109   6.802   7.223   8.660
26289WAT     H279110   6.663   7.178   8.733
26290WAT      O79111   4.147   4.814   3.610
26290WAT     H179112   4.149   4.865   3.696
26290WAT     H279113   4.106   4.871   3.539
26291WAT      O79114   8.534   7.558   3.560
26291WAT     H179115   8.573   7.628   3.619
26291WAT     H279116   8.443   7.532   3.593
26292WAT      O79117   6.741   0.064   5.770
26292WAT     H179118   6.801   0.142   5.753
26292WAT     H279119   6.704   0.069   5.862
26293WAT      O79120   1.932   7.302   4.403
26293WAT     H179121   1.913   7.400   4.405
26293WAT     H279122   2.030   7.286   4.415
26294WAT      O79123   6.985   4.734   5.043
26294WAT     H179124   7.083   4.739   5.060
26294WAT     H279125   6.967   4.750   4.946
26295WAT      O79126   3.803   6.038   7.879
26295WAT     H179127   3.839   5.946   7.892
26295WAT     H279128   3.721   6.050   7.936
26296WAT      O79129   9.447   9.632   0.893
26296WAT     H179130   9.367   9.675   0.934
26296WAT     H279131   9.529   9.682   0.918
26297WAT      O79132   9.085   6.239   8.102
26297WAT     H179133   9.109   6.332   8.130
26297WAT     H279134   9.101   6.229   8.004
26298WAT      O79135   1.997   3.974   4.818
26298WAT     H179136   1.980   3.877   4.833
26298WAT     H279137   1.914   4.026   4.836
26299WAT      O79138   3.335   7.596   2.409
26299WAT     H179139   3.284   7.662   2.464
26299WAT     H279140   3.423   7.578   2.453
26300WAT      O79141   1.330   9.499   2.427
26300WAT     H179142   1.413   9.555   2.417
26300WAT     H279143   1.291   9.483   2.336
26301WAT      O79144   2.517   9.297   8.926
26301WAT     H179145   2.580   9.373   8.912
26301WAT     H279146   2.567   9.211   8.929
26302WAT      O79147   3.434   6.855   4.595
26302WAT     H179148   3.395   6.861   4.502
26302WAT     H279149   3.394   6.777   4.643
26303WAT      O79150   0.917   4.673   7.476
26303WAT     H179151   0.996   4.620   7.447
26303WAT     H279152   0.894   4.740   7.405
26304WAT      O79153   4.275   8.779   3.286
26304WAT     H179154   4.242   8.851   3.225
26304WAT     H279155   4.234   8.790   3.376
26305WAT      O79156   8.233   9.651   5.503
26305WAT     H179157   8.286   9.574   5.538
26305WAT     H279158   8.279   9.737   5.528
26306WAT      O79159   7.853   5.572   5.107
26306WAT     H179160   7.920   5.517   5.058
26306WAT     H279161   7.892   5.662   5.128
26307WAT      O79162   8.794   8.983   7.498
26307WAT     H179163   8.852   9.050   7.450
26307WAT     H279164   8.844   8.946   7.576
26308WAT      O79165   0.811   0.607   6.613
26308WAT     H179166   0.886   0.639   6.554
26308WAT     H279167   0.731   0.587   6.557
26309WAT      O79168   8.643   0.383   7.020
26309WAT     H179169   8.590   0.422   6.945
26309WAT     H279170   8.627   0.285   7.025
26310WAT      O79171   7.899   8.796   0.364
26310WAT     H179172   7.857   8.801   0.273
26310WAT     H279173   7.912   8.888   0.400
26311WAT      O79174   4.416   5.817   4.445
26311WAT     H179175   4.369   5.900   4.415
26311WAT     H279176   4.349   5.755   4.487
26312WAT      O79177   0.944   9.035   5.549
26312WAT     H179178   0.851   9.053   5.583
26312WAT     H279179   0.942   8.960   5.484
26313WAT      O79180   2.630   7.247   0.424
26313WAT     H179181   2.643   7.156   0.386
26313WAT     H279182   2.622   7.241   0.523
26314WAT      O79183   4.681   0.433   3.124
26314WAT     H179184   4.728   0.358   3.171
26314WAT     H279185   4.688   0.422   3.025
26315WAT      O79186   1.116   2.429   7.797
26315WAT     H179187   1.031   2.377   7.811
26315WAT     H279188   1.108   2.517   7.844
26316WAT      O79189   1.668   3.330   1.800
26316WAT     H179190   1.676   3.430   1.800
26316WAT     H279191   1.722   3.292   1.726
26317WAT      O79192   1.424   5.605   3.217
26317WAT     H179193   1.443   5.633   3.311
26317WAT     H279194   1.412   5.687   3.161
26318WAT      O79195   5.257   9.152   5.410
26318WAT     H179196   5.299   9.091   5.477
26318WAT     H279197   5.323   9.221   5.382
26319WAT      O79198   4.548   4.582   3.031
26319WAT     H179199   4.493   4.516   2.980
26319WAT     H279200   4.500   4.670   3.034
26320WAT      O79201   5.789   4.677   2.731
26320WAT     H179202   5.749   4.634   2.813
26320WAT     H279203   5.815   4.771   2.752
26321WAT      O79204   2.920   4.730   9.440
26321WAT     H179205   2.872   4.653   9.397
26321WAT     H279206   2.891   4.738   9.536
26322WAT      O79207   3.608   1.807   0.033
26322WAT     H179208   3.634   1.722   0.079
26322WAT     H279209   3.516   1.834   0.063
26323WAT      O79210   3.629   0.480   9.152
26323WAT     H179211   3.680   0.519   9.076
26323WAT     H279212   3.661   0.520   9.238
26324WAT      O79213   7.180   0.503   9.364
26324WAT     H179214   7.183   0.595   9.325
26324WAT     H279215   7.086   0.469   9.362
26325WAT      O79216   9.031   0.288   8.489
26325WAT     H179217   9.107   0.224   8.502
26325WAT     H279218   9.041   0.365   8.551
26326WAT      O79219   8.491   7.560   6.769
26326WAT     H179220   8.484   7.622   6.691
26326WAT     H279221   8.584   7.524   6.775
26327WAT      O79222   6.765   5.951   1.518
26327WAT     H179223   6.808   5.960   1.608
26327WAT     H279224   6.723   5.860   1.511
26328WAT      O79225   3.729   5.316   0.466
26328WAT     H179226   3.808   5.378   0.471
26328WAT     H279227   3.758   5.231   0.422
26329WAT      O79228   1.720   3.502   3.033
26329WAT     H179229   1.775   3.529   2.953
26329WAT     H279230   1.781   3.476   3.108
26330WAT      O79231   2.199   3.645   2.870
26330WAT     H179232   2.255   3.724   2.845
26330WAT     H279233   2.190   3.640   2.970
26331WAT      O79234   3.356   6.227   1.806
26331WAT     H179235   3.405   6.186   1.730
26331WAT     H279236   3.404   6.310   1.836
26332WAT      O79237   0.475   4.055   6.187
26332WAT     H179238   0.532   3.972   6.185
26332WAT     H279239   0.380   4.030   6.167
26333WAT      O79240   2.125   0.466   5.011
26333WAT     H179241   2.197   0.430   5.070
26333WAT     H279242   2.064   0.392   4.982
26334WAT      O79243   8.312   3.284   7.955
26334WAT     H179244   8.339   3.369   8.000
26334WAT     H279245   8.359   3.276   7.868
26335WAT      O79246   9.100   5.969   0.054
26335WAT     H179247   9.023   5.963  -0.010
26335WAT     H279248   9.183   5.994   0.004
26336WAT      O79249   8.587   5.275   4.443
26336WAT     H179250   8.550   5.191   4.404
26336WAT     H279251   8.681   5.258   4.474
26337WAT      O79252   9.636   0.167   2.245
26337WAT     H179253   9.682   0.089   2.202
26337WAT     H279254   9.703   0.219   2.298
26338WAT      O79255   5.961   5.004   9.645
26338WAT     H179256   6.042   4.945   9.642
26338WAT     H279257   5.978   5.080   9.708
26339WAT      O79258   9.512   5.207   8.059
26339WAT     H179259   9.484   5.111   8.054
26339WAT     H279260   9.501   5.250   7.970
26340WAT      O79261   4.472   9.412   7.773
26340WAT     H179262   4.446   9.500   7.812
26340WAT     H279263   4.530   9.362   7.838
26341WAT      O79264   3.643   1.743   6.365
26341WAT     H179265   3.602   1.742   6.456
26341WAT     H279266   3.579   1.784   6.300
26342WAT      O79267   5.520   0.602   6.827
26342WAT     H179268   5.422   0.580   6.822
26342WAT     H279269   5.538   0.653   6.911
26343WAT      O79270   8.368   9.481   3.237
26343WAT     H179271   8.441   9.544   3.211
26343WAT     H279272   8.369   9.467   3.336
26344WAT      O79273   8.033   0.538   5.209
26344WAT     H179274   8.075   0.629   5.204
26344WAT     H279275   8.069   0.489   5.288
26345WAT      O79276   7.919   5.602   7.776
26345WAT     H179277   7.858   5.642   7.707
26345WAT     H279278   7.917   5.658   7.858
26346WAT      O79279   7.353   0.173   2.346
26346WAT     H179280   7.446   0.177   2.383
26346WAT     H279281   7.328   0.263   2.310
26347WAT      O79282   7.167   0.206   8.593
26347WAT     H179283   7.267   0.203   8.587
26347WAT     H279284   7.131   0.115   8.613
26348WAT      O79285   5.329   2.356   3.153
26348WAT     H179286   5.363   2.298   3.079
26348WAT     H279287   5.397   2.360   3.226
26349WAT      O79288   2.385   7.874   3.918
26349WAT     H179289   2.434   7.944   3.969
26349WAT     H279290   2.288   7.877   3.942
26350WAT      O79291   0.328   1.171   8.029
26350WAT     H179292   0.363   1.144   8.118
26350WAT     H279293   0.362   1.262   8.006
26351WAT      O79294   0.207   0.577   4.460
26351WAT     H179295   0.281   0.630   4.499
26351WAT     H279296   0.192   0.495   4.515
26352WAT      O79297   4.763   8.164   3.096
26352WAT     H179298   4.746   8.140   3.000
26352WAT     H279299   4.859   8.151   3.117
26353WAT      O79300   2.920   5.259   8.999
26353WAT     H179301   2.953   5.314   8.922
26353WAT     H279302   2.951   5.300   9.085
26354WAT      O79303   3.270   2.287   5.572
26354WAT     H179304   3.254   2.271   5.474
26354WAT     H279305   3.368   2.292   5.589
26355WAT      O79306   8.571   0.008   0.281
26355WAT     H179307   8.653  -0.048   0.276
26355WAT     H279308   8.584   0.081   0.348
26356WAT      O79309   4.854   7.784   8.242
26356WAT     H179310   4.885   7.772   8.148
26356WAT     H279311   4.901   7.861   8.284
26357WAT      O79312   3.539   3.540   4.070
26357WAT     H179313   3.637   3.523   4.064
26357WAT     H279314   3.512   3.544   4.166
26358WAT      O79315   8.328   2.559   5.062
26358WAT     H179316   8.397   2.615   5.106
26358WAT     H279317   8.362   2.527   4.974
26359WAT      O79318   2.667   6.276   8.318
26359WAT     H179319   2.617   6.362   8.323
26359WAT     H279320   2.651   6.223   8.401
26360WAT      O79321   6.067   9.057   9.377
26360WAT     H179322   5.984   9.061   9.321
26360WAT     H279323   6.097   9.150   9.398
26361WAT      O79324   3.691   3.508   1.567
26361WAT     H179325   3.769   3.464   1.612
26361WAT     H279326   3.660   3.451   1.491
26362WAT      O79327   9.438   0.715   5.615
26362WAT     H179328   9.455   0.782   5.542
26362WAT     H279329   9.471   0.751   5.702
26363WAT      O79330   7.347   2.908   2.289
26363WAT     H179331   7.268   2.942   2.340
26363WAT     H279332   7.375   2.975   2.221
26364WAT      O79333   1.707   0.732   2.363
26364WAT     H179334   1.651   0.814   2.362
26364WAT     H279335   1.796   0.751   2.320
26365WAT      O79336   2.325   2.179   6.858
26365WAT     H179337   2.287   2.087   6.849
26365WAT     H279338   2.256   2.240   6.897
26366WAT      O79339   5.215   3.641   7.116
26366WAT     H179340   5.180   3.706   7.183
26366WAT     H279341   5.315   3.639   7.120
26367WAT      O79342   0.509   8.058   7.501
26367WAT     H179343   0.574   8.095   7.567
26367WAT     H279344   0.444   8.129   7.475
26368WAT      O79345   0.595   8.079   4.537
26368WAT     H179346   0.691   8.105   4.525
26368WAT     H279347   0.589   8.001   4.599
26369WAT      O79348   6.101   1.023   5.539
26369WAT     H179349   6.171   1.014   5.468
26369WAT     H279350   6.067   1.117   5.541
26370WAT      O79351   6.664   0.551   5.588
26370WAT     H179352   6.586   0.601   5.627
26370WAT     H279353   6.644   0.526   5.493
26371WAT      O79354   1.307   7.174   5.070
26371WAT     H179355   1.399   7.156   5.105
26371WAT     H279356   1.257   7.232   5.135
26372WAT      O79357   1.723   2.791   2.041
26372WAT     H179358   1.716   2.815   1.944
26372WAT     H279359   1.732   2.691   2.050
26373WAT      O79360   1.855   4.766   7.210
26373WAT     H179361   1.831   4.669   7.207
26373WAT     H279362   1.940   4.779   7.262
26374WAT      O79363   4.932   5.369   6.014
26374WAT     H179364   5.002   5.434   6.043
26374WAT     H279365   4.874   5.411   5.944
26375WAT      O79366   6.292   0.323   5.962
26375WAT     H179367   6.345   0.360   5.885
26375WAT     H279368   6.251   0.236   5.935
26376WAT      O79369   9.727   9.420   2.348
26376WAT     H179370   9.635   9.392   2.376
26376WAT     H279371   9.764   9.354   2.283
26377WAT      O79372   2.833   7.829   5.738
26377WAT     H179373   2.753   7.804   5.683
26377WAT     H279374   2.829   7.926   5.761
26378WAT      O79375   5.622   0.509   5.378
26378WAT     H179376   5.582   0.601   5.374
26378WAT     H279377   5.569   0.447   5.321
26379WAT      O79378   2.282   0.460   9.728
26379WAT     H179379   2.354   0.460   9.798
26379WAT     H279380   2.214   0.391   9.751
26380WAT      O79381   3.237   7.444   5.927
26380WAT     H179382   3.235   7.537   5.963
26380WAT     H279383   3.304   7.389   5.977
26381WAT      O79384   7.430   0.934   2.829
26381WAT     H179385   7.474   0.953   2.741
26381WAT     H279386   7.500   0.933   2.901
26382WAT      O79387   6.813   3.928   8.520
26382WAT     H179388   6.779   3.935   8.614
26382WAT     H279389   6.758   3.986   8.461
26383WAT      O79390   4.672   5.137   9.801
26383WAT     H179391   4.742   5.066   9.807
26383WAT     H279392   4.606   5.125   9.876
26384WAT      O79393   5.722   1.769   7.646
26384WAT     H179394   5.707   1.865   7.622
26384WAT     H279395   5.644   1.735   7.699
26385WAT      O79396   3.654   6.840   0.577
26385WAT     H179397   3.558   6.819   0.557
26385WAT     H279398   3.693   6.892   0.501
26386WAT      O79399   3.887   5.395   7.154
26386WAT     H179400   3.904   5.493   7.145
26386WAT     H279401   3.873   5.355   7.063
26387WAT      O79402   1.109   5.803   6.627
26387WAT     H179403   1.028   5.747   6.637
26387WAT     H279404   1.083   5.896   6.601
26388WAT      O79405   9.111   0.815   6.391
26388WAT     H179406   9.164   0.869   6.457
26388WAT     H279407   9.152   0.725   6.382
26389WAT      O79408   6.120   7.619   8.877
26389WAT     H179409   6.190   7.675   8.833
26389WAT     H279410   6.111   7.646   8.973
26390WAT      O79411   4.790   7.923   6.595
26390WAT     H179412   4.810   8.016   6.564
26390WAT     H279413   4.720   7.884   6.536
26391WAT      O79414   8.739   5.583   3.766
26391WAT     H179415   8.716   5.573   3.863
26391WAT     H279416   8.655   5.577   3.711
26392WAT      O79417   5.358   7.898   1.856
26392WAT     H179418   5.264   7.920   1.883
26392WAT     H279419   5.420   7.968   1.890
26393WAT      O79420   9.342   9.496   3.103
26393WAT     H179421   9.324   9.436   3.025
26393WAT     H279422   9.331   9.591   3.076
26394WAT      O79423   7.388   4.290   4.935
26394WAT     H179424   7.435   4.257   4.853
26394WAT     H279425   7.300   4.329   4.910
26395WAT      O79426   7.553   0.006   3.113
26395WAT     H179427   7.523   0.019   3.208
26395WAT     H279428   7.491  -0.057   3.068
26396WAT      O79429   3.700   2.723   7.392
26396WAT     H179430   3.633   2.745   7.463
26396WAT     H279431   3.713   2.803   7.333
26397WAT      O79432   6.101   9.328   1.532
26397WAT     H179433   6.026   9.371   1.483
26397WAT     H279434   6.174   9.304   1.467
26398WAT      O79435   7.183   8.963   3.643
26398WAT     H179436   7.239   8.990   3.721
26398WAT     H279437   7.125   9.040   3.615
26399WAT      O79438   6.264   0.499   7.536
26399WAT     H179439   6.174   0.510   7.494
26399WAT     H279440   6.310   0.588   7.541
26400WAT      O79441   9.392   7.102   8.661
26400WAT     H179442   9.485   7.100   8.697
26400WAT     H279443   9.394   7.111   8.561
26401WAT      O79444   0.961   5.701   2.568
26401WAT     H179445   0.968   5.702   2.668
26401WAT     H279446   0.911   5.782   2.538
26402WAT      O79447   3.679   2.919   8.610
26402WAT     H179448   3.632   2.941   8.525
26402WAT     H279449   3.768   2.880   8.590
26403WAT      O79450   0.428   1.591   7.564
26403WAT     H179451   0.433   1.673   7.508
26403WAT     H279452   0.418   1.510   7.506
26404WAT      O79453   4.391   6.622   7.275
26404WAT     H179454   4.411   6.543   7.217
26404WAT     H279455   4.292   6.625   7.294
26405WAT      O79456   3.895   6.239   8.345
26405WAT     H179457   3.806   6.281   8.325
26405WAT     H279458   3.907   6.158   8.288
26406WAT      O79459   4.178   8.487   6.842
26406WAT     H179460   4.126   8.514   6.760
26406WAT     H279461   4.200   8.568   6.895
26407WAT      O79462   9.799   6.317   7.474
26407WAT     H179463   9.715   6.324   7.528
26407WAT     H279464   9.836   6.224   7.479
26408WAT      O79465   0.592   4.219   7.524
26408WAT     H179466   0.539   4.246   7.443
26408WAT     H279467   0.683   4.260   7.518
26409WAT      O79468   2.580   4.399   9.148
26409WAT     H179469   2.582   4.333   9.223
26409WAT     H279470   2.487   4.434   9.137
26410WAT      O79471   9.173   5.769   0.712
26410WAT     H179472   9.169   5.795   0.808
26410WAT     H279473   9.110   5.825   0.659
26411WAT      O79474   7.240   1.912   8.466
26411WAT     H179475   7.177   1.987   8.485
26411WAT     H279476   7.194   1.842   8.412
26412WAT      O79477   7.394   8.056   2.754
26412WAT     H179478   7.483   8.010   2.758
26412WAT     H279479   7.348   8.031   2.669
26413WAT      O79480   4.330   3.387   6.559
26413WAT     H179481   4.381   3.326   6.499
26413WAT     H279482   4.267   3.333   6.615
26414WAT      O79483   4.883   4.389   0.383
26414WAT     H179484   4.877   4.379   0.284
26414WAT     H279485   4.845   4.307   0.427
26415WAT      O79486   7.144   7.213   3.277
26415WAT     H179487   7.114   7.206   3.372
26415WAT     H279488   7.069   7.251   3.222
26416WAT      O79489   6.255   0.106   8.624
26416WAT     H179490   6.279   0.067   8.713
26416WAT     H279491   6.235   0.203   8.633
26417WAT      O79492   4.890   1.235   2.445
26417WAT     H179493   4.855   1.324   2.474
26417WAT     H279494   4.987   1.244   2.421
26418WAT      O79495   2.354   7.907   7.598
26418WAT     H179496   2.311   7.985   7.552
26418WAT     H279497   2.446   7.932   7.628
26419WAT      O79498   5.334   2.885   3.224
26419WAT     H179499   5.398   2.936   3.281
26419WAT     H279500   5.318   2.794   3.264
26420WAT      O79501   8.679   4.209   5.541
26420WAT     H179502   8.676   4.242   5.447
26420WAT     H279503   8.773   4.216   5.575
26421WAT      O79504   5.430   2.534   6.059
26421WAT     H179505   5.419   2.611   6.122
26421WAT     H279506   5.405   2.562   5.967
26422WAT      O79507   0.980   3.804   4.845
26422WAT     H179508   1.058   3.789   4.906
26422WAT     H279509   1.006   3.780   4.751
26423WAT      O79510   6.335   6.846   0.907
26423WAT     H179511   6.394   6.792   0.848
26423WAT     H279512   6.317   6.795   0.991
26424WAT      O79513   8.571   1.016   7.782
26424WAT     H179514   8.583   0.942   7.849
26424WAT     H279515   8.651   1.076   7.784
26425WAT      O79516   1.222   0.137   6.755
26425WAT     H179517   1.211   0.142   6.656
26425WAT     H279518   1.301   0.191   6.783
26426WAT      O79519   4.007   6.464   1.677
26426WAT     H179520   3.929   6.430   1.625
26426WAT     H279521   4.004   6.564   1.678
26427WAT      O79522   9.695   5.229   4.981
26427WAT     H179523   9.601   5.259   4.967
26427WAT     H279524   9.697   5.154   5.048
26428WAT      O79525   2.852   9.485   7.485
26428WAT     H179526   2.945   9.521   7.475
26428WAT     H279527   2.854   9.405   7.545
26429WAT      O79528   6.100   1.541   9.739
26429WAT     H179529   6.142   1.480   9.806
26429WAT     H279530   6.170   1.579   9.679
26430WAT      O79531   5.506   1.931   7.806
26430WAT     H179532   5.502   1.831   7.815
26430WAT     H279533   5.600   1.962   7.824
26431WAT      O79534   1.648   6.600   5.501
26431WAT     H179535   1.647   6.529   5.431
26431WAT     H279536   1.652   6.690   5.457
26432WAT      O79537   2.205   5.972   4.748
26432WAT     H179538   2.270   5.975   4.823
26432WAT     H279539   2.197   5.878   4.714
26433WAT      O79540   5.911   3.989   2.551
26433WAT     H179541   5.949   4.051   2.482
26433WAT     H279542   5.954   3.899   2.543
26434WAT      O79543   7.545   1.837   7.092
26434WAT     H179544   7.631   1.786   7.087
26434WAT     H279545   7.528   1.881   7.004
26435WAT      O79546   9.858   3.578   5.213
26435WAT     H179547   9.863   3.553   5.116
26435WAT     H279548   9.762   3.591   5.239
26436WAT      O79549   0.327   8.970   4.287
26436WAT     H179550   0.323   8.926   4.197
26436WAT     H279551   0.270   9.052   4.286
26437WAT      O79552   4.751   7.984   0.520
26437WAT     H179553   4.705   7.995   0.608
26437WAT     H279554   4.689   7.943   0.454
26438WAT      O79555   0.868   8.552   5.793
26438WAT     H179556   0.825   8.605   5.720
26438WAT     H279557   0.832   8.458   5.793
26439WAT      O79558   7.344   7.004   5.126
26439WAT     H179559   7.307   7.032   5.038
26439WAT     H279560   7.442   6.985   5.117
26440WAT      O79561   2.286   7.982   1.307
26440WAT     H179562   2.272   8.056   1.241
26440WAT     H279563   2.373   7.936   1.288
26441WAT      O79564   5.127   5.769   8.590
26441WAT     H179565   5.034   5.742   8.613
26441WAT     H279566   5.136   5.780   8.491
26442WAT      O79567   7.904   1.901   8.426
26442WAT     H179568   7.972   1.958   8.472
26442WAT     H279569   7.940   1.808   8.415
26443WAT      O79570   8.849   6.406   3.785
26443WAT     H179571   8.885   6.358   3.865
26443WAT     H279572   8.889   6.498   3.781
26444WAT      O79573   3.689   1.891   0.656
26444WAT     H179574   3.710   1.805   0.610
26444WAT     H279575   3.678   1.874   0.754
26445WAT      O79576   5.208   7.230   6.411
26445WAT     H179577   5.145   7.208   6.485
26445WAT     H279578   5.199   7.162   6.339
26446WAT      O79579   8.262   2.758   4.744
26446WAT     H179580   8.167   2.749   4.772
26446WAT     H279581   8.301   2.841   4.784
26447WAT      O79582   7.256   7.815   5.268
26447WAT     H179583   7.328   7.876   5.236
26447WAT     H279584   7.181   7.813   5.201
26448WAT      O79585   5.140   6.530   3.943
26448WAT     H179586   5.204   6.564   4.012
26448WAT     H279587   5.186   6.462   3.885
26449WAT      O79588   3.085   3.484   5.347
26449WAT     H179589   3.036   3.439   5.272
26449WAT     H279590   3.092   3.582   5.328
26450WAT      O79591   2.139   3.195   1.313
26450WAT     H179592   2.123   3.098   1.297
26450WAT     H279593   2.234   3.209   1.341
26451WAT      O79594   8.928   3.167   0.275
26451WAT     H179595   8.875   3.207   0.349
26451WAT     H279596   8.867   3.145   0.198
26452WAT      O79597   1.366   9.423   7.240
26452WAT     H179598   1.427   9.430   7.320
26452WAT     H279599   1.362   9.328   7.210
26453WAT      O79600   6.962   0.831   1.777
26453WAT     H179601   7.007   0.890   1.709
26453WAT     H279602   6.888   0.780   1.733
26454WAT      O79603   0.199   8.880   8.291
26454WAT     H179604   0.211   8.935   8.373
26454WAT     H279605   0.279   8.890   8.232
26455WAT      O79606   1.495   3.790   5.610
26455WAT     H179607   1.459   3.873   5.569
26455WAT     H279608   1.547   3.813   5.693
26456WAT      O79609   0.987   8.890   2.113
26456WAT     H179610   1.075   8.848   2.133
26456WAT     H279611   0.915   8.820   2.117
26457WAT      O79612   1.776   7.993   1.251
26457WAT     H179613   1.832   8.012   1.170
26457WAT     H279614   1.691   8.045   1.246
26458WAT      O79615   4.322   1.401   5.518
26458WAT     H179616   4.225   1.423   5.526
26458WAT     H279617   4.340   1.311   5.557
26459WAT      O79618   3.682   4.964   5.293
26459WAT     H179619   3.782   4.959   5.292
26459WAT     H279620   3.653   5.059   5.279
26460WAT      O79621   8.071   2.666   3.519
26460WAT     H179622   8.149   2.605   3.508
26460WAT     H279623   8.104   2.760   3.533
26461WAT      O79624   7.650   5.408   4.410
26461WAT     H179625   7.742   5.437   4.436
26461WAT     H279626   7.583   5.474   4.444
26462WAT      O79627   4.322   2.085   6.616
26462WAT     H179628   4.266   2.143   6.557
26462WAT     H279629   4.300   1.989   6.599
26463WAT      O79630   4.341   4.059   3.406
26463WAT     H179631   4.271   4.120   3.370
26463WAT     H279632   4.323   3.966   3.376
26464WAT      O79633   3.874   1.185   6.632
26464WAT     H179634   3.846   1.098   6.591
26464WAT     H279635   3.820   1.202   6.714
26465WAT      O79636   1.973   7.288   0.989
26465WAT     H179637   1.985   7.194   0.958
26465WAT     H279638   1.980   7.350   0.912
26466WAT      O79639   1.357   6.153   4.231
26466WAT     H179640   1.288   6.213   4.190
26466WAT     H279641   1.313   6.095   4.301
26467WAT      O79642   8.816   8.948   5.698
26467WAT     H179643   8.783   9.042   5.689
26467WAT     H279644   8.799   8.899   5.612
26468WAT      O79645   9.157   5.625   7.493
26468WAT     H179646   9.184   5.595   7.585
26468WAT     H279647   9.233   5.672   7.450
26469WAT      O79648   3.391   6.446   3.456
26469WAT     H179649   3.412   6.534   3.500
26469WAT     H279650   3.360   6.462   3.362
26470WAT      O79651   4.246   3.622   6.345
26470WAT     H179652   4.151   3.641   6.372
26470WAT     H279653   4.272   3.531   6.376
26471WAT      O79654   2.991   1.019   5.417
26471WAT     H179655   3.088   0.999   5.405
26471WAT     H279656   2.968   1.013   5.514
26472WAT      O79657   3.816   1.205   4.374
26472WAT     H179658   3.746   1.276   4.363
26472WAT     H279659   3.773   1.115   4.367
26473WAT      O79660   6.541   3.939   6.071
26473WAT     H179661   6.613   3.983   6.018
26473WAT     H279662   6.457   3.935   6.018
26474WAT      O79663   8.479   1.379   5.832
26474WAT     H179664   8.393   1.381   5.881
26474WAT     H279665   8.551   1.341   5.891
26475WAT      O79666   3.428   6.737   9.116
26475WAT     H179667   3.365   6.797   9.165
26475WAT     H279668   3.499   6.792   9.071
26476WAT      O79669   4.673   1.456   5.757
26476WAT     H179670   4.692   1.516   5.835
26476WAT     H279671   4.682   1.508   5.672
26477WAT      O79672   3.856   9.096   8.296
26477WAT     H179673   3.864   9.191   8.325
26477WAT     H279674   3.780   9.087   8.232
26478WAT      O79675   2.774   3.268   4.771
26478WAT     H179676   2.845   3.330   4.803
26478WAT     H279677   2.763   3.279   4.672
26479WAT      O79678   4.936   5.831   7.997
26479WAT     H179679   5.005   5.860   8.063
26479WAT     H279680   4.874   5.765   8.041
26480WAT      O79681   1.162   3.251   6.681
26480WAT     H179682   1.145   3.214   6.773
26480WAT     H279683   1.256   3.285   6.675
26481WAT      O79684   3.726   9.623   8.034
26481WAT     H179685   3.801   9.666   7.983
26481WAT     H279686   3.710   9.675   8.118
26482WAT      O79687   0.974   9.838   0.484
26482WAT     H179688   0.980   9.843   0.583
26482WAT     H279689   1.037   9.769   0.449
26483WAT      O79690   8.750   8.936   3.431
26483WAT     H179691   8.680   8.885   3.481
26483WAT     H279692   8.791   9.004   3.492
26484WAT      O79693   6.313   2.386   1.974
26484WAT     H179694   6.375   2.461   1.995
26484WAT     H279695   6.356   2.299   1.998
26485WAT      O79696   1.318   8.995   9.222
26485WAT     H179697   1.237   8.949   9.186
26485WAT     H279698   1.386   8.927   9.247
26486WAT      O79699   1.685   5.303   2.171
26486WAT     H179700   1.762   5.281   2.110
26486WAT     H279701   1.699   5.260   2.260
26487WAT      O79702   9.648   6.896   7.171
26487WAT     H179703   9.696   6.958   7.232
26487WAT     H279704   9.550   6.900   7.189
26488WAT      O79705   5.885   5.956   2.972
26488WAT     H179706   5.920   6.050   2.969
26488WAT     H279707   5.787   5.956   2.955
26489WAT      O79708   9.530   0.403   5.210
26489WAT     H179709   9.614   0.457   5.207
26489WAT     H279710   9.473   0.426   5.131
26490WAT      O79711   4.249   5.615   5.475
26490WAT     H179712   4.223   5.602   5.379
26490WAT     H279713   4.298   5.534   5.507
26491WAT      O79714   3.682   3.213   5.238
26491WAT     H179715   3.725   3.173   5.157
26491WAT     H279716   3.584   3.227   5.219
26492WAT      O79717   4.823   1.762   9.176
26492WAT     H179718   4.727   1.757   9.149
26492WAT     H279719   4.867   1.675   9.156
26493WAT      O79720   3.360   4.720   4.482
26493WAT     H179721   3.341   4.818   4.477
26493WAT     H279722   3.296   4.671   4.423
26494WAT      O79723   9.556   1.371   2.102
26494WAT     H179724   9.458   1.352   2.112
26494WAT     H279725   9.605   1.284   2.092
26495WAT      O79726   8.553   1.997   8.688
26495WAT     H179727   8.454   2.014   8.683
26495WAT     H279728   8.572   1.903   8.660
26496WAT      O79729   9.870   4.252   2.473
26496WAT     H179730   9.854   4.325   2.539
26496WAT     H279731   9.968   4.229   2.472
26497WAT      O79732   3.505   7.705   1.589
26497WAT     H179733   3.559   7.756   1.521
26497WAT     H279734   3.408   7.719   1.571
26498WAT      O79735   6.493   9.200   1.055
26498WAT     H179736   6.551   9.208   1.136
26498WAT     H279737   6.473   9.104   1.037
26499WAT      O79738   0.686   2.575   0.592
26499WAT     H179739   0.730   2.607   0.508
26499WAT     H279740   0.659   2.479   0.581
26500WAT      O79741   9.545   0.361   0.756
26500WAT     H179742   9.536   0.440   0.696
26500WAT     H279743   9.499   0.282   0.715
26501WAT      O79744   2.423   2.460   5.196
26501WAT     H179745   2.500   2.522   5.176
26501WAT     H279746   2.344   2.487   5.142
26502WAT      O79747   2.234   4.377   3.824
26502WAT     H179748   2.262   4.289   3.862
26502WAT     H279749   2.292   4.449   3.861
26503WAT      O79750   5.219   8.711   2.983
26503WAT     H179751   5.211   8.612   2.993
26503WAT     H279752   5.135   8.747   2.941
26504WAT      O79753   5.187   0.219   0.078
26504WAT     H179754   5.148   0.172   0.157
26504WAT     H279755   5.235   0.301   0.108
26505WAT      O79756   2.168   0.021   2.003
26505WAT     H179757   2.115  -0.060   1.976
26505WAT     H279758   2.247  -0.008   2.057
26506WAT      O79759   9.070   6.952   7.780
26506WAT     H179760   8.979   6.918   7.800
26506WAT     H279761   9.093   7.026   7.843
26507WAT      O79762   2.928   2.654   3.651
26507WAT     H179763   2.903   2.560   3.626
26507WAT     H279764   3.005   2.652   3.715
26508WAT      O79765   3.001   1.143   4.042
26508WAT     H179766   2.913   1.178   4.010
26508WAT     H279767   3.045   1.211   4.101
26509WAT      O79768   6.662   1.155   9.122
26509WAT     H179769   6.637   1.152   9.219
26509WAT     H279770   6.611   1.228   9.077
26510WAT      O79771   4.744   3.793   3.903
26510WAT     H179772   4.844   3.789   3.899
26510WAT     H279773   4.707   3.784   3.810
26511WAT      O79774   9.323   4.059   5.914
26511WAT     H179775   9.294   4.072   6.009
26511WAT     H279776   9.399   3.995   5.912
26512WAT      O79777   4.444   2.935   3.700
26512WAT     H179778   4.399   2.861   3.751
26512WAT     H279779   4.476   3.004   3.764
26513WAT      O79780   0.307   4.978   3.860
26513WAT     H179781   0.333   5.072   3.840
26513WAT     H279782   0.208   4.972   3.867
26514WAT      O79783   6.845   6.046   2.731
26514WAT     H179784   6.885   5.955   2.744
26514WAT     H279785   6.829   6.088   2.820
26515WAT      O79786   1.015   1.552   2.569
26515WAT     H179787   0.970   1.483   2.624
26515WAT     H279788   1.107   1.569   2.605
26516WAT      O79789   4.483   7.732   6.360
26516WAT     H179790   4.553   7.686   6.414
26516WAT     H279791   4.521   7.815   6.319
26517WAT      O79792   5.346   0.632   9.572
26517WAT     H179793   5.433   0.653   9.528
26517WAT     H279794   5.361   0.572   9.650
26518WAT      O79795   3.439   6.962   0.905
26518WAT     H179796   3.426   6.864   0.920
26518WAT     H279797   3.534   6.981   0.884
26519WAT      O79798   7.746   4.578   3.011
26519WAT     H179799   7.791   4.532   2.934
26519WAT     H279800   7.816   4.617   3.072
26520WAT      O79801   5.222   0.484   7.771
26520WAT     H179802   5.150   0.499   7.704
26520WAT     H279803   5.196   0.526   7.858
26521WAT      O79804   6.248   9.595   8.944
26521WAT     H179805   6.189   9.551   8.876
26521WAT     H279806   6.303   9.666   8.900
26522WAT      O79807   9.218   0.680   0.385
26522WAT     H179808   9.210   0.624   0.467
26522WAT     H279809   9.182   0.772   0.403
26523WAT      O79810   4.663   2.855   5.896
26523WAT     H179811   4.666   2.775   5.835
26523WAT     H279812   4.612   2.832   5.978
26524WAT      O79813   6.618   2.059   8.699
26524WAT     H179814   6.533   2.079   8.649
26524WAT     H279815   6.687   2.027   8.635
26525WAT      O79816   1.032   3.199   1.221
26525WAT     H179817   1.109   3.215   1.283
26525WAT     H279818   0.947   3.223   1.267
26526WAT      O79819   2.440   8.968   5.738
26526WAT     H179820   2.412   8.880   5.701
26526WAT     H279821   2.492   8.954   5.822
26527WAT      O79822   6.745   7.746   3.994
26527WAT     H179823   6.838   7.768   3.964
26527WAT     H279824   6.748   7.667   4.055
26528WAT      O79825   3.472   9.826   4.304
26528WAT     H179826   3.548   9.766   4.330
26528WAT     H279827   3.387   9.790   4.341
26529WAT      O79828   8.677   7.388   1.342
26529WAT     H179829   8.658   7.417   1.248
26529WAT     H279830   8.734   7.456   1.387
26530WAT      O79831   2.588   0.279   8.830
26530WAT     H179832   2.655   0.205   8.830
26530WAT     H279833   2.637   0.367   8.824
26531WAT      O79834   2.231   6.012   2.769
26531WAT     H179835   2.163   6.015   2.842
26531WAT     H279836   2.319   6.045   2.804
26532WAT      O79837   8.045   9.417   2.000
26532WAT     H179838   8.052   9.514   2.025
26532WAT     H279839   8.112   9.365   2.053
26533WAT      O79840   5.440   9.707   4.111
26533WAT     H179841   5.347   9.719   4.076
26533WAT     H279842   5.470   9.791   4.156
26534WAT      O79843   6.011   1.839   1.811
26534WAT     H179844   6.016   1.938   1.825
26534WAT     H279845   6.091   1.809   1.760
26535WAT      O79846   3.042   7.406   9.541
26535WAT     H179847   2.979   7.456   9.601
26535WAT     H279848   3.118   7.369   9.595
26536WAT      O79849   7.168   4.081   7.782
26536WAT     H179850   7.249   4.102   7.728
26536WAT     H279851   7.182   4.113   7.876
26537WAT      O79852   6.601   0.936   3.493
26537WAT     H179853   6.575   0.997   3.418
26537WAT     H279854   6.554   0.965   3.577
26538WAT      O79855   0.803   0.233   4.420
26538WAT     H179856   0.732   0.184   4.471
26538WAT     H279857   0.790   0.331   4.430
26539WAT      O79858   1.868   1.004   2.578
26539WAT     H179859   1.876   0.970   2.671
26539WAT     H279860   1.894   0.932   2.514
26540WAT      O79861   2.296   2.947   2.322
26540WAT     H179862   2.213   2.925   2.272
26540WAT     H279863   2.375   2.937   2.260
26541WAT      O79864   5.058   2.774   9.168
26541WAT     H179865   4.994   2.698   9.176
26541WAT     H279866   5.121   2.757   9.092
26542WAT      O79867   5.397   7.564   5.756
26542WAT     H179868   5.314   7.534   5.804
26542WAT     H279869   5.470   7.581   5.822
26543WAT      O79870   1.477   5.310   6.012
26543WAT     H179871   1.422   5.256   6.076
26543WAT     H279872   1.469   5.271   5.920
26544WAT      O79873   3.311   3.840   0.935
26544WAT     H179874   3.381   3.833   1.006
26544WAT     H279875   3.320   3.762   0.872
26545WAT      O79876   4.324   3.437   2.876
26545WAT     H179877   4.246   3.425   2.939
26545WAT     H279878   4.357   3.531   2.883
26546WAT      O79879   2.327   8.896   8.525
26546WAT     H179880   2.229   8.887   8.508
26546WAT     H279881   2.354   8.832   8.596
26547WAT      O79882   5.907   5.716   3.137
26547WAT     H179883   5.928   5.725   3.235
26547WAT     H279884   5.937   5.798   3.088
26548WAT      O79885   0.372   0.063   0.369
26548WAT     H179886   0.299   0.130   0.356
26548WAT     H279887   0.332  -0.028   0.382
26549WAT      O79888   2.949   1.187   0.445
26549WAT     H179889   3.032   1.176   0.391
26549WAT     H279890   2.972   1.183   0.543
26550WAT      O79891   8.940   1.285   1.908
26550WAT     H179892   8.922   1.343   1.988
26550WAT     H279893   8.993   1.336   1.841
26551WAT      O79894   5.237   5.092   3.030
26551WAT     H179895   5.232   5.015   2.967
26551WAT     H279896   5.217   5.061   3.123
26552WAT      O79897   4.464   8.908   6.116
26552WAT     H179898   4.500   8.826   6.160
26552WAT     H279899   4.386   8.942   6.168
26553WAT      O79900   8.766   0.296   7.809
26553WAT     H179901   8.736   0.328   7.719
26553WAT     H279902   8.717   0.212   7.832
26554WAT      O79903   1.708   6.883   9.392
26554WAT     H179904   1.738   6.839   9.308
26554WAT     H279905   1.613   6.859   9.410
26555WAT      O79906   2.641   5.612   4.242
26555WAT     H179907   2.688   5.536   4.287
26555WAT     H279908   2.699   5.648   4.169
26556WAT      O79909   2.415   4.564   4.195
26556WAT     H179910   2.514   4.548   4.194
26556WAT     H279911   2.382   4.572   4.101
26557WAT      O79912   4.466   1.025   4.701
26557WAT     H179913   4.443   1.061   4.791
26557WAT     H279914   4.538   0.956   4.709
26558WAT      O79915   8.859   6.063   1.631
26558WAT     H179916   8.897   5.971   1.630
26558WAT     H279917   8.808   6.079   1.546
26559WAT      O79918   6.119   0.942   9.270
26559WAT     H179919   6.066   0.889   9.204
26559WAT     H279920   6.215   0.916   9.265
26560WAT      O79921   8.830   6.751   3.317
26560WAT     H179922   8.807   6.710   3.228
26560WAT     H279923   8.879   6.837   3.302
26561WAT      O79924   8.312   2.207   2.857
26561WAT     H179925   8.377   2.132   2.846
26561WAT     H279926   8.232   2.190   2.799
26562WAT      O79927   2.396   8.243   8.300
26562WAT     H179928   2.457   8.260   8.377
26562WAT     H279929   2.435   8.283   8.217
26563WAT      O79930   4.075   0.662   2.763
26563WAT     H179931   4.002   0.664   2.695
26563WAT     H279932   4.151   0.607   2.729
26564WAT      O79933   8.102   4.260   2.464
26564WAT     H179934   8.037   4.333   2.482
26564WAT     H279935   8.123   4.212   2.550
26565WAT      O79936   3.264   7.561   6.507
26565WAT     H179937   3.283   7.540   6.603
26565WAT     H279938   3.208   7.644   6.501
26566WAT      O79939   9.507   3.465   4.984
26566WAT     H179940   9.544   3.425   4.900
26566WAT     H279941   9.464   3.553   4.963
26567WAT      O79942   8.086   8.202   5.671
26567WAT     H179943   8.075   8.108   5.637
26567WAT     H279944   8.147   8.201   5.750
26568WAT      O79945   1.182   1.010   1.715
26568WAT     H179946   1.170   0.912   1.732
26568WAT     H279947   1.205   1.024   1.619
26569WAT      O79948   5.556   1.148   3.113
26569WAT     H179949   5.634   1.179   3.058
26569WAT     H279950   5.576   1.058   3.151
26570WAT      O79951   1.068   5.706   7.554
26570WAT     H179952   0.983   5.722   7.503
26570WAT     H279953   1.055   5.628   7.615
26571WAT      O79954   2.126   4.124   8.700
26571WAT     H179955   2.166   4.139   8.790
26571WAT     H279956   2.191   4.150   8.629
26572WAT      O79957   3.360   0.656   8.103
26572WAT     H179958   3.427   0.671   8.030
26572WAT     H279959   3.318   0.566   8.091
26573WAT      O79960   5.475   9.238   3.482
26573WAT     H179961   5.495   9.287   3.566
26573WAT     H279962   5.411   9.164   3.501
26574WAT      O79963   9.677   0.369   2.671
26574WAT     H179964   9.719   0.389   2.760
26574WAT     H279965   9.623   0.447   2.641
26575WAT      O79966   2.193   0.110   6.665
26575WAT     H179967   2.273   0.137   6.611
26575WAT     H279968   2.203   0.016   6.696
26576WAT      O79969   6.082   9.478   0.813
26576WAT     H179970   6.054   9.521   0.727
26576WAT     H279971   6.020   9.403   0.835
26577WAT      O79972   1.735   6.583   4.825
26577WAT     H179973   1.739   6.484   4.815
26577WAT     H279974   1.740   6.625   4.734
26578WAT      O79975   2.070   9.219   6.630
26578WAT     H179976   2.087   9.240   6.534
26578WAT     H279977   2.106   9.128   6.651
26579WAT      O79978   1.533   1.482   7.579
26579WAT     H179979   1.540   1.383   7.566
26579WAT     H279980   1.436   1.507   7.585
26580WAT      O79981   7.537   5.707   0.009
26580WAT     H179982   7.440   5.713   0.034
26580WAT     H279983   7.551   5.628  -0.050
26581WAT      O79984   9.687   6.259   0.837
26581WAT     H179985   9.783   6.245   0.814
26581WAT     H279986   9.644   6.172   0.861
26582WAT      O79987   1.225   8.336   4.610
26582WAT     H179988   1.159   8.345   4.685
26582WAT     H279989   1.231   8.423   4.562
26583WAT      O79990   0.570   7.544   4.650
26583WAT     H179991   0.668   7.542   4.627
26583WAT     H279992   0.559   7.535   4.749
26584WAT      O79993   4.474   2.817   4.723
26584WAT     H179994   4.480   2.748   4.651
26584WAT     H279995   4.566   2.845   4.750
26585WAT      O79996   6.314   3.303   7.008
26585WAT     H179997   6.253   3.227   7.031
26585WAT     H279998   6.393   3.269   6.958
26586WAT      O79999   5.598   4.589   3.431
26586WAT     H180000   5.521   4.645   3.462
26586WAT     H280001   5.681   4.620   3.476
26587WAT      O80002   5.193   1.178   7.390
26587WAT     H180003   5.237   1.219   7.310
26587WAT     H280004   5.100   1.151   7.367
26588WAT      O80005   3.665   2.004   3.191
26588WAT     H180006   3.709   1.994   3.280
26588WAT     H280007   3.598   1.932   3.179
26589WAT      O80008   1.098   6.229   4.632
26589WAT     H180009   1.047   6.188   4.708
26589WAT     H280010   1.177   6.280   4.669
26590WAT      O80011   6.747   7.338   6.252
26590WAT     H180012   6.779   7.414   6.195
26590WAT     H280013   6.699   7.272   6.194
26591WAT      O80014   3.990   9.242   3.183
26591WAT     H180015   4.077   9.279   3.152
26591WAT     H280016   3.950   9.185   3.111
26592WAT      O80017   4.382   6.528   5.147
26592WAT     H180018   4.415   6.569   5.232
26592WAT     H280019   4.282   6.525   5.147
26593WAT      O80020   0.534   9.441   9.490
26593WAT     H180021   0.450   9.388   9.475
26593WAT     H280022   0.510   9.535   9.513
26594WAT      O80023   2.023   5.915   1.916
26594WAT     H180024   2.015   5.961   2.005
26594WAT     H280025   2.092   5.843   1.922
26595WAT      O80026   1.557   0.653   3.658
26595WAT     H180027   1.632   0.673   3.722
26595WAT     H280028   1.489   0.726   3.662
26596WAT      O80029   0.188   1.458   1.354
26596WAT     H180030   0.180   1.533   1.287
26596WAT     H280031   0.282   1.424   1.355
26597WAT      O80032   3.712   5.375   9.484
26597WAT     H180033   3.743   5.330   9.400
26597WAT     H280034   3.614   5.360   9.496
26598WAT      O80035   9.733   6.743   1.572
26598WAT     H180036   9.640   6.718   1.601
26598WAT     H280037   9.763   6.682   1.498
26599WAT      O80038   6.309   3.349   6.550
26599WAT     H180039   6.299   3.313   6.457
26599WAT     H280040   6.271   3.283   6.615
26600WAT      O80041   0.124   4.567   9.328
26600WAT     H180042   0.096   4.565   9.424
26600WAT     H280043   0.043   4.570   9.269
26601WAT      O80044   5.022   8.996   2.715
26601WAT     H180045   5.031   9.009   2.616
26601WAT     H280046   5.092   9.050   2.762
26602WAT      O80047   1.727   2.222   9.626
26602WAT     H180048   1.724   2.134   9.674
26602WAT     H280049   1.636   2.263   9.625
26603WAT      O80050   3.302   5.423   5.161
26603WAT     H180051   3.321   5.409   5.258
26603WAT     H280052   3.233   5.357   5.131
26604WAT      O80053   1.187   6.806   0.102
26604WAT     H180054   1.153   6.712   0.098
26604WAT     H280055   1.279   6.809   0.064
26605WAT      O80056   7.510   3.655   6.481
26605WAT     H180057   7.445   3.598   6.530
26605WAT     H280058   7.564   3.708   6.547
26606WAT      O80059   1.165   9.696   1.235
26606WAT     H180060   1.209   9.752   1.165
26606WAT     H280061   1.181   9.735   1.325
26607WAT      O80062   4.198   3.966   3.753
26607WAT     H180063   4.126   3.948   3.685
26607WAT     H280064   4.200   3.892   3.820
26608WAT      O80065   2.059   3.311   6.637
26608WAT     H180066   2.112   3.340   6.557
26608WAT     H280067   1.975   3.365   6.643
26609WAT      O80068   8.999   6.527   4.053
26609WAT     H180069   9.007   6.429   4.033
26609WAT     H280070   8.908   6.547   4.087
26610WAT      O80071   5.324   7.909   6.125
26610WAT     H180072   5.312   7.921   6.224
26610WAT     H280073   5.406   7.958   6.096
26611WAT      O80074   8.488   6.981   0.801
26611WAT     H180075   8.460   6.919   0.875
26611WAT     H280076   8.587   6.994   0.804
26612WAT      O80077   5.508   5.722   0.894
26612WAT     H180078   5.487   5.675   0.980
26612WAT     H280079   5.570   5.665   0.840
26613WAT      O80080   5.356   5.543   6.093
26613WAT     H180081   5.415   5.621   6.073
26613WAT     H280082   5.371   5.512   6.187
26614WAT      O80083   0.020   9.796   9.072
26614WAT     H180084   0.067   9.851   9.141
26614WAT     H280085   0.045   9.700   9.082
26615WAT      O80086   2.290   4.223   6.277
26615WAT     H180087   2.236   4.293   6.231
26615WAT     H280088   2.323   4.258   6.365
26616WAT      O80089   3.350   3.025   6.238
26616WAT     H180090   3.417   2.984   6.299
26616WAT     H280091   3.284   2.955   6.210
26617WAT      O80092   4.347   4.995   8.071
26617WAT     H180093   4.334   4.936   8.150
26617WAT     H280094   4.399   5.076   8.098
26618WAT      O80095   9.428   0.926   8.120
26618WAT     H180096   9.521   0.900   8.144
26618WAT     H280097   9.379   0.956   8.202
26619WAT      O80098   1.363   0.365   0.366
26619WAT     H180099   1.306   0.361   0.284
26619WAT     H280100   1.413   0.279   0.376
26620WAT      O80101   8.941   2.862   3.037
26620WAT     H180102   8.975   2.805   3.112
26620WAT     H280103   9.002   2.940   3.025
26621WAT      O80104   3.756   3.710   6.611
26621WAT     H180105   3.695   3.736   6.536
26621WAT     H280106   3.796   3.793   6.651
26622WAT      O80107   8.646   3.930   8.214
26622WAT     H180108   8.689   3.846   8.248
26622WAT     H280109   8.653   3.932   8.114
26623WAT      O80110   6.709   4.594   0.336
26623WAT     H180111   6.614   4.584   0.305
26623WAT     H280112   6.742   4.507   0.370
26624WAT      O80113   6.659   5.157   2.529
26624WAT     H180114   6.634   5.250   2.504
26624WAT     H280115   6.678   5.153   2.627
26625WAT      O80116   7.693   8.348   8.205
26625WAT     H180117   7.599   8.360   8.237
26625WAT     H280118   7.696   8.364   8.106
26626WAT      O80119   9.732   4.281   9.829
26626WAT     H180120   9.750   4.216   9.755
26626WAT     H280121   9.819   4.323   9.857
26627WAT      O80122   6.164   5.893   3.646
26627WAT     H180123   6.173   5.803   3.689
26627WAT     H280124   6.097   5.947   3.697
26628WAT      O80125   5.554   3.561   8.890
26628WAT     H180126   5.477   3.624   8.894
26628WAT     H280127   5.639   3.613   8.886
26629WAT      O80128   3.980   7.163   4.337
26629WAT     H180129   4.074   7.187   4.314
26629WAT     H280130   3.969   7.160   4.436
26630WAT      O80131   5.310   9.769   8.033
26630WAT     H180132   5.361   9.802   8.113
26630WAT     H280133   5.249   9.695   8.061
26631WAT      O80134   8.593   8.866   9.232
26631WAT     H180135   8.667   8.817   9.278
26631WAT     H280136   8.520   8.801   9.208
26632WAT      O80137   9.791   4.727   8.571
26632WAT     H180138   9.852   4.799   8.605
26632WAT     H280139   9.846   4.650   8.538
26633WAT      O80140   8.485   5.570   3.683
26633WAT     H180141   8.461   5.602   3.592
26633WAT     H280142   8.407   5.522   3.723
26634WAT      O80143   3.307   5.081   0.280
26634WAT     H180144   3.383   5.102   0.218
26634WAT     H280145   3.283   5.163   0.332
26635WAT      O80146   4.902   4.477   2.821
26635WAT     H180147   4.998   4.483   2.846
26635WAT     H280148   4.846   4.475   2.904
26636WAT      O80149   0.649   9.623   3.486
26636WAT     H180150   0.595   9.613   3.570
26636WAT     H280151   0.734   9.672   3.506
26637WAT      O80152   0.023   8.740   8.114
26637WAT     H180153   0.064   8.775   8.198
26637WAT     H280154   0.014   8.640   8.120
26638WAT      O80155   0.507   9.518   7.554
26638WAT     H180156   0.575   9.591   7.551
26638WAT     H280157   0.528   9.456   7.629
26639WAT      O80158   6.941   7.131   4.862
26639WAT     H180159   6.877   7.157   4.790
26639WAT     H280160   6.904   7.160   4.951
26640WAT      O80161   7.647   2.797   3.113
26640WAT     H180162   7.633   2.765   3.019
26640WAT     H280163   7.658   2.896   3.112
26641WAT      O80164   4.666   1.531   9.321
26641WAT     H180165   4.723   1.481   9.255
26641WAT     H280166   4.570   1.516   9.299
26642WAT      O80167   9.723   5.758   7.736
26642WAT     H180168   9.715   5.834   7.671
26642WAT     H280169   9.767   5.792   7.820
26643WAT      O80170   4.030   2.626   7.217
26643WAT     H180171   4.013   2.528   7.218
26643WAT     H280172   4.014   2.664   7.308
26644WAT      O80173   6.179   7.582   5.745
26644WAT     H180174   6.184   7.526   5.662
26644WAT     H280175   6.093   7.563   5.792
26645WAT      O80176   7.635   1.663   8.960
26645WAT     H180177   7.676   1.740   8.910
26645WAT     H280178   7.684   1.579   8.937
26646WAT      O80179   6.463   2.462   3.589
26646WAT     H180180   6.387   2.426   3.534
26646WAT     H280181   6.533   2.500   3.528
26647WAT      O80182   8.142   6.624   7.888
26647WAT     H180183   8.174   6.629   7.982
26647WAT     H280184   8.124   6.529   7.864
26648WAT      O80185   6.781   4.505   2.155
26648WAT     H180186   6.800   4.600   2.129
26648WAT     H280187   6.685   4.495   2.179
26649WAT      O80188   4.698   3.347   6.990
26649WAT     H180189   4.696   3.249   6.970
26649WAT     H280190   4.624   3.370   7.052
26650WAT      O80191   0.846   5.784   0.281
26650WAT     H180192   0.811   5.813   0.370
26650WAT     H280193   0.930   5.730   0.294
26651WAT      O80194   0.590   0.062   5.632
26651WAT     H180195   0.603   0.130   5.705
26651WAT     H280196   0.652  -0.015   5.648
26652WAT      O80197   8.247   2.071   4.867
26652WAT     H180198   8.307   1.991   4.871
26652WAT     H280199   8.241   2.113   4.957
26653WAT      O80200   7.238   3.344   2.694
26653WAT     H180201   7.221   3.420   2.756
26653WAT     H280202   7.290   3.376   2.615
26654WAT      O80203   9.320   4.929   8.889
26654WAT     H180204   9.279   4.892   8.972
26654WAT     H280205   9.420   4.920   8.894
26655WAT      O80206   0.412   4.529   9.562
26655WAT     H180207   0.332   4.529   9.623
26655WAT     H280208   0.480   4.595   9.597
26656WAT      O80209   8.344   9.657   8.570
26656WAT     H180210   8.389   9.573   8.539
26656WAT     H280211   8.410   9.732   8.568
26657WAT      O80212   2.376   4.945   9.229
26657WAT     H180213   2.470   4.913   9.215
26657WAT     H280214   2.320   4.872   9.266
26658WAT      O80215   3.523   2.382   0.224
26658WAT     H180216   3.423   2.388   0.222
26658WAT     H280217   3.551   2.286   0.217
26659WAT      O80218   2.003   3.363   7.689
26659WAT     H180219   2.072   3.302   7.650
26659WAT     H280220   2.047   3.423   7.756
26660WAT      O80221   1.741   8.526   1.792
26660WAT     H180222   1.673   8.457   1.813
26660WAT     H280223   1.833   8.487   1.801
26661WAT      O80224   4.861   6.239   2.913
26661WAT     H180225   4.917   6.170   2.958
26661WAT     H280226   4.878   6.237   2.815
26662WAT      O80227   3.075   9.365   8.083
26662WAT     H180228   2.984   9.338   8.052
26662WAT     H280229   3.117   9.426   8.015
26663WAT      O80230   1.829   2.448   4.138
26663WAT     H180231   1.786   2.453   4.048
26663WAT     H280232   1.900   2.518   4.145
26664WAT      O80233   7.846   1.433   5.152
26664WAT     H180234   7.930   1.413   5.203
26664WAT     H280235   7.775   1.463   5.215
26665WAT      O80236   7.583   6.314   9.510
26665WAT     H180237   7.656   6.318   9.578
26665WAT     H280238   7.496   6.297   9.555
26666WAT      O80239   2.991   9.382   6.569
26666WAT     H180240   3.050   9.349   6.643
26666WAT     H280241   2.895   9.378   6.599
26667WAT      O80242   2.782   3.651   4.456
26667WAT     H180243   2.686   3.641   4.483
26667WAT     H280244   2.795   3.611   4.365
26668WAT      O80245   1.244   6.701   5.153
26668WAT     H180246   1.157   6.711   5.203
26668WAT     H280247   1.275   6.790   5.122
26669WAT      O80248   6.282   4.804   6.216
26669WAT     H180249   6.210   4.736   6.200
26669WAT     H280250   6.351   4.765   6.277
26670WAT      O80251   4.089   6.126   9.734
26670WAT     H180252   4.027   6.194   9.694
26670WAT     H280253   4.174   6.125   9.682
26671WAT      O80254   3.944   9.669   8.992
26671WAT     H180255   4.012   9.706   8.928
26671WAT     H280256   3.913   9.742   9.054
26672WAT      O80257   9.515   8.942   0.856
26672WAT     H180258   9.606   8.913   0.827
26672WAT     H280259   9.452   8.864   0.850
26673WAT      O80260   2.685   9.773   5.961
26673WAT     H180261   2.593   9.739   5.979
26673WAT     H280262   2.714   9.745   5.870
26674WAT      O80263   1.887   0.245   9.876
26674WAT     H180264   1.868   0.237   9.779
26674WAT     H280265   1.830   0.180   9.927
26675WAT      O80266   8.290   4.521   5.234
26675WAT     H180267   8.234   4.592   5.277
26675WAT     H280268   8.282   4.436   5.286
26676WAT      O80269   3.719   1.874   1.189
26676WAT     H180270   3.673   1.869   1.278
26676WAT     H280271   3.818   1.872   1.203
26677WAT      O80272   3.976   9.626   1.718
26677WAT     H180273   3.983   9.699   1.786
26677WAT     H280274   3.906   9.651   1.651
26678WAT      O80275   1.539   5.135   6.424
26678WAT     H180276   1.477   5.190   6.480
26678WAT     H280277   1.622   5.115   6.477
26679WAT      O80278   6.224   2.005   2.987
26679WAT     H180279   6.124   2.004   2.987
26679WAT     H280280   6.258   1.935   3.049
26680WAT      O80281   0.327   9.464   6.866
26680WAT     H180282   0.360   9.402   6.795
26680WAT     H280283   0.261   9.415   6.924
26681WAT      O80284   1.429   3.380   8.351
26681WAT     H180285   1.380   3.294   8.360
26681WAT     H280286   1.395   3.429   8.270
26682WAT      O80287   8.854   5.724   5.984
26682WAT     H180288   8.904   5.686   5.906
26682WAT     H280289   8.914   5.724   6.064
26683WAT      O80290   0.699   5.346   0.796
26683WAT     H180291   0.765   5.386   0.859
26683WAT     H280292   0.628   5.413   0.775
26684WAT      O80293   2.411   2.098   7.865
26684WAT     H180294   2.467   2.156   7.924
26684WAT     H280295   2.417   2.131   7.771
26685WAT      O80296   6.284   6.538   7.427
26685WAT     H180297   6.236   6.500   7.506
26685WAT     H280298   6.340   6.467   7.385
26686WAT      O80299   7.141   2.477   4.262
26686WAT     H180300   7.099   2.547   4.203
26686WAT     H280301   7.226   2.513   4.300
26687WAT      O80302   8.679   2.146   6.267
26687WAT     H180303   8.605   2.132   6.202
26687WAT     H280304   8.763   2.167   6.217
26688WAT      O80305   8.186   2.418   5.223
26688WAT     H180306   8.238   2.471   5.156
26688WAT     H280307   8.208   2.450   5.315
26689WAT      O80308   8.120   8.421   2.078
26689WAT     H180309   8.049   8.463   2.135
26689WAT     H280310   8.204   8.475   2.083
26690WAT      O80311   2.519   0.221   1.195
26690WAT     H180312   2.433   0.229   1.246
26690WAT     H280313   2.512   0.272   1.110
26691WAT      O80314   0.009   1.116   2.754
26691WAT     H180315  -0.062   1.186   2.751
26691WAT     H280316  -0.027   1.034   2.798
26692WAT      O80317   6.900   4.910   3.927
26692WAT     H180318   6.853   4.963   3.997
26692WAT     H280319   6.962   4.845   3.970
26693WAT      O80320   3.262   0.904   0.629
26693WAT     H180321   3.269   0.844   0.708
26693WAT     H280322   3.185   0.875   0.572
26694WAT      O80323   7.516   2.331   7.288
26694WAT     H180324   7.494   2.300   7.381
26694WAT     H280325   7.447   2.396   7.257
26695WAT      O80326   8.749   8.753   9.411
26695WAT     H180327   8.697   8.774   9.494
26695WAT     H280328   8.769   8.655   9.408
26696WAT      O80329   8.512   6.269   2.307
26696WAT     H180330   8.563   6.275   2.221
26696WAT     H280331   8.417   6.297   2.292
26697WAT      O80332   6.946   3.579   8.272
26697WAT     H180333   6.851   3.609   8.285
26697WAT     H280334   6.948   3.480   8.262
26698WAT      O80335   1.406   2.695   1.592
26698WAT     H180336   1.365   2.783   1.614
26698WAT     H280337   1.466   2.666   1.666
26699WAT      O80338   5.122   5.010   2.134
26699WAT     H180339   5.095   5.055   2.219
26699WAT     H280340   5.055   5.031   2.062
26700WAT      O80341   6.980   2.409   6.647
26700WAT     H180342   6.938   2.484   6.698
26700WAT     H280343   6.925   2.389   6.566
26701WAT      O80344   5.646   0.470   9.127
26701WAT     H180345   5.692   0.441   9.043
26701WAT     H280346   5.549   0.443   9.123
26702WAT      O80347   2.016   4.575   0.339
26702WAT     H180348   2.091   4.562   0.274
26702WAT     H280349   1.930   4.547   0.297
26703WAT      O80350   8.205   4.193   8.405
26703WAT     H180351   8.202   4.293   8.400
26703WAT     H280352   8.284   4.159   8.353
26704WAT      O80353   6.310   6.775   6.147
26704WAT     H180354   6.386   6.714   6.123
26704WAT     H280355   6.345   6.851   6.203
26705WAT      O80356   6.853   5.792   5.969
26705WAT     H180357   6.930   5.856   5.975
26705WAT     H280358   6.813   5.780   6.061
26706WAT      O80359   8.129   8.874   0.774
26706WAT     H180360   8.101   8.790   0.728
26706WAT     H280361   8.226   8.867   0.800
26707WAT      O80362   3.789   0.733   7.918
26707WAT     H180363   3.853   0.793   7.870
26707WAT     H280364   3.808   0.735   8.016
26708WAT      O80365   3.214   4.722   7.583
26708WAT     H180366   3.265   4.808   7.587
26708WAT     H280367   3.144   4.721   7.654
26709WAT      O80368   6.692   0.839   1.927
26709WAT     H180369   6.791   0.840   1.937
26709WAT     H280370   6.656   0.931   1.946
26710WAT      O80371   7.774   5.778   1.118
26710WAT     H180372   7.759   5.679   1.115
26710WAT     H280373   7.698   5.825   1.074
26711WAT      O80374   5.175   3.791   7.563
26711WAT     H180375   5.257   3.845   7.585
26711WAT     H280376   5.177   3.705   7.614
26712WAT      O80377   9.060   0.787   1.124
26712WAT     H180378   9.087   0.736   1.042
26712WAT     H280379   9.065   0.885   1.105
26713WAT      O80380   4.426   3.583   0.981
26713WAT     H180381   4.510   3.568   1.031
26713WAT     H280382   4.375   3.497   0.972
26714WAT      O80383   4.201   0.955   7.666
26714WAT     H180384   4.245   1.016   7.732
26714WAT     H280385   4.265   0.884   7.640
26715WAT      O80386   2.632   4.812   2.805
26715WAT     H180387   2.641   4.731   2.864
26715WAT     H280388   2.640   4.785   2.709
26716WAT      O80389   7.205   6.800   9.193
26716WAT     H180390   7.165   6.782   9.283
26716WAT     H280391   7.132   6.820   9.127
26717WAT      O80392   8.508   6.867   4.933
26717WAT     H180393   8.483   6.798   4.865
26717WAT     H280394   8.472   6.956   4.905
26718WAT      O80395   7.528   4.544   5.732
26718WAT     H180396   7.612   4.598   5.724
26718WAT     H280397   7.467   4.586   5.798
26719WAT      O80398   5.561   1.004   5.043
26719WAT     H180399   5.621   1.061   5.099
26719WAT     H280400   5.552   0.913   5.085
26720WAT      O80401   6.536   5.718   7.985
26720WAT     H180402   6.609   5.731   8.053
26720WAT     H280403   6.564   5.758   7.898
26721WAT      O80404   3.609   3.528   9.071
26721WAT     H180405   3.590   3.607   9.013
26721WAT     H280406   3.664   3.556   9.149
26722WAT      O80407   9.814   7.226   8.525
26722WAT     H180408   9.830   7.160   8.452
26722WAT     H280409   9.753   7.298   8.493
26723WAT      O80410   8.393   7.640   3.908
26723WAT     H180411   8.370   7.662   4.003
26723WAT     H280412   8.370   7.544   3.890
26724WAT      O80413   0.257   9.467   8.886
26724WAT     H180414   0.224   9.520   8.808
26724WAT     H280415   0.351   9.493   8.907
26725WAT      O80416   4.755   5.609   0.614
26725WAT     H180417   4.797   5.558   0.538
26725WAT     H280418   4.823   5.670   0.655
26726WAT      O80419   9.457   4.509   0.463
26726WAT     H180420   9.403   4.576   0.413
26726WAT     H280421   9.525   4.556   0.519
26727WAT      O80422   3.814   2.907   9.690
26727WAT     H180423   3.859   2.987   9.651
26727WAT     H280424   3.868   2.825   9.669
26728WAT      O80425   9.757   9.514   7.030
26728WAT     H180426   9.721   9.510   7.124
26728WAT     H280427   9.808   9.430   7.011
26729WAT      O80428   0.078   9.640   3.522
26729WAT     H180429   0.023   9.678   3.596
26729WAT     H280430   0.019   9.621   3.443
26730WAT      O80431   3.166   2.894   6.959
26730WAT     H180432   3.147   2.992   6.958
26730WAT     H280433   3.113   2.851   7.032
26731WAT      O80434   3.568   9.007   6.746
26731WAT     H180435   3.577   8.951   6.663
26731WAT     H280436   3.511   9.087   6.726
26732WAT      O80437   1.410   5.786   0.570
26732WAT     H180438   1.453   5.772   0.481
26732WAT     H280439   1.480   5.780   0.642
26733WAT      O80440   7.617   2.321   5.427
26733WAT     H180441   7.703   2.350   5.469
26733WAT     H280442   7.621   2.223   5.407
26734WAT      O80443   9.431   4.270   4.581
26734WAT     H180444   9.493   4.328   4.527
26734WAT     H280445   9.391   4.200   4.522
26735WAT      O80446   4.242   9.592   4.306
26735WAT     H180447   4.304   9.562   4.379
26735WAT     H280448   4.193   9.674   4.336
26736WAT      O80449   1.717   8.706   1.991
26736WAT     H180450   1.710   8.658   1.904
26736WAT     H280451   1.741   8.802   1.974
26737WAT      O80452   4.880   7.480   6.640
26737WAT     H180453   4.799   7.467   6.697
26737WAT     H280454   4.920   7.390   6.618
26738WAT      O80455   6.497   9.093   7.068
26738WAT     H180456   6.457   9.001   7.064
26738WAT     H280457   6.516   9.116   7.163
26739WAT      O80458   2.879   4.296   7.606
26739WAT     H180459   2.974   4.287   7.576
26739WAT     H280460   2.853   4.217   7.661
26740WAT      O80461   3.482   2.058   9.325
26740WAT     H180462   3.508   2.020   9.236
26740WAT     H280463   3.502   2.156   9.327
26741WAT      O80464   3.319   2.742   7.414
26741WAT     H180465   3.337   2.653   7.457
26741WAT     H280466   3.384   2.810   7.449
26742WAT      O80467   7.526   4.026   1.459
26742WAT     H180468   7.582   4.106   1.439
26742WAT     H280469   7.547   3.952   1.395
26743WAT      O80470   3.357   9.781   6.143
26743WAT     H180471   3.432   9.726   6.107
26743WAT     H280472   3.331   9.749   6.234
26744WAT      O80473   7.737   9.249   6.544
26744WAT     H180474   7.824   9.298   6.550
26744WAT     H280475   7.665   9.305   6.585
26745WAT      O80476   6.520   6.227   6.586
26745WAT     H180477   6.462   6.171   6.645
26745WAT     H280478   6.464   6.296   6.540
26746WAT      O80479   9.325   1.666   5.682
26746WAT     H180480   9.395   1.651   5.612
26746WAT     H280481   9.356   1.736   5.746
26747WAT      O80482   6.854   5.425   4.520
26747WAT     H180483   6.805   5.359   4.577
26747WAT     H280484   6.900   5.377   4.445
26748WAT      O80485   0.693   1.498   4.330
26748WAT     H180486   0.605   1.544   4.346
26748WAT     H280487   0.686   1.403   4.361
26749WAT      O80488   6.296   9.654   0.841
26749WAT     H180489   6.366   9.586   0.864
26749WAT     H280490   6.205   9.612   0.849
26750WAT      O80491   2.653   6.045   6.926
26750WAT     H180492   2.564   6.002   6.941
26750WAT     H280493   2.692   6.075   7.013
26751WAT      O80494   2.853   5.342   5.832
26751WAT     H180495   2.921   5.385   5.772
26751WAT     H280496   2.803   5.413   5.882
26752WAT      O80497   8.351   0.919   4.777
26752WAT     H180498   8.291   0.840   4.783
26752WAT     H280499   8.445   0.889   4.761
26753WAT      O80500   2.918   7.584   6.451
26753WAT     H180501   2.917   7.499   6.503
26753WAT     H280502   2.825   7.607   6.421
26754WAT      O80503   9.729   0.929   1.649
26754WAT     H180504   9.801   0.931   1.580
26754WAT     H280505   9.640   0.944   1.604
26755WAT      O80506   9.535   0.234   9.186
26755WAT     H180507   9.584   0.186   9.113
26755WAT     H280508   9.490   0.315   9.148
26756WAT      O80509   1.105   0.719   1.723
26756WAT     H180510   1.103   0.621   1.741
26756WAT     H280511   1.125   0.735   1.626
26757WAT      O80512   2.451   6.310   1.663
26757WAT     H180513   2.437   6.408   1.657
26757WAT     H280514   2.491   6.276   1.578
26758WAT      O80515   2.365   3.022   3.309
26758WAT     H180516   2.343   3.107   3.261
26758WAT     H280517   2.324   3.024   3.401
26759WAT      O80518   3.498   2.338   1.234
26759WAT     H180519   3.428   2.382   1.178
26759WAT     H280520   3.556   2.408   1.277
26760WAT      O80521   8.359   8.869   1.918
26760WAT     H180522   8.342   8.855   2.015
26760WAT     H280523   8.285   8.828   1.865
26761WAT      O80524   2.199   6.819   0.112
26761WAT     H180525   2.102   6.827   0.135
26761WAT     H280526   2.249   6.781   0.189
26762WAT      O80527   5.281   1.200   3.656
26762WAT     H180528   5.203   1.251   3.621
26762WAT     H280529   5.305   1.127   3.591
26763WAT      O80530   3.502   6.294   0.585
26763WAT     H180531   3.594   6.263   0.608
26763WAT     H280532   3.490   6.389   0.615
26764WAT      O80533   0.153   9.329   3.808
26764WAT     H180534   0.053   9.327   3.814
26764WAT     H280535   0.192   9.294   3.893
26765WAT      O80536   7.198   9.312   8.888
26765WAT     H180537   7.099   9.302   8.889
26765WAT     H280538   7.238   9.239   8.833
26766WAT      O80539   1.373   2.025   1.656
26766WAT     H180540   1.332   1.972   1.582
26766WAT     H280541   1.432   2.096   1.618
26767WAT      O80542   1.801   8.006   9.867
26767WAT     H180543   1.730   8.064   9.826
26767WAT     H280544   1.768   7.912   9.874
26768WAT      O80545   1.918   2.982   8.678
26768WAT     H180546   1.828   2.989   8.636
26768WAT     H280547   1.961   2.896   8.649
26769WAT      O80548   3.694   3.221   8.441
26769WAT     H180549   3.627   3.148   8.451
26769WAT     H280550   3.765   3.192   8.377
26770WAT      O80551   1.907   3.499   6.235
26770WAT     H180552   1.989   3.452   6.202
26770WAT     H280553   1.917   3.517   6.333
26771WAT      O80554   1.142   8.275   3.920
26771WAT     H180555   1.104   8.318   3.838
26771WAT     H280556   1.227   8.320   3.945
26772WAT      O80557   4.122   2.922   6.312
26772WAT     H180558   4.044   2.924   6.375
26772WAT     H280559   4.130   3.011   6.266
26773WAT      O80560   6.014   2.180   8.364
26773WAT     H180561   6.030   2.152   8.458
26773WAT     H280562   5.947   2.119   8.321
26774WAT      O80563   5.571   9.281   2.153
26774WAT     H180564   5.507   9.206   2.164
26774WAT     H280565   5.655   9.248   2.110
26775WAT      O80566   7.333   6.631   2.981
26775WAT     H180567   7.304   6.615   2.887
26775WAT     H280568   7.402   6.704   2.983
26776WAT      O80569   0.513   7.348   6.674
26776WAT     H180570   0.533   7.431   6.622
26776WAT     H280571   0.449   7.370   6.748
26777WAT      O80572   7.242   4.528   3.901
26777WAT     H180573   7.269   4.624   3.895
26777WAT     H280574   7.176   4.507   3.830
26778WAT      O80575   6.274   9.286   1.320
26778WAT     H180576   6.246   9.272   1.225
26778WAT     H280577   6.309   9.200   1.357
26779WAT      O80578   6.242   2.563   1.234
26779WAT     H180579   6.321   2.524   1.187
26779WAT     H280580   6.253   2.550   1.333
26780WAT      O80581   9.490   5.218   1.735
26780WAT     H180582   9.459   5.134   1.690
26780WAT     H280583   9.585   5.207   1.764
26781WAT      O80584   9.233   9.447   6.226
26781WAT     H180585   9.308   9.384   6.246
26781WAT     H280586   9.262   9.540   6.247
26782WAT      O80587   2.347   3.785   4.028
26782WAT     H180588   2.340   3.769   3.929
26782WAT     H280589   2.442   3.770   4.057
26783WAT      O80590   4.130   4.449   7.796
26783WAT     H180591   4.180   4.514   7.853
26783WAT     H280592   4.104   4.492   7.710
26784WAT      O80593   3.572   1.514   2.411
26784WAT     H180594   3.650   1.503   2.473
26784WAT     H280595   3.514   1.433   2.414
26785WAT      O80596   6.859   0.664   3.365
26785WAT     H180597   6.880   0.704   3.276
26785WAT     H280598   6.943   0.632   3.409
26786WAT      O80599   2.332   9.299   8.580
26786WAT     H180600   2.269   9.329   8.652
26786WAT     H280601   2.313   9.204   8.556
26787WAT      O80602   3.814   4.698   2.280
26787WAT     H180603   3.725   4.656   2.295
26787WAT     H280604   3.802   4.789   2.240
26788WAT      O80605   8.297   4.563   3.083
26788WAT     H180606   8.396   4.573   3.085
26788WAT     H280607   8.260   4.614   3.005
26789WAT      O80608   5.644   5.111   1.593
26789WAT     H180609   5.691   5.050   1.529
26789WAT     H280610   5.691   5.199   1.597
26790WAT      O80611   4.551   9.099   0.787
26790WAT     H180612   4.628   9.111   0.725
26790WAT     H280613   4.566   9.018   0.844
26791WAT      O80614   6.874   1.454   5.088
26791WAT     H180615   6.945   1.389   5.115
26791WAT     H280616   6.916   1.528   5.035
26792WAT      O80617   1.866   0.525   9.893
26792WAT     H180618   1.843   0.552   9.799
26792WAT     H280619   1.865   0.425   9.899
26793WAT      O80620   1.548   6.258   4.682
26793WAT     H180621   1.645   6.275   4.695
26793WAT     H280622   1.529   6.160   4.694
26794WAT      O80623   6.388   2.555   7.693
26794WAT     H180624   6.335   2.628   7.737
26794WAT     H280625   6.449   2.513   7.760
26795WAT      O80626   6.176   7.860   0.210
26795WAT     H180627   6.244   7.897   0.274
26795WAT     H280628   6.179   7.760   0.213
26796WAT      O80629   2.750   2.593   1.559
26796WAT     H180630   2.784   2.666   1.500
26796WAT     H280631   2.654   2.574   1.537
26797WAT      O80632   2.914   4.627   5.080
26797WAT     H180633   2.887   4.572   5.159
26797WAT     H280634   3.014   4.629   5.074
26798WAT      O80635   3.148   0.877   2.565
26798WAT     H180636   3.166   0.782   2.541
26798WAT     H280637   3.067   0.882   2.623
26799WAT      O80638   8.607   1.748   9.673
26799WAT     H180639   8.637   1.803   9.595
26799WAT     H280640   8.517   1.709   9.652
26800WAT      O80641   0.756   1.998   9.579
26800WAT     H180642   0.780   1.901   9.583
26800WAT     H280643   0.659   2.010   9.600
26801WAT      O80644   7.012   3.472   1.617
26801WAT     H180645   7.079   3.401   1.638
26801WAT     H280646   7.046   3.560   1.649
26802WAT      O80647   9.050   9.668   8.925
26802WAT     H180648   8.952   9.661   8.911
26802WAT     H280649   9.097   9.660   8.837
26803WAT      O80650   9.542   2.176   9.323
26803WAT     H180651   9.581   2.268   9.329
26803WAT     H280652   9.564   2.137   9.234
26804WAT      O80653   3.658   4.696   7.617
26804WAT     H180654   3.728   4.712   7.547
26804WAT     H280655   3.585   4.639   7.578
26805WAT      O80656   9.711   9.654   0.652
26805WAT     H180657   9.625   9.702   0.667
26805WAT     H280658   9.702   9.559   0.682
26806WAT      O80659   1.744   4.543   7.890
26806WAT     H180660   1.698   4.533   7.979
26806WAT     H280661   1.763   4.452   7.852
26807WAT      O80662   9.212   2.095   7.152
26807WAT     H180663   9.277   2.033   7.195
26807WAT     H280664   9.228   2.096   7.053
26808WAT      O80665   0.241   7.189   5.352
26808WAT     H180666   0.188   7.270   5.379
26808WAT     H280667   0.182   7.108   5.357
26809WAT      O80668   5.554   2.753   3.711
26809WAT     H180669   5.578   2.753   3.808
26809WAT     H280670   5.562   2.660   3.675
26810WAT      O80671   8.561   0.682   2.904
26810WAT     H180672   8.658   0.668   2.926
26810WAT     H280673   8.514   0.594   2.900
26811WAT      O80674   9.735   1.408   3.877
26811WAT     H180675   9.645   1.442   3.904
26811WAT     H280676   9.803   1.480   3.889
26812WAT      O80677   5.703   3.163   2.305
26812WAT     H180678   5.776   3.103   2.272
26812WAT     H280679   5.716   3.180   2.403
26813WAT      O80680   6.268   2.860   3.834
26813WAT     H180681   6.272   2.839   3.736
26813WAT     H280682   6.360   2.881   3.868
26814WAT      O80683   2.897   7.385   4.292
26814WAT     H180684   2.948   7.355   4.212
26814WAT     H280685   2.861   7.477   4.276
26815WAT      O80686   7.408   9.544   3.125
26815WAT     H180687   7.455   9.525   3.211
26815WAT     H280688   7.470   9.526   3.048
26816WAT      O80689   2.922   0.948   7.700
26816WAT     H180690   2.987   0.873   7.685
26816WAT     H280691   2.829   0.912   7.695
26817WAT      O80692   5.713   7.452   8.285
26817WAT     H180693   5.619   7.483   8.269
26817WAT     H280694   5.767   7.527   8.324
26818WAT      O80695   2.254   0.093   0.872
26818WAT     H180696   2.155   0.108   0.869
26818WAT     H280697   2.299   0.173   0.910
26819WAT      O80698   5.262   0.090   8.483
26819WAT     H180699   5.192   0.156   8.514
26819WAT     H280700   5.283   0.027   8.558
26820WAT      O80701   9.196   5.990   5.069
26820WAT     H180702   9.118   6.053   5.065
26820WAT     H280703   9.187   5.922   4.997
26821WAT      O80704   2.484   5.372   7.676
26821WAT     H180705   2.428   5.340   7.599
26821WAT     H280706   2.445   5.456   7.713
26822WAT      O80707   9.639   9.696   4.396
26822WAT     H180708   9.542   9.677   4.410
26822WAT     H280709   9.672   9.758   4.467
26823WAT      O80710   9.738   8.261   1.264
26823WAT     H180711   9.640   8.250   1.251
26823WAT     H280712   9.781   8.170   1.270
26824WAT      O80713   9.109   0.873   3.986
26824WAT     H180714   9.079   0.812   4.059
26824WAT     H280715   9.032   0.895   3.927
26825WAT      O80716   6.253   2.718   9.449
26825WAT     H180717   6.326   2.650   9.456
26825WAT     H280718   6.183   2.684   9.386
26826WAT      O80719   5.829   7.260   2.587
26826WAT     H180720   5.778   7.225   2.509
26826WAT     H280721   5.901   7.194   2.613
26827WAT      O80722   9.213   0.874   7.058
26827WAT     H180723   9.152   0.804   7.022
26827WAT     H280724   9.284   0.895   6.991
26828WAT      O80725   4.355   6.998   8.695
26828WAT     H180726   4.319   6.999   8.788
26828WAT     H280727   4.284   6.962   8.633
26829WAT      O80728   4.728   8.604   8.508
26829WAT     H180729   4.636   8.566   8.518
26829WAT     H280730   4.766   8.573   8.421
26830WAT      O80731   9.805   1.963   3.246
26830WAT     H180732   9.824   2.060   3.260
26830WAT     H280733   9.840   1.910   3.323
26831WAT      O80734   2.081   9.221   4.069
26831WAT     H180735   2.152   9.169   4.022
26831WAT     H280736   2.113   9.246   4.161
26832WAT      O80737   8.970   7.041   8.468
26832WAT     H180738   9.031   6.963   8.479
26832WAT     H280739   9.023   7.125   8.462
26833WAT      O80740   8.869   5.567   7.434
26833WAT     H180741   8.796   5.603   7.492
26833WAT     H280742   8.955   5.611   7.459
26834WAT      O80743   5.286   7.151   2.827
26834WAT     H180744   5.255   7.094   2.751
26834WAT     H280745   5.259   7.108   2.914
26835WAT      O80746   7.079   9.467   3.959
26835WAT     H180747   7.130   9.430   4.036
26835WAT     H280748   7.033   9.551   3.986
26836WAT      O80749   1.941   5.439   2.661
26836WAT     H180750   1.876   5.503   2.619
26836WAT     H280751   2.011   5.414   2.595
26837WAT      O80752   6.903   7.768   4.335
26837WAT     H180753   6.833   7.740   4.270
26837WAT     H280754   6.866   7.767   4.427
26838WAT      O80755   7.067   2.791   2.060
26838WAT     H180756   7.116   2.733   1.995
26838WAT     H280757   7.079   2.887   2.036
26839WAT      O80758   3.146   0.656   4.022
26839WAT     H180759   3.216   0.630   4.088
26839WAT     H280760   3.079   0.715   4.066
26840WAT      O80761   8.516   4.453   4.099
26840WAT     H180762   8.494   4.406   4.013
26840WAT     H280763   8.573   4.532   4.080
26841WAT      O80764   4.244   1.610   8.303
26841WAT     H180765   4.194   1.672   8.242
26841WAT     H280766   4.258   1.654   8.391
26842WAT      O80767   5.595   2.766   5.361
26842WAT     H180768   5.563   2.804   5.275
26842WAT     H280769   5.518   2.754   5.424
26843WAT      O80770   1.230   9.604   6.333
26843WAT     H180771   1.221   9.700   6.306
26843WAT     H280772   1.231   9.596   6.432
26844WAT      O80773   2.194   5.281   9.441
26844WAT     H180774   2.197   5.233   9.354
26844WAT     H280775   2.264   5.243   9.502
26845WAT      O80776   4.467   2.623   4.003
26845WAT     H180777   4.526   2.701   4.027
26845WAT     H280778   4.398   2.653   3.938
26846WAT      O80779   9.521   9.804   5.224
26846WAT     H180780   9.477   9.840   5.141
26846WAT     H280781   9.507   9.706   5.230
26847WAT      O80782   1.951   5.842   3.128
26847WAT     H180783   1.895   5.827   3.047
26847WAT     H280784   2.014   5.765   3.139
26848WAT      O80785   8.691   4.700   4.099
26848WAT     H180786   8.747   4.684   4.017
26848WAT     H280787   8.737   4.765   4.159
26849WAT      O80788   6.324   5.447   5.216
26849WAT     H180789   6.364   5.534   5.186
26849WAT     H280790   6.396   5.378   5.223
26850WAT      O80791   6.066   9.302   5.058
26850WAT     H180792   6.101   9.213   5.086
26850WAT     H280793   5.973   9.314   5.093
26851WAT      O80794   6.795   8.162   6.796
26851WAT     H180795   6.726   8.122   6.736
26851WAT     H280796   6.842   8.237   6.747
26852WAT      O80797   7.377   6.916   6.991
26852WAT     H180798   7.395   6.947   7.085
26852WAT     H280799   7.323   6.832   6.993
26853WAT      O80800   6.173   4.802   9.717
26853WAT     H180801   6.183   4.782   9.619
26853WAT     H280802   6.233   4.740   9.769
26854WAT      O80803   2.213   8.612   3.008
26854WAT     H180804   2.298   8.569   3.036
26854WAT     H280805   2.136   8.570   3.056
26855WAT      O80806   2.107   5.421   4.737
26855WAT     H180807   2.051   5.388   4.814
26855WAT     H280808   2.064   5.501   4.696
26856WAT      O80809   0.605   6.870   7.954
26856WAT     H180810   0.516   6.825   7.957
26856WAT     H280811   0.614   6.933   8.031
26857WAT      O80812   5.011   6.573   8.612
26857WAT     H180813   5.081   6.513   8.651
26857WAT     H280814   4.931   6.574   8.671
26858WAT      O80815   1.850   4.249   1.249
26858WAT     H180816   1.874   4.333   1.298
26858WAT     H280817   1.856   4.265   1.150
26859WAT      O80818   2.644   2.762   7.779
26859WAT     H180819   2.567   2.786   7.838
26859WAT     H280820   2.622   2.680   7.727
26860WAT      O80821   4.528   3.076   3.478
26860WAT     H180822   4.477   3.010   3.533
26860WAT     H280823   4.516   3.168   3.515
26861WAT      O80824   9.326   6.919   3.340
26861WAT     H180825   9.252   6.874   3.292
26861WAT     H280826   9.351   6.865   3.421
26862WAT      O80827   5.084   5.089   6.642
26862WAT     H180828   5.018   5.035   6.589
26862WAT     H280829   5.035   5.161   6.691
26863WAT      O80830   8.595   6.240   2.868
26863WAT     H180831   8.667   6.300   2.834
26863WAT     H280832   8.506   6.282   2.851
26864WAT      O80833   9.858   4.305   0.378
26864WAT     H180834   9.817   4.274   0.464
26864WAT     H280835   9.918   4.382   0.396
26865WAT      O80836   5.630   9.492   7.371
26865WAT     H180837   5.562   9.452   7.309
26865WAT     H280838   5.713   9.437   7.368
26866WAT      O80839   8.560   8.541   0.967
26866WAT     H180840   8.616   8.540   1.050
26866WAT     H280841   8.479   8.484   0.980
26867WAT      O80842   8.564   1.030   0.722
26867WAT     H180843   8.507   1.007   0.802
26867WAT     H280844   8.517   1.001   0.639
26868WAT      O80845   7.066   7.890   9.381
26868WAT     H180846   7.008   7.971   9.391
26868WAT     H280847   7.121   7.877   9.464
26869WAT      O80848   7.749   5.617   6.184
26869WAT     H180849   7.690   5.653   6.256
26869WAT     H280850   7.844   5.619   6.214
26870WAT      O80851   9.243   2.509   3.236
26870WAT     H180852   9.343   2.506   3.229
26870WAT     H280853   9.212   2.440   3.302
26871WAT      O80854   1.038   3.601   5.188
26871WAT     H180855   1.011   3.596   5.092
26871WAT     H280856   1.138   3.602   5.196
26872WAT      O80857   3.377   9.227   7.115
26872WAT     H180858   3.448   9.167   7.078
26872WAT     H280859   3.287   9.196   7.085
26873WAT      O80860   5.917   2.134   4.768
26873WAT     H180861   5.967   2.069   4.825
26873WAT     H280862   5.894   2.215   4.823
26874WAT      O80863   3.100   4.798   8.730
26874WAT     H180864   3.063   4.889   8.711
26874WAT     H280865   3.025   4.732   8.738
26875WAT      O80866   1.944   3.178   1.087
26875WAT     H180867   1.972   3.162   1.181
26875WAT     H280868   1.872   3.112   1.062
26876WAT      O80869   6.349   2.590   0.276
26876WAT     H180870   6.270   2.638   0.237
26876WAT     H280871   6.432   2.642   0.258
26877WAT      O80872   3.904   6.932   8.695
26877WAT     H180873   3.879   6.904   8.602
26877WAT     H280874   3.939   7.026   8.693
26878WAT      O80875   6.365   7.849   3.836
26878WAT     H180876   6.297   7.917   3.809
26878WAT     H280877   6.418   7.822   3.756
26879WAT      O80878   8.283   0.900   5.606
26879WAT     H180879   8.351   0.872   5.674
26879WAT     H280880   8.201   0.844   5.615
26880WAT      O80881   2.221   4.788   3.853
26880WAT     H180882   2.278   4.869   3.842
26880WAT     H280883   2.142   4.810   3.909
26881WAT      O80884   1.904   1.052   5.507
26881WAT     H180885   1.843   1.128   5.487
26881WAT     H280886   1.965   1.077   5.582
26882WAT      O80887   8.409   1.865   7.275
26882WAT     H180888   8.490   1.851   7.332
26882WAT     H280889   8.347   1.928   7.321
26883WAT      O80890   8.473   9.816   1.166
26883WAT     H180891   8.525   9.737   1.132
26883WAT     H280892   8.408   9.785   1.236
26884WAT      O80893   7.033   3.107   5.194
26884WAT     H180894   7.126   3.071   5.192
26884WAT     H280895   7.020   3.160   5.277
26885WAT      O80896   6.900   8.887   7.573
26885WAT     H180897   6.983   8.874   7.628
26885WAT     H280898   6.867   8.980   7.586
26886WAT      O80899   7.536   5.632   7.124
26886WAT     H180900   7.445   5.645   7.084
26886WAT     H280901   7.574   5.545   7.093
26887WAT      O80902   4.413   4.937   9.329
26887WAT     H180903   4.391   4.996   9.406
26887WAT     H280904   4.475   4.864   9.359
26888WAT      O80905   0.870   5.033   8.385
26888WAT     H180906   0.874   5.073   8.293
26888WAT     H280907   0.947   4.970   8.397
26889WAT      O80908   9.485   9.147   8.599
26889WAT     H180909   9.554   9.083   8.564
26889WAT     H280910   9.401   9.138   8.545
26890WAT      O80911   8.676   4.575   6.519
26890WAT     H180912   8.694   4.504   6.587
26890WAT     H280913   8.661   4.662   6.565
26891WAT      O80914   5.634   6.052   7.001
26891WAT     H180915   5.574   6.057   7.081
26891WAT     H280916   5.593   5.991   6.933
26892WAT      O80917   2.228   5.839   5.654
26892WAT     H180918   2.162   5.791   5.711
26892WAT     H280919   2.184   5.869   5.570
26893WAT      O80920   2.579   3.721   2.539
26893WAT     H180921   2.497   3.732   2.482
26893WAT     H280922   2.646   3.666   2.490
26894WAT      O80923   3.604   8.864   3.760
26894WAT     H180924   3.673   8.822   3.818
26894WAT     H280925   3.635   8.862   3.665
26895WAT      O80926   2.997   4.317   7.225
26895WAT     H180927   3.082   4.306   7.278
26895WAT     H280928   2.924   4.349   7.285
26896WAT      O80929   3.750   2.024   0.406
26896WAT     H180930   3.716   2.071   0.325
26896WAT     H280931   3.675   2.012   0.471
26897WAT      O80932   2.142   7.459   7.441
26897WAT     H180933   2.205   7.530   7.472
26897WAT     H280934   2.062   7.458   7.502
26898WAT      O80935   2.169   3.919   1.380
26898WAT     H180936   2.179   3.958   1.289
26898WAT     H280937   2.075   3.887   1.393
26899WAT      O80938   8.855   9.765   1.801
26899WAT     H180939   8.865   9.863   1.780
26899WAT     H280940   8.771   9.731   1.758
26900WAT      O80941   6.961   7.225   6.391
26900WAT     H180942   6.953   7.126   6.405
26900WAT     H280943   6.871   7.264   6.372
26901WAT      O80944   0.911   8.688   6.896
26901WAT     H180945   1.002   8.727   6.881
26901WAT     H280946   0.879   8.645   6.812
26902WAT      O80947   4.075   8.415   0.661
26902WAT     H180948   4.011   8.422   0.738
26902WAT     H280949   4.024   8.421   0.575
26903WAT      O80950   6.192   2.790   7.532
26903WAT     H180951   6.258   2.720   7.504
26903WAT     H280952   6.116   2.792   7.467
26904WAT      O80953   3.549   0.474   2.042
26904WAT     H180954   3.627   0.428   1.999
26904WAT     H280955   3.562   0.475   2.141
26905WAT      O80956   5.141   8.538   8.247
26905WAT     H180957   5.229   8.539   8.294
26905WAT     H280958   5.149   8.582   8.158
26906WAT      O80959   5.232   3.353   8.161
26906WAT     H180960   5.300   3.317   8.225
26906WAT     H280961   5.271   3.431   8.112
26907WAT      O80962   4.543   5.857   8.890
26907WAT     H180963   4.577   5.764   8.872
26907WAT     H280964   4.613   5.923   8.864
26908WAT      O80965   6.786   3.390   2.341
26908WAT     H180966   6.692   3.358   2.346
26908WAT     H280967   6.787   3.485   2.309
26909WAT      O80968   9.093   5.903   4.597
26909WAT     H180969   9.016   5.966   4.606
26909WAT     H280970   9.063   5.820   4.550
26910WAT      O80971   7.784   1.274   5.387
26910WAT     H180972   7.686   1.294   5.390
26910WAT     H280973   7.802   1.207   5.315
26911WAT      O80974   6.581   3.403   9.670
26911WAT     H180975   6.539   3.342   9.737
26911WAT     H280976   6.675   3.374   9.653
26912WAT      O80977   4.282   0.492   7.174
26912WAT     H180978   4.351   0.433   7.217
26912WAT     H280979   4.310   0.513   7.080
26913WAT      O80980   4.235   4.446   0.387
26913WAT     H180981   4.202   4.374   0.326
26913WAT     H280982   4.161   4.477   0.446
26914WAT      O80983   2.487   3.774   4.836
26914WAT     H180984   2.495   3.692   4.778
26914WAT     H280985   2.399   3.770   4.884
26915WAT      O80986   7.430   5.559   8.278
26915WAT     H180987   7.496   5.517   8.216
26915WAT     H280988   7.445   5.658   8.281
26916WAT      O80989   4.252   8.727   6.923
26916WAT     H180990   4.266   8.822   6.895
26916WAT     H280991   4.306   8.709   7.005
26917WAT      O80992   4.591   1.519   0.070
26917WAT     H180993   4.612   1.460   0.148
26917WAT     H280994   4.526   1.473   0.010
26918WAT      O80995   9.295   1.377   3.688
26918WAT     H180996   9.217   1.435   3.664
26918WAT     H280997   9.263   1.296   3.738
26919WAT      O80998   8.402   6.727   5.947
26919WAT     H180999   8.431   6.647   5.999
26919WAT     H281000   8.303   6.725   5.933
26920WAT      O81001   2.773   0.886   1.960
26920WAT     H181002   2.742   0.955   2.026
26920WAT     H281003   2.707   0.880   1.885
26921WAT      O81004   1.775   6.034   2.770
26921WAT     H181005   1.787   6.119   2.821
26921WAT     H281006   1.702   5.981   2.812
26922WAT      O81007   4.071   6.204   9.431
26922WAT     H181008   4.113   6.217   9.341
26922WAT     H281009   3.996   6.139   9.423
26923WAT      O81010   0.270   2.524   0.632
26923WAT     H181011   0.306   2.608   0.593
26923WAT     H281012   0.302   2.445   0.579
26924WAT      O81013   1.748   3.864   0.659
26924WAT     H181014   1.753   3.962   0.638
26924WAT     H281015   1.818   3.840   0.725
26925WAT      O81016   5.718   4.360   1.336
26925WAT     H181017   5.626   4.319   1.339
26925WAT     H281018   5.779   4.310   1.397
26926WAT      O81019   7.488   0.559   0.062
26926WAT     H181020   7.410   0.608   0.023
26926WAT     H281021   7.498   0.583   0.158
26927WAT      O81022   6.339   0.311   3.632
26927WAT     H181023   6.339   0.345   3.537
26927WAT     H281024   6.317   0.214   3.632
26928WAT      O81025   3.896   5.542   2.252
26928WAT     H181026   3.894   5.606   2.329
26928WAT     H281027   3.875   5.450   2.285
26929WAT      O81028   4.033   9.684   6.418
26929WAT     H181029   3.959   9.694   6.484
26929WAT     H281030   4.078   9.771   6.404
26930WAT      O81031   5.667   8.132   1.204
26930WAT     H181032   5.705   8.185   1.280
26930WAT     H281033   5.681   8.182   1.119
26931WAT      O81034   4.993   7.458   7.765
26931WAT     H181035   5.084   7.449   7.807
26931WAT     H281036   4.930   7.495   7.832
26932WAT      O81037   4.295   3.643   6.686
26932WAT     H181038   4.325   3.708   6.617
26932WAT     H281039   4.314   3.550   6.655
26933WAT      O81040   9.639   1.268   2.705
26933WAT     H181041   9.604   1.335   2.639
26933WAT     H281042   9.622   1.176   2.672
26934WAT      O81043   2.109   2.633   8.374
26934WAT     H181044   2.016   2.605   8.395
26934WAT     H281045   2.131   2.608   8.280
26935WAT      O81046   1.740   1.665   6.513
26935WAT     H181047   1.659   1.631   6.465
26935WAT     H281048   1.787   1.732   6.455
26936WAT      O81049   4.345   1.359   5.114
26936WAT     H181050   4.385   1.321   5.198
26936WAT     H281051   4.364   1.457   5.110
26937WAT      O81052   9.718   6.691   6.138
26937WAT     H181053   9.677   6.607   6.103
26937WAT     H281054   9.708   6.764   6.070
26938WAT      O81055   7.165   0.010   3.957
26938WAT     H181056   7.104  -0.049   3.904
26938WAT     H281057   7.232  -0.046   4.005
26939WAT      O81058   7.168   4.897   3.593
26939WAT     H181059   7.241   4.849   3.643
26939WAT     H281060   7.150   4.984   3.637
26940WAT      O81061   8.762   6.882   2.499
26940WAT     H181062   8.681   6.824   2.507
26940WAT     H281063   8.839   6.840   2.547
26941WAT      O81064   7.784   0.066   3.930
26941WAT     H181065   7.876   0.065   3.969
26941WAT     H281066   7.722   0.013   3.988
26942WAT      O81067   6.405   9.750   4.418
26942WAT     H181068   6.436   9.820   4.482
26942WAT     H281069   6.483   9.714   4.367
26943WAT      O81070   7.254   7.829   9.557
26943WAT     H181071   7.331   7.878   9.516
26943WAT     H281072   7.284   7.787   9.643
26944WAT      O81073   1.347   3.411   7.652
26944WAT     H181074   1.404   3.459   7.719
26944WAT     H281075   1.254   3.447   7.656
26945WAT      O81076   7.720   5.154   0.920
26945WAT     H181077   7.781   5.125   0.847
26945WAT     H281078   7.745   5.246   0.950
26946WAT      O81079   6.186   8.411   8.190
26946WAT     H181080   6.225   8.333   8.142
26946WAT     H281081   6.259   8.473   8.219
26947WAT      O81082   1.393   8.449   8.336
26947WAT     H181083   1.342   8.482   8.415
26947WAT     H281084   1.423   8.526   8.280
26948WAT      O81085   5.068   8.726   5.018
26948WAT     H181086   5.102   8.808   4.971
26948WAT     H281087   5.140   8.658   5.025
26949WAT      O81088   3.986   6.111   0.409
26949WAT     H181089   4.044   6.030   0.419
26949WAT     H281090   4.019   6.167   0.334
26950WAT      O81091   2.767   1.271   7.982
26950WAT     H181092   2.735   1.217   7.904
26950WAT     H281093   2.864   1.251   7.999
26951WAT      O81094   1.049   5.399   1.754
26951WAT     H181095   1.045   5.461   1.832
26951WAT     H281096   1.145   5.378   1.733
26952WAT      O81097   7.698   5.350   5.111
26952WAT     H181098   7.630   5.353   5.184
26952WAT     H281099   7.771   5.416   5.130
26953WAT      O81100   2.978   6.779   5.779
26953WAT     H181101   2.983   6.800   5.681
26953WAT     H281102   2.955   6.683   5.791
26954WAT      O81103   7.189   2.139   6.415
26954WAT     H181104   7.278   2.124   6.459
26954WAT     H281105   7.184   2.086   6.331
26955WAT      O81106   6.537   4.088   0.651
26955WAT     H181107   6.629   4.049   0.663
26955WAT     H281108   6.544   4.187   0.641
26956WAT      O81109   2.644   6.152   3.273
26956WAT     H181110   2.605   6.099   3.198
26956WAT     H281111   2.704   6.223   3.235
26957WAT      O81112   4.989   2.912   8.563
26957WAT     H181113   4.890   2.915   8.550
26957WAT     H281114   5.013   2.953   8.651
26958WAT      O81115   9.887   0.505   7.839
26958WAT     H181116   9.805   0.505   7.783
26958WAT     H281117   9.883   0.581   7.905
26959WAT      O81118   2.676   2.859   6.684
26959WAT     H181119   2.579   2.835   6.688
26959WAT     H281120   2.730   2.788   6.731
26960WAT      O81121   6.983   6.044   1.062
26960WAT     H181122   6.890   6.018   1.037
26960WAT     H281123   7.013   5.987   1.139
26961WAT      O81124   9.196   8.342   4.712
26961WAT     H181125   9.262   8.406   4.753
26961WAT     H281126   9.103   8.375   4.727
26962WAT      O81127   1.352   7.272   6.484
26962WAT     H181128   1.329   7.364   6.451
26962WAT     H281129   1.450   7.268   6.506
26963WAT      O81130   8.525   9.611   7.947
26963WAT     H181131   8.524   9.704   7.910
26963WAT     H281132   8.481   9.610   8.037
26964WAT      O81133   2.481   1.359   1.550
26964WAT     H181134   2.563   1.390   1.501
26964WAT     H281135   2.499   1.360   1.648
26965WAT      O81136   3.789   8.154   4.951
26965WAT     H181137   3.866   8.154   4.887
26965WAT     H281138   3.800   8.078   5.016
26966WAT      O81139   4.315   9.221   8.036
26966WAT     H181140   4.233   9.275   8.055
26966WAT     H281141   4.395   9.265   8.078
26967WAT      O81142   0.049   2.627   1.715
26967WAT     H181143   0.038   2.686   1.635
26967WAT     H281144   0.131   2.571   1.704
26968WAT      O81145   9.121   7.178   8.208
26968WAT     H181146   9.089   7.252   8.148
26968WAT     H281147   9.055   7.103   8.205
26969WAT      O81148   1.809   7.199   6.124
26969WAT     H181149   1.799   7.140   6.044
26969WAT     H281150   1.883   7.165   6.181
26970WAT      O81151   4.396   8.939   8.188
26970WAT     H181152   4.466   8.976   8.250
26970WAT     H281153   4.338   9.014   8.156
26971WAT      O81154   5.530   9.146   6.564
26971WAT     H181155   5.591   9.067   6.573
26971WAT     H281156   5.462   9.144   6.637
26972WAT      O81157   5.822   7.100   0.932
26972WAT     H181158   5.821   7.013   0.982
26972WAT     H281159   5.864   7.085   0.842
26973WAT      O81160   6.903   8.357   2.089
26973WAT     H181161   6.937   8.316   2.173
26973WAT     H281162   6.952   8.317   2.011
26974WAT      O81163   9.061   7.937   8.527
26974WAT     H181164   9.075   8.021   8.475
26974WAT     H281165   9.123   7.936   8.606
26975WAT      O81166   6.813   4.100   2.179
26975WAT     H181167   6.830   4.116   2.081
26975WAT     H281168   6.808   4.002   2.196
26976WAT      O81169   8.864   4.713   6.839
26976WAT     H181170   8.835   4.727   6.934
26976WAT     H281171   8.948   4.659   6.838
26977WAT      O81172   0.435   7.368   0.823
26977WAT     H181173   0.503   7.307   0.784
26977WAT     H281174   0.403   7.331   0.910
26978WAT      O81175   9.834   6.678   3.984
26978WAT     H181176   9.934   6.690   3.983
26978WAT     H281177   9.812   6.581   3.987
26979WAT      O81178   0.023   6.902   0.032
26979WAT     H181179  -0.055   6.962   0.049
26979WAT     H281180   0.051   6.911  -0.064
26980WAT      O81181   4.740   8.859   4.315
26980WAT     H181182   4.823   8.915   4.317
26980WAT     H281183   4.746   8.787   4.384
26981WAT      O81184   0.527   3.183   2.623
26981WAT     H181185   0.595   3.121   2.583
26981WAT     H281186   0.569   3.272   2.639
26982WAT      O81187   7.518   4.161   9.331
26982WAT     H181188   7.613   4.188   9.313
26982WAT     H281189   7.457   4.237   9.307
26983WAT      O81190   0.283   8.968   1.465
26983WAT     H181191   0.291   9.064   1.436
26983WAT     H281192   0.280   8.909   1.384
26984WAT      O81193   7.753   2.331   9.187
26984WAT     H181194   7.842   2.339   9.233
26984WAT     H281195   7.741   2.408   9.124
26985WAT      O81196   5.381   4.418   4.280
26985WAT     H181197   5.480   4.403   4.280
26985WAT     H281198   5.335   4.334   4.252
26986WAT      O81199   9.134   1.599   7.889
26986WAT     H181200   9.129   1.514   7.837
26986WAT     H281201   9.228   1.615   7.919
26987WAT      O81202   1.418   3.934   1.388
26987WAT     H181203   1.428   3.862   1.319
26987WAT     H281204   1.489   4.004   1.373
26988WAT      O81205   5.626   1.737   4.749
26988WAT     H181206   5.535   1.737   4.708
26988WAT     H281207   5.665   1.829   4.742
26989WAT      O81208   0.121   3.873   8.824
26989WAT     H181209   0.214   3.841   8.812
26989WAT     H281210   0.093   3.863   8.919
26990WAT      O81211   6.233   7.131   1.710
26990WAT     H181212   6.185   7.216   1.689
26990WAT     H281213   6.209   7.101   1.802
26991WAT      O81214   0.851   6.229   2.374
26991WAT     H181215   0.809   6.211   2.285
26991WAT     H281216   0.874   6.327   2.380
26992WAT      O81217   8.263   8.819   0.306
26992WAT     H181218   8.219   8.740   0.263
26992WAT     H281219   8.324   8.787   0.379
26993WAT      O81220   1.088   8.328   4.856
26993WAT     H181221   1.086   8.286   4.946
26993WAT     H281222   1.046   8.419   4.860
26994WAT      O81223   8.227   5.900   7.447
26994WAT     H181224   8.155   5.842   7.408
26994WAT     H281225   8.191   5.946   7.528
26995WAT      O81226   4.942   6.109   9.354
26995WAT     H181227   4.943   6.064   9.265
26995WAT     H281228   4.848   6.113   9.388
26996WAT      O81229   6.507   9.364   2.490
26996WAT     H181230   6.588   9.424   2.493
26996WAT     H281231   6.426   9.420   2.473
26997WAT      O81232   7.269   0.433   0.971
26997WAT     H181233   7.307   0.515   0.931
26997WAT     H281234   7.279   0.436   1.071
26998WAT      O81235   7.649   9.620   9.704
26998WAT     H181236   7.593   9.539   9.686
26998WAT     H281237   7.590   9.697   9.725
26999WAT      O81238   2.745   1.976   1.668
26999WAT     H181239   2.737   2.075   1.652
26999WAT     H281240   2.784   1.932   1.587
27000WAT      O81241   1.840   8.908   7.276
27000WAT     H181242   1.930   8.902   7.319
27000WAT     H281243   1.780   8.967   7.330
27001WAT      O81244   6.832   2.360   6.433
27001WAT     H181245   6.868   2.429   6.371
27001WAT     H281246   6.759   2.309   6.387
27002WAT      O81247   8.613   2.410   8.717
27002WAT     H181248   8.584   2.492   8.767
27002WAT     H281249   8.635   2.435   8.623
27003WAT      O81250   5.090   0.554   4.009
27003WAT     H181251   4.992   0.536   3.995
27003WAT     H281252   5.135   0.563   3.921
27004WAT      O81253   3.556   6.303   8.878
27004WAT     H181254   3.522   6.396   8.868
27004WAT     H281255   3.608   6.277   8.796
27005WAT      O81256   3.997   4.382   2.478
27005WAT     H181257   4.002   4.424   2.569
27005WAT     H281258   4.029   4.288   2.483
27006WAT      O81259   8.991   6.911   2.252
27006WAT     H181260   8.923   6.858   2.302
27006WAT     H281261   9.025   6.985   2.310
27007WAT      O81262   8.518   4.672   7.920
27007WAT     H181263   8.521   4.586   7.869
27007WAT     H281264   8.424   4.689   7.950
27008WAT      O81265   3.746   4.903   3.824
27008WAT     H181266   3.791   4.829   3.874
27008WAT     H281267   3.761   4.890   3.726
27009WAT      O81268   4.017   1.063   3.340
27009WAT     H181269   4.091   1.081   3.275
27009WAT     H281270   4.051   1.071   3.433
27010WAT      O81271   2.524   5.201   3.442
27010WAT     H181272   2.527   5.212   3.343
27010WAT     H281273   2.467   5.272   3.483
27011WAT      O81274   5.020   8.136   7.869
27011WAT     H181275   4.936   8.095   7.832
27011WAT     H281276   4.996   8.209   7.933
27012WAT      O81277   4.839   5.550   6.995
27012WAT     H181278   4.880   5.464   7.023
27012WAT     H281279   4.744   5.554   7.028
27013WAT      O81280   3.439   4.183   6.795
27013WAT     H181281   3.463   4.276   6.770
27013WAT     H281282   3.424   4.178   6.894
27014WAT      O81283   3.263   3.370   8.074
27014WAT     H181284   3.225   3.457   8.104
27014WAT     H281285   3.362   3.371   8.086
27015WAT      O81286   0.169   2.211   8.205
27015WAT     H181287   0.243   2.248   8.149
27015WAT     H281288   0.180   2.113   8.215
27016WAT      O81289   5.484   0.109   3.432
27016WAT     H181290   5.566   0.162   3.454
27016WAT     H281291   5.511   0.018   3.400
27017WAT      O81292   7.208   2.944   0.616
27017WAT     H181293   7.215   2.848   0.643
27017WAT     H281294   7.176   2.950   0.521
27018WAT      O81295   6.979   6.362   7.167
27018WAT     H181296   6.910   6.332   7.233
27018WAT     H281297   7.057   6.299   7.169
27019WAT      O81298   9.651   7.043   3.096
27019WAT     H181299   9.658   7.064   3.194
27019WAT     H281300   9.570   6.986   3.080
27020WAT      O81301   9.024   7.291   4.091
27020WAT     H181302   9.015   7.275   4.189
27020WAT     H281303   8.969   7.371   4.065
27021WAT      O81304   9.213   1.953   5.369
27021WAT     H181305   9.251   2.006   5.293
27021WAT     H281306   9.200   1.858   5.341
27022WAT      O81307   1.002   7.957   8.856
27022WAT     H181308   1.080   7.957   8.918
27022WAT     H281309   0.941   7.881   8.880
27023WAT      O81310   4.743   8.831   9.871
27023WAT     H181311   4.684   8.896   9.824
27023WAT     H281312   4.763   8.865   9.963
27024WAT      O81313   7.873   9.671   4.656
27024WAT     H181314   7.856   9.715   4.568
27024WAT     H281315   7.826   9.721   4.728
27025WAT      O81316   3.267   6.933   6.242
27025WAT     H181317   3.239   6.838   6.229
27025WAT     H281318   3.342   6.937   6.307
27026WAT      O81319   4.833   9.601   7.308
27026WAT     H181320   4.755   9.574   7.251
27026WAT     H281321   4.869   9.688   7.275
27027WAT      O81322   0.865   8.167   3.181
27027WAT     H181323   0.825   8.076   3.180
27027WAT     H281324   0.957   8.164   3.142
27028WAT      O81325   4.899   1.935   4.010
27028WAT     H181326   4.931   2.028   4.030
27028WAT     H281327   4.956   1.869   4.059
27029WAT      O81328   7.248   3.612   0.082
27029WAT     H181329   7.210   3.683   0.141
27029WAT     H281330   7.331   3.646   0.037
27030WAT      O81331   8.187   3.513   6.276
27030WAT     H181332   8.159   3.426   6.315
27030WAT     H281333   8.286   3.516   6.268
27031WAT      O81334   9.386   6.305   3.928
27031WAT     H181335   9.439   6.374   3.879
27031WAT     H281336   9.342   6.347   4.008
27032WAT      O81337   8.695   3.105   6.638
27032WAT     H181338   8.743   3.109   6.725
27032WAT     H281339   8.741   3.164   6.572
27033WAT      O81340   9.457   8.414   7.937
27033WAT     H181341   9.382   8.440   7.877
27033WAT     H281342   9.424   8.406   8.031
27034WAT      O81343   3.598   7.468   3.466
27034WAT     H181344   3.541   7.489   3.387
27034WAT     H281345   3.581   7.374   3.496
27035WAT      O81346   1.363   7.236   8.888
27035WAT     H181347   1.450   7.209   8.930
27035WAT     H281348   1.293   7.242   8.959
27036WAT      O81349   2.424   4.242   4.621
27036WAT     H181350   2.458   4.151   4.645
27036WAT     H281351   2.371   4.279   4.697
27037WAT      O81352   4.395   5.268   1.583
27037WAT     H181353   4.296   5.279   1.599
27037WAT     H281354   4.421   5.173   1.599
27038WAT      O81355   6.149   4.788   1.904
27038WAT     H181356   6.211   4.853   1.947
27038WAT     H281357   6.058   4.829   1.893
27039WAT      O81358   3.643   6.799   7.900
27039WAT     H181359   3.717   6.866   7.899
27039WAT     H281360   3.629   6.765   7.993
27040WAT      O81361   2.540   2.398   2.224
27040WAT     H181362   2.607   2.471   2.212
27040WAT     H281363   2.510   2.366   2.135
27041WAT      O81364   6.021   3.922   6.412
27041WAT     H181365   6.084   3.848   6.435
27041WAT     H281366   6.047   3.962   6.325
27042WAT      O81367   7.603   9.337   7.913
27042WAT     H181368   7.682   9.395   7.894
27042WAT     H281369   7.634   9.253   7.958
27043WAT      O81370   4.976   8.314   4.308
27043WAT     H181371   4.966   8.373   4.387
27043WAT     H281372   4.962   8.219   4.335
27044WAT      O81373   2.355   4.271   9.500
27044WAT     H181374   2.294   4.351   9.498
27044WAT     H281375   2.340   4.216   9.418
27045WAT      O81376   9.520   3.873   0.613
27045WAT     H181377   9.436   3.839   0.570
27045WAT     H281378   9.502   3.963   0.653
27046WAT      O81379   8.770   8.671   1.631
27046WAT     H181380   8.790   8.704   1.539
27046WAT     H281381   8.735   8.578   1.627
27047WAT      O81382   2.011   7.354   5.989
27047WAT     H181383   1.928   7.308   6.020
27047WAT     H281384   1.995   7.395   5.899
27048WAT      O81385   2.568   1.926   5.064
27048WAT     H181386   2.475   1.941   5.030
27048WAT     H281387   2.602   2.011   5.105
27049WAT      O81388   5.337   2.168   8.479
27049WAT     H181389   5.412   2.201   8.422
27049WAT     H281390   5.326   2.228   8.558
27050WAT      O81391   1.704   3.675   5.458
27050WAT     H181392   1.718   3.631   5.547
27050WAT     H281393   1.632   3.744   5.466
27051WAT      O81394   4.933   1.601   1.386
27051WAT     H181395   5.014   1.577   1.440
27051WAT     H281396   4.951   1.685   1.334
27052WAT      O81397   8.277   5.069   5.999
27052WAT     H181398   8.326   5.108   6.077
27052WAT     H281399   8.294   4.971   5.994
27053WAT      O81400   6.155   9.232   4.098
27053WAT     H181401   6.132   9.170   4.173
27053WAT     H281402   6.203   9.312   4.134
27054WAT      O81403   6.197   6.795   5.871
27054WAT     H181404   6.121   6.729   5.872
27054WAT     H281405   6.214   6.827   5.964
27055WAT      O81406   7.501   6.202   2.999
27055WAT     H181407   7.541   6.222   3.088
27055WAT     H281408   7.403   6.182   3.010
27056WAT      O81409   7.006   0.975   9.298
27056WAT     H181410   7.040   1.042   9.233
27056WAT     H281411   6.985   0.889   9.251
27057WAT      O81412   1.707   9.316   6.098
27057WAT     H181413   1.682   9.306   6.001
27057WAT     H281414   1.625   9.316   6.154
27058WAT      O81415   2.429   6.591   1.644
27058WAT     H181416   2.475   6.669   1.687
27058WAT     H281417   2.357   6.625   1.584
27059WAT      O81418   6.592   5.576   3.163
27059WAT     H181419   6.668   5.609   3.219
27059WAT     H281420   6.523   5.648   3.155
27060WAT      O81421   1.635   3.821   5.133
27060WAT     H181422   1.639   3.879   5.214
27060WAT     H281423   1.589   3.871   5.059
27061WAT      O81424   7.550   5.161   2.252
27061WAT     H181425   7.588   5.134   2.340
27061WAT     H281426   7.567   5.258   2.236
27062WAT      O81427   2.154   0.279   1.929
27062WAT     H181428   2.122   0.300   1.837
27062WAT     H281429   2.157   0.179   1.941
27063WAT      O81430   6.598   5.558   4.197
27063WAT     H181431   6.561   5.643   4.159
27063WAT     H281432   6.691   5.544   4.164
27064WAT      O81433   1.175   6.497   2.526
27064WAT     H181434   1.199   6.477   2.621
27064WAT     H281435   1.233   6.571   2.492
27065WAT      O81436   1.794   3.390   2.317
27065WAT     H181437   1.743   3.473   2.342
27065WAT     H281438   1.754   3.311   2.365
27066WAT      O81439   3.651   9.401   6.758
27066WAT     H181440   3.714   9.410   6.681
27066WAT     H281441   3.703   9.406   6.843
27067WAT      O81442   9.470   9.594   0.054
27067WAT     H181443   9.378   9.575   0.021
27067WAT     H281444   9.527   9.626  -0.021
27068WAT      O81445   2.199   9.726   5.193
27068WAT     H181446   2.174   9.718   5.289
27068WAT     H281447   2.140   9.793   5.148
27069WAT      O81448   2.014   9.640   1.902
27069WAT     H181449   2.018   9.651   1.803
27069WAT     H281450   1.968   9.555   1.925
27070WAT      O81451   3.936   8.974   7.726
27070WAT     H181452   3.871   9.016   7.789
27070WAT     H281453   3.927   8.874   7.730
27071WAT      O81454   2.014   2.148   7.224
27071WAT     H181455   2.046   2.059   7.255
27071WAT     H281456   1.955   2.189   7.293
27072WAT      O81457   9.484   1.096   7.658
27072WAT     H181458   9.502   1.179   7.710
27072WAT     H281459   9.408   1.112   7.595
27073WAT      O81460   5.437   2.955   5.758
27073WAT     H181461   5.473   3.024   5.696
27073WAT     H281462   5.442   2.989   5.852
27074WAT      O81463   9.554   5.132   9.687
27074WAT     H181464   9.478   5.153   9.626
27074WAT     H281465   9.607   5.056   9.649
27075WAT      O81466   6.605   2.117   4.382
27075WAT     H181467   6.703   2.118   4.362
27075WAT     H281468   6.581   2.029   4.425
27076WAT      O81469   5.205   2.391   1.359
27076WAT     H181470   5.156   2.473   1.329
27076WAT     H281471   5.215   2.328   1.282
27077WAT      O81472   3.751   9.606   0.349
27077WAT     H181473   3.786   9.689   0.392
27077WAT     H281474   3.691   9.631   0.273
27078WAT      O81475   7.077   8.057   5.501
27078WAT     H181476   7.035   8.071   5.411
27078WAT     H281477   7.175   8.074   5.495
27079WAT      O81478   9.703   7.567   8.814
27079WAT     H181479   9.779   7.608   8.864
27079WAT     H281480   9.728   7.556   8.718
27080WAT      O81481   7.803   9.453   1.867
27080WAT     H181482   7.895   9.447   1.908
27080WAT     H281483   7.752   9.527   1.912
27081WAT      O81484   1.495   3.973   2.601
27081WAT     H181485   1.589   3.951   2.572
27081WAT     H281486   1.460   3.900   2.658
27082WAT      O81487   8.335   5.495   5.690
27082WAT     H181488   8.431   5.496   5.663
27082WAT     H281489   8.304   5.400   5.696
27083WAT      O81490   8.346   4.473   7.154
27083WAT     H181491   8.372   4.503   7.245
27083WAT     H281492   8.419   4.416   7.115
27084WAT      O81493   8.245   3.302   0.442
27084WAT     H181494   8.245   3.376   0.375
27084WAT     H281495   8.295   3.224   0.405
27085WAT      O81496   3.630   0.899   8.403
27085WAT     H181497   3.540   0.890   8.360
27085WAT     H281498   3.678   0.811   8.398
27086WAT      O81499   0.000   3.252   6.202
27086WAT     H181500   0.050   3.178   6.246
27086WAT     H281501   0.065   3.311   6.154
27087WAT      O81502   7.857   3.011   6.033
27087WAT     H181503   7.826   2.972   5.946
27087WAT     H281504   7.778   3.038   6.088
27088WAT      O81505   4.983   8.317   7.402
27088WAT     H181506   5.007   8.289   7.309
27088WAT     H281507   4.891   8.285   7.425
27089WAT      O81508   0.943   4.231   4.107
27089WAT     H181509   0.984   4.194   4.190
27089WAT     H281510   0.846   4.251   4.124
27090WAT      O81511   2.287   0.143   5.950
27090WAT     H181512   2.372   0.138   5.897
27090WAT     H281513   2.298   0.207   6.026
27091WAT      O81514   5.784   4.395   0.641
27091WAT     H181515   5.807   4.452   0.562
27091WAT     H281516   5.837   4.427   0.720
27092WAT      O81517   7.547   6.451   2.872
27092WAT     H181518   7.598   6.505   2.939
27092WAT     H281519   7.530   6.360   2.910
27093WAT      O81520   0.338   1.387   0.701
27093WAT     H181521   0.374   1.455   0.637
27093WAT     H281522   0.413   1.347   0.754
27094WAT      O81523   4.722   3.349   5.528
27094WAT     H181524   4.688   3.419   5.591
27094WAT     H281525   4.785   3.289   5.577
27095WAT      O81526   8.947   3.103   4.135
27095WAT     H181527   9.034   3.055   4.145
27095WAT     H281528   8.961   3.201   4.149
27096WAT      O81529   4.819   3.656   3.357
27096WAT     H181530   4.817   3.721   3.433
27096WAT     H281531   4.813   3.563   3.393
27097WAT      O81532   4.545   4.111   1.977
27097WAT     H181533   4.541   4.026   2.029
27097WAT     H281534   4.605   4.176   2.025
27098WAT      O81535   7.015   6.451   7.708
27098WAT     H181536   7.045   6.464   7.803
27098WAT     H281537   6.956   6.528   7.682
27099WAT      O81538   3.146   9.554   2.169
27099WAT     H181539   3.148   9.648   2.137
27099WAT     H281540   3.209   9.544   2.247
27100WAT      O81541   6.914   5.270   9.131
27100WAT     H181542   6.850   5.344   9.153
27100WAT     H281543   6.977   5.302   9.060
27101WAT      O81544   0.875   7.145   9.293
27101WAT     H181545   0.789   7.187   9.321
27101WAT     H281546   0.889   7.160   9.195
27102WAT      O81547   7.143   7.596   6.439
27102WAT     H181548   7.229   7.645   6.452
27102WAT     H281549   7.155   7.526   6.368
27103WAT      O81550   8.044   9.484   4.550
27103WAT     H181551   8.137   9.506   4.578
27103WAT     H281552   7.988   9.567   4.549
27104WAT      O81553   3.056   1.641   7.170
27104WAT     H181554   3.105   1.607   7.250
27104WAT     H281555   3.113   1.626   7.088
27105WAT      O81556   1.572   5.553   8.617
27105WAT     H181557   1.625   5.559   8.532
27105WAT     H281558   1.541   5.644   8.644
27106WAT      O81559   5.820   8.527   2.827
27106WAT     H181560   5.722   8.531   2.846
27106WAT     H281561   5.857   8.441   2.861
27107WAT      O81562   1.036   4.954   6.544
27107WAT     H181563   0.947   4.952   6.591
27107WAT     H281564   1.024   4.987   6.451
27108WAT      O81565   6.567   9.788   7.428
27108WAT     H181566   6.644   9.828   7.477
27108WAT     H281567   6.554   9.836   7.341
27109WAT      O81568   5.383   0.228   9.692
27109WAT     H181569   5.479   0.228   9.665
27109WAT     H281570   5.366   0.304   9.755
27110WAT      O81571   0.640   2.199   8.266
27110WAT     H181572   0.574   2.143   8.316
27110WAT     H281573   0.605   2.219   8.175
27111WAT      O81574   4.979   1.442   7.237
27111WAT     H181575   4.925   1.476   7.160
27111WAT     H281576   5.071   1.482   7.233
27112WAT      O81577   7.229   8.057   1.369
27112WAT     H181578   7.306   8.048   1.432
27112WAT     H281579   7.262   8.089   1.280
27113WAT      O81580   9.719   2.013   5.835
27113WAT     H181581   9.731   2.112   5.820
27113WAT     H281582   9.768   1.986   5.917
27114WAT      O81583   2.185   4.494   4.341
27114WAT     H181584   2.126   4.502   4.261
27114WAT     H281585   2.277   4.522   4.318
27115WAT      O81586   0.526   5.116   9.069
27115WAT     H181587   0.571   5.191   9.021
27115WAT     H281588   0.458   5.152   9.133
27116WAT      O81589   9.238   7.973   8.741
27116WAT     H181590   9.250   7.995   8.838
27116WAT     H281591   9.241   7.874   8.729
27117WAT      O81592   0.062   4.598   2.324
27117WAT     H181593   0.137   4.540   2.357
27117WAT     H281594   0.031   4.658   2.397
27118WAT      O81595   5.649   9.157   6.978
27118WAT     H181596   5.613   9.247   6.954
27118WAT     H281597   5.594   9.086   6.933
27119WAT      O81598   0.948   4.814   8.952
27119WAT     H181599   0.883   4.800   8.877
27119WAT     H281600   0.964   4.726   8.997
27120WAT      O81601   7.113   0.256   4.558
27120WAT     H181602   7.167   0.246   4.641
27120WAT     H281603   7.030   0.308   4.579
27121WAT      O81604   7.486   9.285   4.357
27121WAT     H181605   7.523   9.198   4.389
27121WAT     H281606   7.449   9.273   4.264
27122WAT      O81607   4.947   5.042   5.268
27122WAT     H181608   4.923   5.005   5.179
27122WAT     H281609   4.944   4.970   5.337
27123WAT      O81610   7.194   7.456   2.468
27123WAT     H181611   7.196   7.545   2.422
27123WAT     H281612   7.250   7.391   2.417
27124WAT      O81613   1.392   0.721   6.946
27124WAT     H181614   1.359   0.815   6.937
27124WAT     H281615   1.465   0.718   7.014
27125WAT      O81616   6.625   2.187   0.565
27125WAT     H181617   6.717   2.223   0.580
27125WAT     H281618   6.607   2.179   0.467
27126WAT      O81619   9.133   5.424   0.289
27126WAT     H181620   9.156   5.520   0.275
27126WAT     H281621   9.060   5.397   0.226
27127WAT      O81622   6.472   5.785   3.806
27127WAT     H181623   6.383   5.746   3.781
27127WAT     H281624   6.525   5.803   3.723
27128WAT      O81625   4.872   1.523   6.984
27128WAT     H181626   4.923   1.581   6.921
27128WAT     H281627   4.782   1.564   7.002
27129WAT      O81628   7.405   7.492   2.672
27129WAT     H181629   7.396   7.487   2.771
27129WAT     H281630   7.320   7.461   2.629
27130WAT      O81631   9.168   2.946   0.821
27130WAT     H181632   9.145   2.962   0.917
27130WAT     H281633   9.268   2.941   0.810
27131WAT      O81634   8.563   9.562   1.046
27131WAT     H181635   8.608   9.588   0.960
27131WAT     H281636   8.471   9.528   1.027
27132WAT      O81637   4.090   9.479   7.626
27132WAT     H181638   3.999   9.464   7.588
27132WAT     H281639   4.122   9.394   7.669
27133WAT      O81640   2.950   5.028   0.818
27133WAT     H181641   2.984   5.102   0.760
27133WAT     H281642   2.850   5.030   0.821
27134WAT      O81643   5.454   8.151   7.891
27134WAT     H181644   5.525   8.089   7.856
27134WAT     H281645   5.438   8.132   7.987
27135WAT      O81646   0.459   0.871   4.323
27135WAT     H181647   0.521   0.867   4.245
27135WAT     H281648   0.373   0.914   4.295
27136WAT      O81649   0.873   4.043   9.392
27136WAT     H181650   0.774   4.057   9.398
27136WAT     H281651   0.900   3.966   9.450
27137WAT      O81652   1.079   5.874   7.796
27137WAT     H181653   0.994   5.925   7.789
27137WAT     H281654   1.095   5.824   7.711
27138WAT      O81655   4.568   8.212   3.305
27138WAT     H181656   4.625   8.187   3.227
27138WAT     H281657   4.529   8.303   3.290
27139WAT      O81658   2.813   1.743   3.026
27139WAT     H181659   2.722   1.704   3.014
27139WAT     H281660   2.872   1.676   3.072
27140WAT      O81661   6.022   1.877   8.476
27140WAT     H181662   6.009   1.850   8.571
27140WAT     H281663   6.110   1.925   8.467
27141WAT      O81664   3.821   9.415   6.540
27141WAT     H181665   3.795   9.376   6.452
27141WAT     H281666   3.834   9.513   6.531
27142WAT      O81667   4.607   9.391   4.989
27142WAT     H181668   4.636   9.297   5.008
27142WAT     H281669   4.609   9.407   4.890
27143WAT      O81670   0.731   5.907   0.498
27143WAT     H181671   0.736   5.857   0.584
27143WAT     H281672   0.635   5.916   0.470
27144WAT      O81673   2.059   3.690   8.289
27144WAT     H181674   2.018   3.747   8.361
27144WAT     H281675   2.158   3.689   8.299
27145WAT      O81676   0.937   9.813   4.506
27145WAT     H181677   0.907   9.900   4.465
27145WAT     H281678   1.036   9.815   4.519
27146WAT      O81679   4.018   4.215   6.623
27146WAT     H181680   3.925   4.186   6.642
27146WAT     H281681   4.076   4.135   6.605
27147WAT      O81682   7.816   4.001   8.916
27147WAT     H181683   7.718   4.010   8.934
27147WAT     H281684   7.856   4.091   8.899
27148WAT      O81685   7.354   0.570   1.444
27148WAT     H181686   7.351   0.620   1.357
27148WAT     H281687   7.376   0.474   1.425
27149WAT      O81688   5.688   0.209   6.168
27149WAT     H181689   5.625   0.286   6.169
27149WAT     H281690   5.638   0.125   6.187
27150WAT      O81691   5.266   2.485   3.721
27150WAT     H181692   5.187   2.432   3.752
27150WAT     H281693   5.348   2.456   3.769
27151WAT      O81694   4.432   5.993   0.540
27151WAT     H181695   4.405   6.070   0.598
27151WAT     H281696   4.508   5.944   0.583
27152WAT      O81697   8.102   6.805   1.833
27152WAT     H181698   8.086   6.868   1.757
27152WAT     H281699   8.042   6.829   1.910
27153WAT      O81700   2.394   3.831   4.451
27153WAT     H181701   2.455   3.907   4.431
27153WAT     H281702   2.317   3.863   4.507
27154WAT      O81703   3.337   1.662   5.304
27154WAT     H181704   3.374   1.590   5.245
27154WAT     H281705   3.250   1.694   5.266
27155WAT      O81706   3.847   6.175   3.783
27155WAT     H181707   3.775   6.244   3.796
27155WAT     H281708   3.890   6.189   3.693
27156WAT      O81709   7.599   0.297   1.758
27156WAT     H181710   7.676   0.353   1.789
27156WAT     H281711   7.550   0.261   1.838
27157WAT      O81712   6.399   8.304   2.859
27157WAT     H181713   6.477   8.353   2.898
27157WAT     H281714   6.381   8.338   2.766
27158WAT      O81715   1.023   5.760   1.276
27158WAT     H181716   0.991   5.666   1.273
27158WAT     H281717   1.041   5.792   1.183
27159WAT      O81718   8.851   8.419   6.940
27159WAT     H181719   8.803   8.361   6.874
27159WAT     H281720   8.818   8.513   6.931
27160WAT      O81721   7.771   4.082   6.005
27160WAT     H181722   7.746   3.999   6.056
27160WAT     H281723   7.779   4.159   6.068
27161WAT      O81724   0.824   1.047   0.699
27161WAT     H181725   0.850   1.053   0.603
27161WAT     H281726   0.866   1.122   0.750
27162WAT      O81727   8.042   4.002   2.830
27162WAT     H181728   7.954   4.028   2.791
27162WAT     H281729   8.027   3.945   2.911
27163WAT      O81730   4.441   3.396   7.111
27163WAT     H181731   4.401   3.308   7.087
27163WAT     H281732   4.387   3.470   7.070
27164WAT      O81733   3.078   7.464   4.889
27164WAT     H181734   3.048   7.414   4.970
27164WAT     H281735   3.159   7.517   4.911
27165WAT      O81736   7.294   4.686   5.000
27165WAT     H181737   7.294   4.702   4.902
27165WAT     H281738   7.265   4.591   5.018
27166WAT      O81739   1.234   1.163   5.360
27166WAT     H181740   1.326   1.128   5.343
27166WAT     H281741   1.192   1.113   5.435
27167WAT      O81742   7.442   5.830   0.977
27167WAT     H181743   7.486   5.751   0.934
27167WAT     H281744   7.502   5.910   0.969
27168WAT      O81745   0.306   8.640   9.185
27168WAT     H181746   0.217   8.617   9.145
27168WAT     H281747   0.350   8.557   9.218
27169WAT      O81748   0.167   3.922   3.037
27169WAT     H181749   0.221   3.837   3.041
27169WAT     H281750   0.226   3.996   3.005
27170WAT      O81751   2.657   3.341   5.709
27170WAT     H181752   2.596   3.278   5.660
27170WAT     H281753   2.601   3.411   5.754
27171WAT      O81754   6.496   6.603   1.490
27171WAT     H181755   6.533   6.687   1.529
27171WAT     H281756   6.421   6.570   1.547
27172WAT      O81757   7.732   1.311   3.307
27172WAT     H181758   7.694   1.312   3.399
27172WAT     H281759   7.714   1.398   3.262
27173WAT      O81760   6.809   8.258   4.966
27173WAT     H181761   6.878   8.226   4.901
27173WAT     H281762   6.804   8.358   4.963
27174WAT      O81763   0.036   2.739   2.531
27174WAT     H181764   0.134   2.752   2.547
27174WAT     H281765  -0.012   2.738   2.618
27175WAT      O81766   1.485   0.119   0.424
27175WAT     H181767   1.521   0.050   0.488
27175WAT     H281768   1.455   0.074   0.340
27176WAT      O81769   3.993   2.576   3.428
27176WAT     H181770   3.980   2.597   3.331
27176WAT     H281771   3.916   2.523   3.462
27177WAT      O81772   3.490   1.018   8.027
27177WAT     H181773   3.523   0.937   7.979
27177WAT     H281774   3.556   1.045   8.097
27178WAT      O81775   7.788   2.809   0.693
27178WAT     H181776   7.735   2.744   0.746
27178WAT     H281777   7.824   2.880   0.754
27179WAT      O81778   5.430   9.349   5.344
27179WAT     H181779   5.435   9.449   5.344
27179WAT     H281780   5.503   9.312   5.401
27180WAT      O81781   7.073   0.112   6.738
27180WAT     H181782   7.092   0.051   6.662
27180WAT     H281783   7.007   0.182   6.710
27181WAT      O81784   6.814   0.435   9.688
27181WAT     H181785   6.751   0.497   9.641
27181WAT     H281786   6.860   0.484   9.762
27182WAT      O81787   9.734   2.559   1.890
27182WAT     H181788   9.793   2.609   1.827
27182WAT     H281789   9.648   2.607   1.901
27183WAT      O81790   3.625   4.716   9.260
27183WAT     H181791   3.598   4.630   9.217
27183WAT     H281792   3.543   4.766   9.290
27184WAT      O81793   0.424   9.279   6.670
27184WAT     H181794   0.498   9.213   6.678
27184WAT     H281795   0.417   9.311   6.576
27185WAT      O81796   3.966   8.122   4.449
27185WAT     H181797   3.943   8.026   4.432
27185WAT     H281798   3.965   8.139   4.548
27186WAT      O81799   6.499   6.663   5.969
27186WAT     H181800   6.497   6.577   5.919
27186WAT     H281801   6.512   6.739   5.906
27187WAT      O81802   5.603   6.769   5.592
27187WAT     H181803   5.659   6.688   5.608
27187WAT     H281804   5.621   6.805   5.501
27188WAT      O81805   9.356   4.896   3.783
27188WAT     H181806   9.406   4.815   3.812
27188WAT     H281807   9.264   4.870   3.753
27189WAT      O81808   9.601   3.602   7.745
27189WAT     H181809   9.517   3.645   7.713
27189WAT     H281810   9.657   3.575   7.666
27190WAT      O81811   1.935   8.018   9.576
27190WAT     H181812   1.970   8.059   9.660
27190WAT     H281813   1.846   7.975   9.594
27191WAT      O81814   9.445   4.718   0.091
27191WAT     H181815   9.523   4.758   0.140
27191WAT     H281816   9.446   4.619   0.104
27192WAT      O81817   0.621   7.850   0.107
27192WAT     H181818   0.627   7.891   0.016
27192WAT     H281819   0.589   7.918   0.173
27193WAT      O81820   5.338   5.154   4.520
27193WAT     H181821   5.390   5.175   4.603
27193WAT     H281822   5.401   5.137   4.444
27194WAT      O81823   4.549   9.058   6.441
27194WAT     H181824   4.606   9.077   6.362
27194WAT     H281825   4.561   9.130   6.510
27195WAT      O81826   4.892   1.857   0.952
27195WAT     H181827   4.985   1.886   0.974
27195WAT     H281828   4.865   1.897   0.865
27196WAT      O81829   5.708   6.804  -0.004
27196WAT     H181830   5.704   6.818   0.095
27196WAT     H281831   5.680   6.711  -0.026
27197WAT      O81832   5.292   8.997   3.143
27197WAT     H181833   5.388   8.985   3.118
27197WAT     H281834   5.267   9.093   3.132
27198WAT      O81835   7.470   9.743   8.088
27198WAT     H181836   7.372   9.758   8.075
27198WAT     H281837   7.503   9.800   8.164
27199WAT      O81838   2.890   1.303   7.426
27199WAT     H181839   2.947   1.272   7.502
27199WAT     H281840   2.812   1.241   7.416
27200WAT      O81841   4.279   0.244   8.008
27200WAT     H181842   4.356   0.268   7.949
27200WAT     H281843   4.301   0.267   8.103
27201WAT      O81844   5.472   3.524   5.435
27201WAT     H181845   5.386   3.496   5.478
27201WAT     H281846   5.548   3.497   5.493
27202WAT      O81847   0.657   0.103   7.724
27202WAT     H181848   0.608   0.191   7.719
27202WAT     H281849   0.717   0.104   7.804
27203WAT      O81850   9.794   4.352   7.508
27203WAT     H181851   9.793   4.296   7.426
27203WAT     H281852   9.765   4.298   7.587
27204WAT      O81853   5.778   8.139   8.682
27204WAT     H181854   5.735   8.092   8.605
27204WAT     H281855   5.707   8.176   8.742
27205WAT      O81856   9.302   2.247   9.677
27205WAT     H181857   9.206   2.243   9.707
27205WAT     H281858   9.356   2.297   9.745
27206WAT      O81859   4.688   0.557   0.370
27206WAT     H181860   4.638   0.585   0.288
27206WAT     H281861   4.711   0.460   0.363
27207WAT      O81862   9.127   8.624   9.589
27207WAT     H181863   9.168   8.547   9.540
27207WAT     H281864   9.165   8.710   9.556
27208WAT      O81865   7.861   0.258   8.209
27208WAT     H181866   7.827   0.273   8.302
27208WAT     H281867   7.846   0.163   8.183
27209WAT      O81868   3.073   0.030   7.535
27209WAT     H181869   3.021   0.071   7.610
27209WAT     H281870   3.043   0.069   7.448
27210WAT      O81871   1.109   8.130   9.473
27210WAT     H181872   1.120   8.129   9.572
27210WAT     H281873   1.136   8.219   9.437
27211WAT      O81874   9.797   7.081   7.914
27211WAT     H181875   9.744   7.033   7.845
27211WAT     H281876   9.769   7.177   7.917
27212WAT      O81877   1.542   2.068   3.172
27212WAT     H181878   1.571   2.122   3.251
27212WAT     H281879   1.622   2.044   3.117
27213WAT      O81880   1.639   7.454   4.688
27213WAT     H181881   1.726   7.494   4.660
27213WAT     H281882   1.579   7.447   4.609
27214WAT      O81883   8.842   2.266   4.878
27214WAT     H181884   8.861   2.234   4.786
27214WAT     H281885   8.915   2.236   4.940
27215WAT      O81886   5.943   1.448   0.169
27215WAT     H181887   5.862   1.434   0.113
27215WAT     H281888   6.025   1.440   0.111
27216WAT      O81889   3.690   8.656   0.854
27216WAT     H181890   3.733   8.684   0.768
27216WAT     H281891   3.631   8.729   0.887
27217WAT      O81892   7.829   5.749   8.391
27217WAT     H181893   7.895   5.674   8.395
27217WAT     H281894   7.768   5.744   8.470
27218WAT      O81895   8.547   8.994   1.780
27218WAT     H181896   8.484   8.939   1.835
27218WAT     H281897   8.638   8.992   1.821
27219WAT      O81898   0.916   7.540   0.494
27219WAT     H181899   0.862   7.548   0.410
27219WAT     H281900   1.013   7.555   0.473
27220WAT      O81901   7.853   8.930   5.597
27220WAT     H181902   7.807   8.955   5.682
27220WAT     H281903   7.950   8.956   5.602
27221WAT      O81904   3.356   5.687   5.042
27221WAT     H181905   3.300   5.746   5.101
27221WAT     H281906   3.349   5.592   5.074
27222WAT      O81907   7.812   3.072   2.533
27222WAT     H181908   7.793   3.070   2.631
27222WAT     H281909   7.733   3.037   2.483
27223WAT      O81910   8.124   5.878   8.394
27223WAT     H181911   8.107   5.781   8.374
27223WAT     H281912   8.218   5.901   8.369
27224WAT      O81913   1.136   6.098   2.266
27224WAT     H181914   1.184   6.179   2.297
27224WAT     H281915   1.092   6.117   2.178
27225WAT      O81916   7.575   2.835   1.712
27225WAT     H181917   7.665   2.866   1.680
27225WAT     H281918   7.587   2.776   1.792
27226WAT      O81919   4.233   5.655   1.165
27226WAT     H181920   4.271   5.651   1.073
27226WAT     H281921   4.261   5.572   1.215
27227WAT      O81922   9.359   6.088   4.278
27227WAT     H181923   9.455   6.097   4.252
27227WAT     H281924   9.353   6.055   4.372
27228WAT      O81925   9.872   0.135   3.575
27228WAT     H181926   9.783   0.175   3.554
27228WAT     H281927   9.860   0.063   3.644
27229WAT      O81928   9.294   0.540   0.156
27229WAT     H181929   9.223   0.504   0.096
27229WAT     H281930   9.251   0.597   0.227
27230WAT      O81931   5.877   8.517   9.153
27230WAT     H181932   5.921   8.479   9.235
27230WAT     H281933   5.878   8.616   9.157
27231WAT      O81934   9.067   2.963   1.068
27231WAT     H181935   8.971   2.978   1.091
27231WAT     H281936   9.112   2.912   1.142
27232WAT      O81937   8.251   6.495   2.521
27232WAT     H181938   8.282   6.493   2.426
27232WAT     H281939   8.291   6.419   2.571
27233WAT      O81940   5.270   6.405   6.073
27233WAT     H181941   5.283   6.356   5.988
27233WAT     H281942   5.190   6.369   6.121
27234WAT      O81943   8.024   7.848   8.733
27234WAT     H181944   8.036   7.942   8.764
27234WAT     H281945   8.113   7.803   8.728
27235WAT      O81946   7.758   8.387   4.302
27235WAT     H181947   7.773   8.486   4.295
27235WAT     H281948   7.730   8.364   4.395
27236WAT      O81949   4.312   3.963   6.125
27236WAT     H181950   4.331   4.033   6.194
27236WAT     H281951   4.329   3.873   6.164
27237WAT      O81952   7.084   6.494   6.378
27237WAT     H181953   7.136   6.412   6.352
27237WAT     H281954   7.028   6.473   6.458
27238WAT      O81955   5.556   9.452   6.948
27238WAT     H181956   5.509   9.433   6.862
27238WAT     H281957   5.539   9.546   6.975
27239WAT      O81958   6.344   8.414   4.016
27239WAT     H181959   6.365   8.352   3.940
27239WAT     H281960   6.283   8.368   4.080
27240WAT      O81961   0.471   6.300   4.808
27240WAT     H181962   0.376   6.314   4.779
27240WAT     H281963   0.524   6.382   4.790
27241WAT      O81964   6.208   9.646   6.819
27241WAT     H181965   6.157   9.561   6.811
27241WAT     H281966   6.292   9.631   6.871
27242WAT      O81967   0.547   3.389   4.868
27242WAT     H181968   0.616   3.420   4.935
27242WAT     H281969   0.572   3.423   4.777
27243WAT      O81970   8.558   6.119   4.572
27243WAT     H181971   8.612   6.035   4.567
27243WAT     H281972   8.558   6.164   4.483
27244WAT      O81973   7.246   9.213   0.584
27244WAT     H181974   7.193   9.174   0.509
27244WAT     H281975   7.191   9.281   0.633
27245WAT      O81976   7.118   7.521   9.112
27245WAT     H181977   7.081   7.522   9.205
27245WAT     H281978   7.073   7.449   9.059
27246WAT      O81979   4.544   6.001   8.186
27246WAT     H181980   4.470   6.060   8.152
27246WAT     H281981   4.605   6.055   8.244
27247WAT      O81982   7.100   9.608   7.123
27247WAT     H181983   7.089   9.637   7.028
27247WAT     H281984   7.021   9.640   7.177
27248WAT      O81985   5.993   8.832   0.842
27248WAT     H181986   6.015   8.863   0.935
27248WAT     H281987   5.898   8.800   0.840
27249WAT      O81988   3.704   0.165   1.998
27249WAT     H181989   3.706   0.211   1.909
27249WAT     H281990   3.617   0.184   2.043
27250WAT      O81991   3.828   8.697   7.665
27250WAT     H181992   3.803   8.672   7.572
27250WAT     H281993   3.773   8.644   7.730
27251WAT      O81994   7.042   4.996   0.320
27251WAT     H181995   7.105   5.048   0.377
27251WAT     H281996   7.090   4.962   0.239
27252WAT      O81997   9.453   0.820   4.936
27252WAT     H181998   9.421   0.909   4.902
27252WAT     H281999   9.447   0.819   5.035
27253WAT      O82000   6.526   1.317   0.867
27253WAT     H182001   6.554   1.264   0.947
27253WAT     H282002   6.604   1.372   0.835
27254WAT      O82003   4.711   6.711   2.849
27254WAT     H182004   4.612   6.712   2.832
27254WAT     H282005   4.731   6.760   2.933
27255WAT      O82006   1.851   7.196   2.893
27255WAT     H182007   1.900   7.164   2.974
27255WAT     H282008   1.788   7.126   2.862
27256WAT      O82009   7.250   7.262   6.658
27256WAT     H182010   7.160   7.304   6.658
27256WAT     H282011   7.315   7.321   6.611
27257WAT      O82012   4.982   0.458   2.458
27257WAT     H182013   5.074   0.421   2.476
27257WAT     H282014   4.984   0.557   2.465
27258WAT      O82015   0.392   5.472   1.612
27258WAT     H182016   0.368   5.404   1.542
27258WAT     H282017   0.315   5.482   1.676
27259WAT      O82018   9.787   9.062   7.773
27259WAT     H182019   9.768   8.980   7.828
27259WAT     H282020   9.735   9.057   7.688
27260WAT      O82021   8.122   9.264   2.834
27260WAT     H182022   8.028   9.275   2.800
27260WAT     H282023   8.134   9.319   2.916
27261WAT      O82024   2.425   5.388   1.034
27261WAT     H182025   2.400   5.410   0.939
27261WAT     H282026   2.412   5.469   1.091
27262WAT      O82027   3.961   0.915   7.781
27262WAT     H182028   3.954   0.957   7.872
27262WAT     H282029   4.053   0.927   7.746
27263WAT      O82030   2.080   0.280   7.377
27263WAT     H182031   2.140   0.265   7.456
27263WAT     H282032   1.988   0.302   7.408
27264WAT      O82033   3.261   7.307   5.489
27264WAT     H182034   3.260   7.301   5.389
27264WAT     H282035   3.230   7.220   5.528
27265WAT      O82036   7.531   6.853   2.830
27265WAT     H182037   7.603   6.801   2.785
27265WAT     H282038   7.537   6.840   2.929
27266WAT      O82039   6.166   0.537   5.452
27266WAT     H182040   6.235   0.600   5.487
27266WAT     H282041   6.075   0.575   5.471
27267WAT      O82042   2.363   5.939   2.367
27267WAT     H182043   2.292   5.986   2.315
27267WAT     H282044   2.348   5.840   2.361
27268WAT      O82045   0.211   1.611   6.912
27268WAT     H182046   0.214   1.570   6.821
27268WAT     H282047   0.120   1.646   6.930
27269WAT      O82048   2.174   6.163   3.414
27269WAT     H182049   2.137   6.071   3.422
27269WAT     H282050   2.101   6.230   3.424
27270WAT      O82051   8.448   5.242   2.677
27270WAT     H182052   8.491   5.159   2.642
27270WAT     H282053   8.349   5.230   2.679
27271WAT      O82054   6.437   2.458   1.096
27271WAT     H182055   6.524   2.417   1.121
27271WAT     H282056   6.396   2.407   1.020
27272WAT      O82057   6.179   5.265   7.635
27272WAT     H182058   6.126   5.320   7.570
27272WAT     H282059   6.189   5.172   7.600
27273WAT      O82060   8.237   7.307   9.021
27273WAT     H182061   8.151   7.275   9.060
27273WAT     H282062   8.223   7.398   8.980
27274WAT      O82063   0.770   5.658   4.501
27274WAT     H182064   0.677   5.674   4.532
27274WAT     H282065   0.797   5.729   4.436
27275WAT      O82066   4.230   1.626   6.670
27275WAT     H182067   4.206   1.561   6.597
27275WAT     H282068   4.307   1.589   6.722
27276WAT      O82069   9.695   3.845   6.339
27276WAT     H182070   9.666   3.751   6.322
27276WAT     H282071   9.637   3.885   6.410
27277WAT      O82072   6.014   4.751   9.150
27277WAT     H182073   6.112   4.773   9.147
27277WAT     H282074   6.003   4.652   9.161
27278WAT      O82075   3.203   1.123   7.433
27278WAT     H182076   3.149   1.155   7.512
27278WAT     H282077   3.178   1.175   7.352
27279WAT      O82078   9.038   8.567   8.093
27279WAT     H182079   9.138   8.569   8.094
27279WAT     H282080   9.004   8.532   8.180
27280WAT      O82081   8.974   5.675   4.554
27280WAT     H182082   8.946   5.646   4.462
27280WAT     H282083   8.894   5.687   4.612
27281WAT      O82084   4.100   3.307   3.647
27281WAT     H182085   4.158   3.276   3.571
27281WAT     H282086   4.100   3.407   3.650
27282WAT      O82087   0.446   6.141   4.583
27282WAT     H182088   0.398   6.054   4.589
27282WAT     H282089   0.468   6.174   4.675
27283WAT      O82090   2.196   2.043   1.417
27283WAT     H182091   2.282   2.063   1.463
27283WAT     H282092   2.162   1.953   1.446
27284WAT      O82093   5.693   0.890   8.325
27284WAT     H182094   5.615   0.866   8.383
27284WAT     H282095   5.740   0.807   8.295
27285WAT      O82096   2.121   2.801   1.894
27285WAT     H182097   2.196   2.784   1.830
27285WAT     H282098   2.056   2.865   1.853
27286WAT      O82099   8.114   5.267   5.539
27286WAT     H182100   8.194   5.270   5.598
27286WAT     H282101   8.059   5.186   5.561
27287WAT      O82102   0.832   2.536   7.464
27287WAT     H182103   0.764   2.470   7.495
27287WAT     H282104   0.788   2.602   7.402
27288WAT      O82105   3.727   8.319   1.965
27288WAT     H182106   3.779   8.286   1.886
27288WAT     H282107   3.791   8.340   2.040
27289WAT      O82108   4.457   6.292   5.894
27289WAT     H182109   4.479   6.196   5.879
27289WAT     H282110   4.458   6.311   5.992
27290WAT      O82111   6.049   6.528   0.696
27290WAT     H182112   5.968   6.469   0.706
27290WAT     H282113   6.125   6.489   0.747
27291WAT      O82114   5.687   7.962   9.687
27291WAT     H182115   5.659   7.954   9.591
27291WAT     H282116   5.703   8.058   9.708
27292WAT      O82117   1.575   4.673   5.691
27292WAT     H182118   1.596   4.728   5.610
27292WAT     H282119   1.616   4.582   5.681
27293WAT      O82120   5.469   4.239   3.105
27293WAT     H182121   5.370   4.253   3.099
27293WAT     H282122   5.501   4.267   3.195
27294WAT      O82123   1.934   4.679   0.736
27294WAT     H182124   1.895   4.645   0.821
27294WAT     H282125   1.863   4.728   0.685
27295WAT      O82126   4.411   0.512   2.922
27295WAT     H182127   4.502   0.476   2.900
27295WAT     H282128   4.352   0.503   2.842
27296WAT      O82129   8.759   3.798   7.414
27296WAT     H182130   8.705   3.761   7.489
27296WAT     H282131   8.761   3.897   7.420
27297WAT      O82132   7.147   8.005   3.430
27297WAT     H182133   7.171   8.099   3.406
27297WAT     H282134   7.225   7.945   3.412
27298WAT      O82135   6.945   5.765   3.748
27298WAT     H182136   6.909   5.785   3.839
27298WAT     H282137   6.889   5.810   3.679
27299WAT      O82138   8.888   4.571   8.486
27299WAT     H182139   8.915   4.552   8.581
27299WAT     H282140   8.970   4.582   8.430
27300WAT      O82141   3.521   5.403   9.758
27300WAT     H182142   3.619   5.381   9.763
27300WAT     H282143   3.507   5.500   9.781
27301WAT      O82144   0.430   4.318   7.295
27301WAT     H182145   0.514   4.355   7.256
27301WAT     H282146   0.370   4.393   7.323
27302WAT      O82147   5.888   3.791   6.836
27302WAT     H182148   5.938   3.721   6.786
27302WAT     H282149   5.901   3.778   6.934
27303WAT      O82150   2.325   1.247   8.650
27303WAT     H182151   2.279   1.320   8.701
27303WAT     H282152   2.384   1.195   8.712
27304WAT      O82153   6.910   2.338   1.881
27304WAT     H182154   6.903   2.382   1.791
27304WAT     H282155   6.865   2.395   1.950
27305WAT      O82156   8.953   4.240   9.345
27305WAT     H182157   8.922   4.321   9.295
27305WAT     H282158   8.879   4.173   9.351
27306WAT      O82159   0.071   9.282   3.148
27306WAT     H182160   0.078   9.291   3.048
27306WAT     H282161   0.161   9.261   3.186
27307WAT      O82162   8.359   3.608   6.580
27307WAT     H182163   8.373   3.516   6.543
27307WAT     H282164   8.448   3.652   6.594
27308WAT      O82165   5.649   0.021   5.794
27308WAT     H182166   5.583   0.081   5.748
27308WAT     H282167   5.736   0.069   5.804
27309WAT      O82168   7.076   6.476   8.730
27309WAT     H182169   7.081   6.465   8.829
27309WAT     H282170   6.996   6.532   8.707
27310WAT      O82171   2.366   8.989   3.822
27310WAT     H182172   2.307   8.911   3.804
27310WAT     H282173   2.376   9.001   3.921
27311WAT      O82174   3.267   6.312   4.147
27311WAT     H182175   3.301   6.220   4.132
27311WAT     H282176   3.303   6.348   4.233
27312WAT      O82177   0.284   2.162   7.367
27312WAT     H182178   0.380   2.152   7.343
27312WAT     H282179   0.265   2.257   7.390
27313WAT      O82180   3.588   8.367   2.290
27313WAT     H182181   3.494   8.373   2.255
27313WAT     H282182   3.628   8.280   2.264
27314WAT      O82183   5.453   5.387   2.222
27314WAT     H182184   5.365   5.414   2.260
27314WAT     H282185   5.480   5.452   2.151
27315WAT      O82186   0.615   7.370   9.164
27315WAT     H182187   0.658   7.380   9.074
27315WAT     H282188   0.530   7.318   9.155
27316WAT      O82189   5.262   9.297   5.126
27316WAT     H182190   5.328   9.314   5.200
27316WAT     H282191   5.303   9.237   5.058
27317WAT      O82192   5.728   6.362   6.695
27317WAT     H182193   5.808   6.302   6.691
27317WAT     H282194   5.741   6.440   6.634
27318WAT      O82195   4.211   5.670   1.751
27318WAT     H182196   4.149   5.748   1.763
27318WAT     H282197   4.298   5.702   1.713
27319WAT      O82198   8.599   1.640   0.603
27319WAT     H182199   8.685   1.629   0.653
27319WAT     H282200   8.605   1.591   0.516
27320WAT      O82201   1.463   1.925   4.357
27320WAT     H182202   1.381   1.982   4.355
27320WAT     H282203   1.532   1.963   4.296
27321WAT      O82204   0.218   8.088   0.756
27321WAT     H182205   0.247   8.183   0.767
27321WAT     H282206   0.137   8.071   0.812
27322WAT      O82207   3.899   3.323   0.616
27322WAT     H182208   3.903   3.326   0.516
27322WAT     H282209   3.991   3.335   0.654
27323WAT      O82210   7.125   2.123   1.092
27323WAT     H182211   7.112   2.058   1.167
27323WAT     H282212   7.045   2.182   1.085
27324WAT      O82213   7.315   7.969   9.081
27324WAT     H182214   7.244   7.911   9.121
27324WAT     H282215   7.300   7.977   8.983
27325WAT      O82216   3.927   0.745   1.945
27325WAT     H182217   4.025   0.740   1.927
27325WAT     H282218   3.909   0.722   2.041
27326WAT      O82219   0.225   8.436   3.838
27326WAT     H182220   0.282   8.495   3.781
27326WAT     H282221   0.281   8.362   3.876
27327WAT      O82222   2.785   9.369   8.539
27327WAT     H182223   2.812   9.465   8.531
27327WAT     H282224   2.689   9.359   8.512
27328WAT      O82225   3.698   6.481   3.723
27328WAT     H182226   3.755   6.499   3.643
27328WAT     H282227   3.710   6.555   3.789
27329WAT      O82228   3.426   1.697   9.069
27329WAT     H182229   3.386   1.675   8.980
27329WAT     H282230   3.383   1.779   9.106
27330WAT      O82231   5.741   2.539   3.075
27330WAT     H182232   5.815   2.475   3.060
27330WAT     H282233   5.708   2.530   3.169
27331WAT      O82234   2.000   5.477   1.346
27331WAT     H182235   1.991   5.561   1.399
27331WAT     H282236   2.092   5.473   1.306
27332WAT      O82237   2.925   5.867   1.935
27332WAT     H182238   3.001   5.817   1.893
27332WAT     H282239   2.913   5.955   1.890
27333WAT      O82240   7.693   6.335   5.947
27333WAT     H182241   7.739   6.247   5.935
27333WAT     H282242   7.598   6.327   5.917
27334WAT      O82243   1.038   9.433   3.474
27334WAT     H182244   1.096   9.450   3.395
27334WAT     H282245   1.041   9.336   3.498
27335WAT      O82246   6.763   1.530   7.521
27335WAT     H182247   6.706   1.489   7.592
27335WAT     H282248   6.747   1.629   7.518
27336WAT      O82249   9.743   2.718   2.753
27336WAT     H182250   9.784   2.641   2.705
27336WAT     H282251   9.663   2.688   2.804
27337WAT      O82252   3.924   7.172   9.137
27337WAT     H182253   3.855   7.216   9.195
27337WAT     H282254   3.972   7.102   9.191
27338WAT      O82255   4.758   9.325   8.328
27338WAT     H182256   4.760   9.420   8.359
27338WAT     H282257   4.815   9.268   8.387
27339WAT      O82258   9.464   4.149   9.169
27339WAT     H182259   9.476   4.078   9.100
27339WAT     H282260   9.368   4.155   9.195
27340WAT      O82261   3.377   7.128   1.109
27340WAT     H182262   3.385   7.075   1.024
27340WAT     H282263   3.407   7.072   1.185
27341WAT      O82264   8.985   0.671   9.782
27341WAT     H182265   9.059   0.692   9.718
27341WAT     H282266   9.008   0.589   9.835
27342WAT      O82267   7.416   6.554   5.105
27342WAT     H182268   7.318   6.567   5.117
27342WAT     H282269   7.443   6.587   5.014
27343WAT      O82270   7.554   6.774   8.411
27343WAT     H182271   7.475   6.834   8.425
27343WAT     H282272   7.629   6.826   8.370
27344WAT      O82273   4.951   4.123   0.813
27344WAT     H182274   5.036   4.070   0.822
27344WAT     H282275   4.894   4.108   0.894
27345WAT      O82276   9.561   0.524   8.383
27345WAT     H182277   9.607   0.463   8.448
27345WAT     H282278   9.574   0.489   8.290
27346WAT      O82279   4.105   5.461   9.565
27346WAT     H182280   4.184   5.523   9.559
27346WAT     H282281   4.089   5.436   9.660
27347WAT      O82282   6.157   8.993   9.659
27347WAT     H182283   6.113   9.018   9.572
27347WAT     H282284   6.256   9.003   9.651
27348WAT      O82285   9.432   8.869   6.626
27348WAT     H182286   9.473   8.794   6.677
27348WAT     H282287   9.368   8.918   6.684
27349WAT      O82288   7.912   2.310   3.531
27349WAT     H182289   7.869   2.400   3.527
27349WAT     H282290   7.911   2.268   3.440
27350WAT      O82291   6.534   8.495   0.218
27350WAT     H182292   6.452   8.442   0.236
27350WAT     H282293   6.612   8.452   0.264
27351WAT      O82294   3.687   5.870   2.075
27351WAT     H182295   3.722   5.863   1.982
27351WAT     H282296   3.748   5.819   2.137
27352WAT      O82297   6.298   9.751   2.472
27352WAT     H182298   6.221   9.813   2.486
27352WAT     H282299   6.342   9.773   2.384
27353WAT      O82300   4.967   3.491   5.455
27353WAT     H182301   4.919   3.435   5.523
27353WAT     H282302   4.943   3.587   5.466
27354WAT      O82303   4.066   0.296   3.031
27354WAT     H182304   4.111   0.215   2.993
27354WAT     H282305   4.125   0.338   3.099
27355WAT      O82306   2.552   0.907   5.266
27355WAT     H182307   2.456   0.895   5.291
27355WAT     H282308   2.600   0.957   5.338
27356WAT      O82309   2.794   1.455   5.219
27356WAT     H182310   2.831   1.369   5.182
27356WAT     H282311   2.727   1.435   5.290
27357WAT      O82312   8.052   6.507   5.712
27357WAT     H182313   7.975   6.497   5.650
27357WAT     H282314   8.074   6.418   5.753
27358WAT      O82315   8.569   3.417   7.155
27358WAT     H182316   8.576   3.483   7.080
27358WAT     H282317   8.554   3.325   7.117
27359WAT      O82318   0.014   0.314   0.950
27359WAT     H182319   0.036   0.369   1.031
27359WAT     H282320   0.040   0.363   0.868
27360WAT      O82321   7.739   9.205   5.510
27360WAT     H182322   7.788   9.119   5.516
27360WAT     H282323   7.657   9.194   5.453
27361WAT      O82324   0.506   7.588   1.490
27361WAT     H182325   0.563   7.634   1.558
27361WAT     H282326   0.421   7.558   1.532
27362WAT      O82327   8.533   4.868   5.051
27362WAT     H182328   8.542   4.819   5.138
27362WAT     H282329   8.501   4.804   4.981
27363WAT      O82330   5.350   7.613   9.771
27363WAT     H182331   5.420   7.633   9.703
27363WAT     H282332   5.327   7.516   9.768
27364WAT      O82333   1.071   0.201   9.444
27364WAT     H182334   1.159   0.187   9.400
27364WAT     H282335   1.078   0.275   9.510
27365WAT      O82336   1.885   6.289   5.379
27365WAT     H182337   1.953   6.359   5.400
27365WAT     H282338   1.852   6.248   5.464
27366WAT      O82339   6.906   4.450   7.701
27366WAT     H182340   6.888   4.528   7.642
27366WAT     H282341   6.951   4.377   7.648
27367WAT      O82342   4.883   7.686   7.547
27367WAT     H182343   4.945   7.740   7.491
27367WAT     H282344   4.935   7.627   7.608
27368WAT      O82345   8.179   8.501   1.734
27368WAT     H182346   8.134   8.508   1.645
27368WAT     H282347   8.158   8.413   1.776
27369WAT      O82348   0.530   5.600   5.775
27369WAT     H182349   0.526   5.661   5.695
27369WAT     H282350   0.559   5.652   5.855
27370WAT      O82351   0.212   2.865   5.721
27370WAT     H182352   0.263   2.867   5.635
27370WAT     H282353   0.257   2.923   5.788
27371WAT      O82354   2.979   5.856   2.189
27371WAT     H182355   2.974   5.891   2.095
27371WAT     H282356   2.891   5.817   2.215
27372WAT      O82357   4.955   3.218   5.083
27372WAT     H182358   4.865   3.182   5.107
27372WAT     H282359   4.975   3.298   5.139
27373WAT      O82360   6.243   3.007   3.463
27373WAT     H182361   6.188   3.087   3.437
27373WAT     H282362   6.184   2.940   3.509
27374WAT      O82363   3.528   9.419   1.033
27374WAT     H182364   3.533   9.519   1.032
27374WAT     H282365   3.432   9.391   1.031
27375WAT      O82366   9.279   3.416   2.108
27375WAT     H182367   9.316   3.508   2.120
27375WAT     H282368   9.353   3.349   2.119
27376WAT      O82369   0.507   8.808   5.545
27376WAT     H182370   0.463   8.869   5.611
27376WAT     H282371   0.452   8.726   5.534
27377WAT      O82372   2.021   0.447   2.814
27377WAT     H182373   1.993   0.351   2.824
27377WAT     H282374   2.070   0.476   2.896
27378WAT      O82375   1.613   8.309   5.287
27378WAT     H182376   1.710   8.321   5.308
27378WAT     H282377   1.592   8.211   5.283
27379WAT      O82378   8.927   7.714   8.515
27379WAT     H182379   8.980   7.796   8.493
27379WAT     H282380   8.981   7.633   8.496
27380WAT      O82381   4.761   8.959   8.794
27380WAT     H182382   4.812   8.893   8.738
27380WAT     H282383   4.741   9.040   8.738
27381WAT      O82384   1.446   5.205   8.101
27381WAT     H182385   1.373   5.170   8.161
27381WAT     H282386   1.499   5.274   8.150
27382WAT      O82387   7.746   1.004   6.735
27382WAT     H182388   7.707   0.921   6.694
27382WAT     H282389   7.794   0.979   6.819
27383WAT      O82390   1.973   0.650   5.156
27383WAT     H182391   2.038   0.607   5.094
27383WAT     H282392   1.965   0.748   5.134
27384WAT      O82393   6.495   9.444   0.886
27384WAT     H182394   6.480   9.351   0.918
27384WAT     H282395   6.512   9.504   0.964
27385WAT      O82396   4.725   6.222   8.035
27385WAT     H182397   4.788   6.211   8.112
27385WAT     H282398   4.727   6.140   7.978
27386WAT      O82399   8.764   6.568   7.231
27386WAT     H182400   8.689   6.603   7.175
27386WAT     H282401   8.753   6.601   7.325
27387WAT      O82402   8.722   0.830   5.402
27387WAT     H182403   8.807   0.791   5.366
27387WAT     H282404   8.704   0.918   5.359
27388WAT      O82405   0.460   8.303   2.974
27388WAT     H182406   0.557   8.320   2.987
27388WAT     H282407   0.448   8.223   2.915
27389WAT      O82408   0.308   4.801   4.386
27389WAT     H182409   0.326   4.892   4.422
27389WAT     H282410   0.257   4.808   4.300
27390WAT      O82411   4.894   7.891   5.701
27390WAT     H182412   4.971   7.839   5.739
27390WAT     H282413   4.904   7.987   5.725
27391WAT      O82414   7.961   2.735   4.785
27391WAT     H182415   7.922   2.755   4.695
27391WAT     H282416   7.896   2.763   4.856
27392WAT      O82417   9.540   0.391   4.402
27392WAT     H182418   9.558   0.348   4.314
27392WAT     H282419   9.487   0.474   4.389
27393WAT      O82420   9.305   8.006   8.341
27393WAT     H182421   9.379   7.941   8.323
27393WAT     H282422   9.331   8.065   8.417
27394WAT      O82423   2.362   1.629   3.238
27394WAT     H182424   2.303   1.631   3.158
27394WAT     H282425   2.317   1.579   3.312
27395WAT      O82426   1.144   1.898   2.342
27395WAT     H182427   1.064   1.942   2.382
27395WAT     H282428   1.213   1.967   2.322
27396WAT      O82429   8.629   6.318   4.091
27396WAT     H182430   8.557   6.382   4.066
27396WAT     H282431   8.646   6.255   4.015
27397WAT      O82432   1.834   4.326   6.414
27397WAT     H182433   1.904   4.362   6.475
27397WAT     H282434   1.863   4.338   6.319
27398WAT      O82435   8.653   6.398   6.535
27398WAT     H182436   8.580   6.398   6.466
27398WAT     H282437   8.720   6.327   6.513
27399WAT      O82438   3.420   2.945   0.166
27399WAT     H182439   3.382   2.953   0.074
27399WAT     H282440   3.513   2.982   0.168
27400WAT      O82441   0.012   0.238   0.558
27400WAT     H182442  -0.079   0.199   0.545
27400WAT     H282443   0.061   0.238   0.471
27401WAT      O82444   8.412   2.733   0.310
27401WAT     H182445   8.373   2.641   0.314
27401WAT     H282446   8.461   2.746   0.224
27402WAT      O82447   0.837   3.029   5.698
27402WAT     H182448   0.908   3.066   5.758
27402WAT     H282449   0.871   3.027   5.604
27403WAT      O82450   2.266   2.522   2.024
27403WAT     H182451   2.246   2.435   2.068
27403WAT     H282452   2.195   2.544   1.957
27404WAT      O82453   6.391   0.048   7.703
27404WAT     H182454   6.430  -0.027   7.757
27404WAT     H282455   6.353   0.011   7.618
27405WAT      O82456   3.238   7.368   2.321
27405WAT     H182457   3.149   7.379   2.276
27405WAT     H282458   3.281   7.457   2.331
27406WAT      O82459   8.940   5.235   3.148
27406WAT     H182460   8.965   5.279   3.234
27406WAT     H282461   9.020   5.188   3.111
27407WAT      O82462   1.223   3.137   9.851
27407WAT     H182463   1.286   3.139   9.929
27407WAT     H282464   1.129   3.149   9.883
27408WAT      O82465   9.687   4.639   6.485
27408WAT     H182466   9.716   4.700   6.412
27408WAT     H282467   9.722   4.547   6.468
27409WAT      O82468   3.388   8.477   7.058
27409WAT     H182469   3.437   8.561   7.082
27409WAT     H282470   3.449   8.416   7.007
27410WAT      O82471   6.002   3.030   6.447
27410WAT     H182472   6.023   3.065   6.355
27410WAT     H282473   5.903   3.015   6.454
27411WAT      O82474   4.962   3.354   3.240
27411WAT     H182475   4.911   3.347   3.326
27411WAT     H282476   5.039   3.290   3.242
27412WAT      O82477   5.002   9.164   9.836
27412WAT     H182478   5.086   9.206   9.804
27412WAT     H282479   4.943   9.143   9.759
27413WAT      O82480   6.507   3.766   1.687
27413WAT     H182481   6.579   3.834   1.702
27413WAT     H282482   6.520   3.722   1.598
27414WAT      O82483   8.384   7.447   7.209
27414WAT     H182484   8.425   7.366   7.251
27414WAT     H282485   8.447   7.524   7.214
27415WAT      O82486   0.030   5.869   0.259
27415WAT     H182487  -0.019   5.911   0.182
27415WAT     H282488   0.126   5.897   0.256
27416WAT      O82489   7.298   0.250   3.572
27416WAT     H182490   7.261   0.226   3.482
27416WAT     H282491   7.251   0.199   3.643
27417WAT      O82492   1.651   1.371   1.382
27417WAT     H182493   1.713   1.442   1.351
27417WAT     H282494   1.641   1.376   1.481
27418WAT      O82495   5.176   6.899   2.276
27418WAT     H182496   5.182   6.847   2.190
27418WAT     H282497   5.244   6.864   2.340
27419WAT      O82498   3.893   9.509   7.090
27419WAT     H182499   3.929   9.601   7.083
27419WAT     H282500   3.945   9.457   7.158
27420WAT      O82501   2.073   3.522   7.914
27420WAT     H182502   2.159   3.572   7.930
27420WAT     H282503   2.005   3.552   7.980
27421WAT      O82504   4.055   1.535   3.523
27421WAT     H182505   4.153   1.518   3.539
27421WAT     H282506   4.044   1.582   3.435
27422WAT      O82507   9.167   1.180   8.505
27422WAT     H182508   9.204   1.272   8.520
27422WAT     H282509   9.133   1.143   8.592
27423WAT      O82510   0.109   3.906   3.570
27423WAT     H182511   0.058   3.983   3.608
27423WAT     H282512   0.173   3.939   3.501
27424WAT      O82513   6.028   5.710   1.064
27424WAT     H182514   5.964   5.690   0.989
27424WAT     H282515   6.013   5.647   1.139
27425WAT      O82516   4.994   6.895   7.414
27425WAT     H182517   4.998   6.923   7.510
27425WAT     H282518   5.084   6.908   7.372
27426WAT      O82519   4.314   3.309   2.615
27426WAT     H182520   4.232   3.322   2.559
27426WAT     H282521   4.320   3.382   2.683
27427WAT      O82522   5.476   6.577   6.347
27427WAT     H182523   5.514   6.490   6.381
27427WAT     H282524   5.379   6.565   6.328
27428WAT      O82525   3.368   5.346   2.205
27428WAT     H182526   3.438   5.417   2.192
27428WAT     H282527   3.395   5.287   2.281
27429WAT      O82528   5.215   7.692   2.249
27429WAT     H182529   5.262   7.779   2.235
27429WAT     H282530   5.117   7.708   2.255
27430WAT      O82531   4.072   1.131   0.359
27430WAT     H182532   4.094   1.052   0.416
27430WAT     H282533   4.156   1.163   0.314
27431WAT      O82534   2.683   6.068   4.276
27431WAT     H182535   2.757   6.021   4.228
27431WAT     H282536   2.719   6.150   4.321
27432WAT      O82537   3.331   5.815   5.322
27432WAT     H182538   3.350   5.761   5.404
27432WAT     H282539   3.410   5.873   5.302
27433WAT      O82540   3.010   1.450   9.324
27433WAT     H182541   3.000   1.354   9.349
27433WAT     H282542   2.967   1.465   9.234
27434WAT      O82543   2.381   1.206   6.335
27434WAT     H182544   2.330   1.272   6.390
27434WAT     H282545   2.340   1.200   6.244
27435WAT      O82546   0.112   2.907   1.012
27435WAT     H182547   0.173   2.828   1.006
27435WAT     H282548   0.127   2.967   0.934
27436WAT      O82549   5.541   8.493   1.062
27436WAT     H182550   5.468   8.547   1.021
27436WAT     H282551   5.553   8.408   1.010
27437WAT      O82552   5.865   1.405   2.355
27437WAT     H182553   5.877   1.413   2.256
27437WAT     H282554   5.940   1.352   2.394
27438WAT      O82555   0.219   7.009   2.561
27438WAT     H182556   0.182   6.945   2.628
27438WAT     H282557   0.311   6.981   2.535
27439WAT      O82558   0.779   7.844   1.417
27439WAT     H182559   0.771   7.847   1.318
27439WAT     H282560   0.696   7.881   1.459
27440WAT      O82561   7.729   0.035   3.636
27440WAT     H182562   7.765   0.069   3.723
27440WAT     H282563   7.631   0.056   3.631
27441WAT      O82564   8.392   6.270   3.896
27441WAT     H182565   8.478   6.227   3.923
27441WAT     H282566   8.352   6.219   3.820
27442WAT      O82567   0.405   4.111   5.681
27442WAT     H182568   0.470   4.172   5.726
27442WAT     H282569   0.419   4.116   5.582
27443WAT      O82570   3.945   6.334   9.104
27443WAT     H182571   4.007   6.408   9.078
27443WAT     H282572   3.995   6.265   9.157
27444WAT      O82573   0.778   9.355   8.990
27444WAT     H182574   0.742   9.409   9.066
27444WAT     H282575   0.724   9.373   8.908
27445WAT      O82576   1.075   2.508   0.833
27445WAT     H182577   0.984   2.547   0.820
27445WAT     H282578   1.128   2.568   0.894
27446WAT      O82579   7.155   2.695   1.609
27446WAT     H182580   7.253   2.675   1.603
27446WAT     H282581   7.106   2.644   1.538
27447WAT      O82582   2.005   7.456   8.014
27447WAT     H182583   1.969   7.414   8.097
27447WAT     H282584   2.006   7.389   7.940
27448WAT      O82585   8.145   2.754   5.971
27448WAT     H182586   8.115   2.661   5.953
27448WAT     H282587   8.097   2.817   5.910
27449WAT      O82588   5.000   9.749   7.603
27449WAT     H182589   4.969   9.754   7.698
27449WAT     H282590   4.965   9.827   7.552
27450WAT      O82591   7.232   5.794   9.025
27450WAT     H182592   7.299   5.838   8.965
27450WAT     H282593   7.252   5.816   9.120
27451WAT      O82594   8.373   1.206   3.849
27451WAT     H182595   8.419   1.155   3.776
27451WAT     H282596   8.399   1.168   3.938
27452WAT      O82597   7.309   2.996   6.406
27452WAT     H182598   7.380   2.953   6.461
27452WAT     H282599   7.321   2.969   6.310
27453WAT      O82600   3.922   8.331   2.138
27453WAT     H182601   3.954   8.419   2.173
27453WAT     H282602   3.982   8.302   2.063
27454WAT      O82603   4.885   6.486   4.762
27454WAT     H182604   4.937   6.440   4.690
27454WAT     H282605   4.787   6.472   4.746
27455WAT      O82606   1.602   9.761   0.600
27455WAT     H182607   1.696   9.771   0.569
27455WAT     H282608   1.596   9.785   0.697
27456WAT      O82609   2.677   8.895   2.396
27456WAT     H182610   2.610   8.823   2.377
27456WAT     H282611   2.767   8.865   2.366
27457WAT      O82612   7.072   5.383   7.898
27457WAT     H182613   7.145   5.322   7.928
27457WAT     H282614   7.036   5.351   7.811
27458WAT      O82615   7.028   5.039   4.285
27458WAT     H182616   6.992   5.031   4.378
27458WAT     H282617   7.125   5.016   4.284
27459WAT      O82618   5.282   8.852   8.350
27459WAT     H182619   5.373   8.858   8.392
27459WAT     H282620   5.222   8.797   8.409
27460WAT      O82621   2.139   7.354   8.694
27460WAT     H182622   2.186   7.267   8.689
27460WAT     H282623   2.167   7.413   8.618
27461WAT      O82624   2.670   8.820   8.998
27461WAT     H182625   2.727   8.760   9.054
27461WAT     H282626   2.580   8.828   9.040
27462WAT      O82627   5.462   7.124   4.980
27462WAT     H182628   5.442   7.048   4.918
27462WAT     H282629   5.384   7.186   4.982
27463WAT      O82630   6.534   6.217   5.199
27463WAT     H182631   6.481   6.166   5.131
27463WAT     H282632   6.591   6.285   5.152
27464WAT      O82633   4.583   8.208   6.960
27464WAT     H182634   4.617   8.229   7.051
27464WAT     H282635   4.644   8.248   6.891
27465WAT      O82636   2.967   1.657   2.384
27465WAT     H182637   3.047   1.601   2.364
27465WAT     H282638   2.947   1.716   2.306
27466WAT      O82639   7.966   9.237   3.221
27466WAT     H182640   8.047   9.287   3.192
27466WAT     H282641   7.897   9.301   3.255
27467WAT      O82642   1.449   9.700   2.025
27467WAT     H182643   1.450   9.786   2.076
27467WAT     H282644   1.359   9.658   2.032
27468WAT      O82645   1.975   2.540   9.794
27468WAT     H182646   2.063   2.571   9.832
27468WAT     H282647   1.902   2.559   9.860
27469WAT      O82648   6.550   2.048   1.754
27469WAT     H182649   6.640   2.042   1.711
27469WAT     H282650   6.494   2.115   1.704
27470WAT      O82651   6.084   8.142   2.153
27470WAT     H182652   6.087   8.215   2.222
27470WAT     H282653   6.170   8.140   2.102
27471WAT      O82654   5.233   1.584   0.270
27471WAT     H182655   5.298   1.645   0.315
27471WAT     H282656   5.140   1.602   0.305
27472WAT      O82657   5.368   7.147   5.333
27472WAT     H182658   5.410   7.225   5.379
27472WAT     H282659   5.272   7.140   5.361
27473WAT      O82660   3.689   0.035   6.279
27473WAT     H182661   3.658  -0.060   6.274
27473WAT     H282662   3.728   0.062   6.190
27474WAT      O82663   2.013   5.919   8.335
27474WAT     H182664   1.952   5.847   8.302
27474WAT     H282665   2.108   5.890   8.324
27475WAT      O82666   7.054   7.278   8.920
27475WAT     H182667   7.073   7.348   8.850
27475WAT     H282668   6.955   7.272   8.934
27476WAT      O82669   1.543   2.191   9.057
27476WAT     H182670   1.480   2.264   9.030
27476WAT     H282671   1.588   2.216   9.143
27477WAT      O82672   2.441   2.234   0.505
27477WAT     H182673   2.453   2.315   0.448
27477WAT     H282674   2.369   2.176   0.467
27478WAT      O82675   5.655   3.677   6.292
27478WAT     H182676   5.752   3.662   6.272
27478WAT     H282677   5.600   3.607   6.246
27479WAT      O82678   2.751   1.654   6.744
27479WAT     H182679   2.733   1.685   6.650
27479WAT     H282680   2.686   1.697   6.806
27480WAT      O82681   4.977   2.708   3.802
27480WAT     H182682   4.962   2.719   3.900
27480WAT     H282683   5.073   2.724   3.781
27481WAT      O82684   7.361   0.755   4.083
27481WAT     H182685   7.324   0.767   4.175
27481WAT     H282686   7.302   0.800   4.016
27482WAT      O82687   3.888   1.563   9.789
27482WAT     H182688   3.881   1.656   9.754
27482WAT     H282689   3.968   1.555   9.847
27483WAT      O82690   5.372   6.081   1.489
27483WAT     H182691   5.451   6.024   1.464
27483WAT     H282692   5.353   6.146   1.415
27484WAT      O82693   1.326   9.351   3.343
27484WAT     H182694   1.306   9.407   3.262
27484WAT     H282695   1.399   9.394   3.396
27485WAT      O82696   6.796   2.261   8.466
27485WAT     H182697   6.711   2.253   8.517
27485WAT     H282698   6.786   2.330   8.394
27486WAT      O82699   5.284   6.510   8.179
27486WAT     H182700   5.329   6.542   8.262
27486WAT     H282701   5.348   6.518   8.102
27487WAT      O82702   2.244   6.698   9.533
27487WAT     H182703   2.207   6.752   9.457
27487WAT     H282704   2.189   6.714   9.615
27488WAT      O82705   1.073   6.488   6.460
27488WAT     H182706   1.158   6.461   6.414
27488WAT     H282707   1.027   6.559   6.407
27489WAT      O82708   3.523   1.766   3.131
27489WAT     H182709   3.448   1.746   3.194
27489WAT     H282710   3.487   1.772   3.038
27490WAT      O82711   4.673   1.088   0.312
27490WAT     H182712   4.620   1.021   0.261
27490WAT     H282713   4.683   1.058   0.406
27491WAT      O82714   4.859   9.664   3.085
27491WAT     H182715   4.788   9.593   3.095
27491WAT     H282716   4.843   9.714   3.000
27492WAT      O82717   6.375   7.908   5.499
27492WAT     H182718   6.377   8.002   5.464
27492WAT     H282719   6.468   7.881   5.525
27493WAT      O82720   2.319   6.255   3.626
27493WAT     H182721   2.271   6.209   3.551
27493WAT     H282722   2.352   6.187   3.691
27494WAT      O82723   2.901   4.245   4.413
27494WAT     H182724   2.959   4.325   4.426
27494WAT     H282725   2.805   4.271   4.423
27495WAT      O82726   5.172   7.442   8.866
27495WAT     H182727   5.165   7.387   8.950
27495WAT     H282728   5.239   7.515   8.879
27496WAT      O82729   1.149   9.455   1.172
27496WAT     H182730   1.138   9.552   1.196
27496WAT     H282731   1.224   9.446   1.107
27497WAT      O82732   6.452   1.029   0.415
27497WAT     H182733   6.458   1.092   0.492
27497WAT     H282734   6.378   0.964   0.430
27498WAT      O82735   2.195   9.808   0.388
27498WAT     H182736   2.214   9.714   0.358
27498WAT     H282737   2.256   9.832   0.464
27499WAT      O82738   0.032   2.856   4.734
27499WAT     H182739   0.110   2.793   4.730
27499WAT     H282740   0.039   2.922   4.658
27500WAT      O82741   2.606   6.685   0.126
27500WAT     H182742   2.596   6.763   0.064
27500WAT     H282743   2.606   6.717   0.220
27501WAT      O82744   6.568   1.148   6.987
27501WAT     H182745   6.540   1.059   7.024
27501WAT     H282746   6.644   1.184   7.040
27502WAT      O82747   3.103   6.198   7.390
27502WAT     H182748   3.162   6.130   7.432
27502WAT     H282749   3.117   6.287   7.435
27503WAT      O82750   2.362   6.003   8.868
27503WAT     H182751   2.429   5.984   8.796
27503WAT     H282752   2.330   6.098   8.859
27504WAT      O82753   8.347   7.120   3.368
27504WAT     H182754   8.341   7.026   3.400
27504WAT     H282755   8.412   7.125   3.292
27505WAT      O82756   1.787   5.904   1.310
27505WAT     H182757   1.818   5.990   1.350
27505WAT     H282758   1.769   5.837   1.383
27506WAT      O82759   7.699   3.050   6.241
27506WAT     H182760   7.651   3.136   6.257
27506WAT     H282761   7.649   2.975   6.283
27507WAT      O82762   6.721   1.122   5.644
27507WAT     H182763   6.782   1.199   5.627
27507WAT     H282764   6.765   1.037   5.613
27508WAT      O82765   7.066   1.024   8.589
27508WAT     H182766   7.102   1.077   8.513
27508WAT     H282767   6.983   0.976   8.560
27509WAT      O82768   2.348   0.521   8.326
27509WAT     H182769   2.345   0.572   8.413
27509WAT     H282770   2.255   0.510   8.291
27510WAT      O82771   6.941   9.053   4.279
27510WAT     H182772   7.012   8.989   4.248
27510WAT     H282773   6.972   9.147   4.265
27511WAT      O82774   2.783   8.061   3.873
27511WAT     H182775   2.808   7.964   3.868
27511WAT     H282776   2.861   8.114   3.907
27512WAT      O82777   6.644   7.385   4.785
27512WAT     H182778   6.560   7.331   4.794
27512WAT     H282779   6.674   7.414   4.876
27513WAT      O82780   7.959   5.259   7.601
27513WAT     H182781   7.881   5.293   7.549
27513WAT     H282782   8.044   5.285   7.555
27514WAT      O82783   9.693   1.549   8.506
27514WAT     H182784   9.611   1.593   8.469
27514WAT     H282785   9.754   1.618   8.545
27515WAT      O82786   6.578   9.725   3.578
27515WAT     H182787   6.666   9.765   3.554
27515WAT     H282788   6.592   9.647   3.639
27516WAT      O82789   2.923   2.165   5.902
27516WAT     H182790   3.009   2.168   5.851
27516WAT     H282791   2.846   2.167   5.838
27517WAT      O82792   3.292   2.846   2.633
27517WAT     H182793   3.277   2.910   2.708
27517WAT     H282794   3.213   2.847   2.572
27518WAT      O82795   6.179   4.556   5.656
27518WAT     H182796   6.195   4.530   5.751
27518WAT     H282797   6.086   4.532   5.630
27519WAT      O82798   5.633   0.269   4.685
27519WAT     H182799   5.666   0.296   4.776
27519WAT     H282800   5.707   0.222   4.636
27520WAT      O82801   0.137   5.455   7.417
27520WAT     H182802   0.121   5.460   7.515
27520WAT     H282803   0.110   5.541   7.374
27521WAT      O82804   4.761   7.994   9.621
27521WAT     H182805   4.740   7.944   9.537
27521WAT     H282806   4.839   8.055   9.604
27522WAT      O82807   8.081   1.219   8.177
27522WAT     H182808   8.045   1.137   8.220
27522WAT     H282809   8.174   1.235   8.208
27523WAT      O82810   8.232   2.039   7.343
27523WAT     H182811   8.191   2.036   7.435
27523WAT     H282812   8.266   2.131   7.326
27524WAT      O82813   5.496   1.544   6.762
27524WAT     H182814   5.438   1.469   6.730
27524WAT     H282815   5.591   1.513   6.764
27525WAT      O82816   0.528   7.230   4.828
27525WAT     H182817   0.505   7.321   4.865
27525WAT     H282818   0.444   7.181   4.807
27526WAT      O82819   2.776   2.918   9.291
27526WAT     H182820   2.832   2.911   9.374
27526WAT     H282821   2.739   2.828   9.268
27527WAT      O82822   3.191   3.009   8.877
27527WAT     H182823   3.213   3.029   8.782
27527WAT     H282824   3.239   3.074   8.937
27528WAT      O82825   7.836   9.362   8.547
27528WAT     H182826   7.797   9.387   8.459
27528WAT     H282827   7.773   9.386   8.621
27529WAT      O82828   1.557   2.261   3.364
27529WAT     H182829   1.507   2.239   3.447
27529WAT     H282830   1.520   2.344   3.323
27530WAT      O82831   7.987   8.683   5.927
27530WAT     H182832   7.980   8.669   6.026
27530WAT     H282833   8.011   8.596   5.883
27531WAT      O82834   0.759   1.724   1.106
27531WAT     H182835   0.840   1.712   1.164
27531WAT     H282836   0.704   1.640   1.109
27532WAT      O82837   0.626   9.410   8.779
27532WAT     H182838   0.662   9.481   8.719
27532WAT     H282839   0.623   9.323   8.729
27533WAT      O82840   2.927   9.162   8.606
27533WAT     H182841   2.936   9.156   8.706
27533WAT     H282842   2.875   9.244   8.583
27534WAT      O82843   8.073   6.628   9.042
27534WAT     H182844   8.097   6.561   9.112
27534WAT     H282845   8.004   6.691   9.078
27535WAT      O82846   8.707   5.171   0.274
27535WAT     H182847   8.633   5.147   0.338
27535WAT     H282848   8.788   5.117   0.296
27536WAT      O82849   2.926   0.342   2.964
27536WAT     H182850   2.938   0.338   3.063
27536WAT     H282851   2.934   0.437   2.934
27537WAT      O82852   1.258   2.619   5.361
27537WAT     H182853   1.265   2.702   5.306
27537WAT     H282854   1.323   2.622   5.436
27538WAT      O82855   8.078   4.953   5.077
27538WAT     H182856   8.117   4.902   5.000
27538WAT     H282857   8.137   4.944   5.157
27539WAT      O82858   5.320   6.741   2.436
27539WAT     H182859   5.250   6.715   2.502
27539WAT     H282860   5.410   6.730   2.478
27540WAT      O82861   4.612   5.903   7.031
27540WAT     H182862   4.572   5.901   6.939
27540WAT     H282863   4.628   5.810   7.062
27541WAT      O82864   3.973   2.388   8.462
27541WAT     H182865   3.889   2.351   8.500
27541WAT     H282866   3.970   2.382   8.362
27542WAT      O82867   7.099   3.947   1.545
27542WAT     H182868   7.104   3.983   1.452
27542WAT     H282869   7.187   3.906   1.570
27543WAT      O82870   1.790   3.204   3.660
27543WAT     H182871   1.725   3.194   3.735
27543WAT     H282872   1.750   3.165   3.577
27544WAT      O82873   9.419   5.313   7.824
27544WAT     H182874   9.476   5.395   7.830
27544WAT     H282875   9.442   5.263   7.740
27545WAT      O82876   0.515   5.953   0.812
27545WAT     H182877   0.426   5.954   0.766
27545WAT     H282878   0.526   6.036   0.866
27546WAT      O82879   0.860   1.053   1.328
27546WAT     H182880   0.875   1.002   1.413
27546WAT     H282881   0.769   1.032   1.292
27547WAT      O82882   4.376   5.457   1.820
27547WAT     H182883   4.306   5.525   1.803
27547WAT     H282884   4.381   5.394   1.742
27548WAT      O82885   9.268   8.488   9.249
27548WAT     H182886   9.175   8.493   9.212
27548WAT     H282887   9.264   8.458   9.344
27549WAT      O82888   9.123   5.042   7.201
27549WAT     H182889   9.127   5.130   7.153
27549WAT     H282890   9.170   4.973   7.147
27550WAT      O82891   6.964   9.647   8.264
27550WAT     H182892   6.950   9.577   8.333
27550WAT     H282893   7.021   9.720   8.302
27551WAT      O82894   1.301   4.105   4.650
27551WAT     H182895   1.388   4.134   4.610
27551WAT     H282896   1.226   4.146   4.599
27552WAT      O82897   3.675   7.250   4.579
27552WAT     H182898   3.616   7.187   4.630
27552WAT     H282899   3.771   7.229   4.599
27553WAT      O82900   2.743   6.503   1.112
27553WAT     H182901   2.811   6.440   1.151
27553WAT     H282902   2.754   6.507   1.013
27554WAT      O82903   2.170   7.518   2.763
27554WAT     H182904   2.150   7.613   2.740
27554WAT     H282905   2.262   7.511   2.801
27555WAT      O82906   1.492   3.815   3.856
27555WAT     H182907   1.434   3.741   3.821
27555WAT     H282908   1.563   3.835   3.788
27556WAT      O82909   8.226   9.236   6.180
27556WAT     H182910   8.220   9.154   6.237
27556WAT     H282911   8.321   9.252   6.154
27557WAT      O82912   9.548   4.675   4.805
27557WAT     H182913   9.525   4.632   4.892
27557WAT     H282914   9.520   4.771   4.808
27558WAT      O82915   8.827   7.264   0.044
27558WAT     H182916   8.798   7.170   0.026
27558WAT     H282917   8.884   7.266   0.127
27559WAT      O82918   3.567   8.493   6.262
27559WAT     H182919   3.493   8.425   6.255
27559WAT     H282920   3.551   8.565   6.194
27560WAT      O82921   1.054   9.729   7.974
27560WAT     H182922   0.998   9.676   7.911
27560WAT     H282923   1.140   9.680   7.990
27561WAT      O82924   6.784   0.047   6.719
27561WAT     H182925   6.808   0.090   6.807
27561WAT     H282926   6.693   0.008   6.726
27562WAT      O82927   8.767   0.872   1.789
27562WAT     H182928   8.784   0.815   1.709
27562WAT     H282929   8.833   0.947   1.792
27563WAT      O82930   1.482   3.001   1.127
27563WAT     H182931   1.428   3.039   1.202
27563WAT     H282932   1.433   3.015   1.041
27564WAT      O82933   1.873   0.160   3.459
27564WAT     H182934   1.968   0.191   3.447
27564WAT     H282935   1.811   0.233   3.430
27565WAT      O82936   3.033   4.129   3.352
27565WAT     H182937   3.107   4.117   3.286
27565WAT     H282938   3.000   4.223   3.349
27566WAT      O82939   4.739   1.011   9.780
27566WAT     H182940   4.833   0.985   9.757
27566WAT     H282941   4.699   1.062   9.704
27567WAT      O82942   2.555   6.419   7.041
27567WAT     H182943   2.467   6.423   6.994
27567WAT     H282944   2.629   6.430   6.975
27568WAT      O82945   9.244   8.125   5.153
27568WAT     H182946   9.269   8.035   5.187
27568WAT     H282947   9.308   8.193   5.189
27569WAT      O82948   5.120   1.401   5.870
27569WAT     H182949   5.106   1.330   5.939
27569WAT     H282950   5.140   1.358   5.781
27570WAT      O82951   8.981   6.877   1.977
27570WAT     H182952   8.994   6.945   1.905
27570WAT     H282953   8.995   6.920   2.066
27571WAT      O82954   1.879   3.264   8.813
27571WAT     H182955   1.928   3.198   8.755
27571WAT     H282956   1.931   3.279   8.897
27572WAT      O82957   8.144   3.879   1.818
27572WAT     H182958   8.169   3.782   1.818
27572WAT     H282959   8.103   3.903   1.905
27573WAT      O82960   5.893   7.827   1.646
27573WAT     H182961   5.886   7.923   1.673
27573WAT     H282962   5.902   7.770   1.727
27574WAT      O82963   2.133   7.211   5.404
27574WAT     H182964   2.148   7.305   5.437
27574WAT     H282965   2.034   7.195   5.396
27575WAT      O82966   0.842   9.595   6.386
27575WAT     H182967   0.827   9.560   6.479
27575WAT     H282968   0.865   9.519   6.325
27576WAT      O82969   3.745   2.489   8.789
27576WAT     H182970   3.659   2.473   8.838
27576WAT     H282971   3.756   2.419   8.718
27577WAT      O82972   2.193   0.388   8.713
27577WAT     H182973   2.193   0.378   8.812
27577WAT     H282974   2.178   0.484   8.689
27578WAT      O82975   9.687   7.708   8.009
27578WAT     H182976   9.744   7.708   8.091
27578WAT     H282977   9.704   7.625   7.956
27579WAT      O82978   1.150   2.318   2.745
27579WAT     H182979   1.192   2.308   2.655
27579WAT     H282980   1.072   2.256   2.752
27580WAT      O82981   9.615   8.281   2.565
27580WAT     H182982   9.560   8.198   2.563
27580WAT     H282983   9.647   8.297   2.658
27581WAT      O82984   4.554   4.854   4.370
27581WAT     H182985   4.483   4.886   4.433
27581WAT     H282986   4.618   4.794   4.419
27582WAT      O82987   7.681   2.085   9.680
27582WAT     H182988   7.725   2.000   9.710
27582WAT     H282989   7.693   2.155   9.751
27583WAT      O82990   1.095   2.423   8.722
27583WAT     H182991   1.170   2.416   8.788
27583WAT     H282992   1.086   2.518   8.692
27584WAT      O82993   6.627   7.289   5.457
27584WAT     H182994   6.713   7.243   5.475
27584WAT     H282995   6.561   7.265   5.528
27585WAT      O82996   7.416   9.387   2.255
27585WAT     H182997   7.499   9.370   2.203
27585WAT     H282998   7.413   9.483   2.283
27586WAT      O82999   3.847   7.397   7.544
27586WAT     H183000   3.871   7.326   7.477
27586WAT     H283001   3.803   7.354   7.623
27587WAT      O83002   0.929   8.072   9.273
27587WAT     H183003   0.988   8.106   9.346
27587WAT     H283004   0.833   8.073   9.303
27588WAT      O83005   9.718   8.479   1.049
27588WAT     H183006   9.706   8.416   1.126
27588WAT     H283007   9.774   8.557   1.079
27589WAT      O83008   9.423   1.597   0.309
27589WAT     H183009   9.344   1.536   0.315
27589WAT     H283010   9.436   1.626   0.214
27590WAT      O83011   5.173   8.199   1.208
27590WAT     H183012   5.171   8.162   1.115
27590WAT     H283013   5.259   8.174   1.252
27591WAT      O83014   7.080   1.880   7.577
27591WAT     H183015   7.005   1.881   7.511
27591WAT     H283016   7.044   1.863   7.668
27592WAT      O83017   4.956   0.948   5.978
27592WAT     H183018   4.922   0.949   6.072
27592WAT     H283019   4.917   1.025   5.927
27593WAT      O83020   9.182   2.284   5.254
27593WAT     H183021   9.235   2.368   5.266
27593WAT     H283022   9.244   2.206   5.249
27594WAT      O83023   0.258   6.558   6.616
27594WAT     H183024   0.354   6.548   6.644
27594WAT     H283025   0.199   6.517   6.686
27595WAT      O83026   1.525   3.629   0.970
27595WAT     H183027   1.587   3.611   0.894
27595WAT     H283028   1.460   3.554   0.979
27596WAT      O83029   7.580   6.252   0.390
27596WAT     H183030   7.571   6.156   0.416
27596WAT     H283031   7.601   6.259   0.293
27597WAT      O83032   4.611   8.729   2.813
27597WAT     H183033   4.695   8.678   2.798
27597WAT     H283034   4.558   8.685   2.886
27598WAT      O83035   7.386   2.940   7.159
27598WAT     H183036   7.420   2.890   7.238
27598WAT     H283037   7.426   2.902   7.076
27599WAT      O83038   3.367   2.075   6.406
27599WAT     H183039   3.457   2.065   6.448
27599WAT     H283040   3.377   2.120   6.317
27600WAT      O83041   2.426   6.286   6.506
27600WAT     H183042   2.372   6.330   6.578
27600WAT     H283043   2.396   6.191   6.496
27601WAT      O83044   6.681   6.060   8.894
27601WAT     H183045   6.772   6.052   8.934
27601WAT     H283046   6.689   6.081   8.797
27602WAT      O83047   4.097   0.006   8.785
27602WAT     H183048   4.185   0.045   8.759
27602WAT     H283049   4.031   0.022   8.711
27603WAT      O83050   6.303   9.403   0.389
27603WAT     H183051   6.354   9.463   0.452
27603WAT     H283052   6.218   9.449   0.362
27604WAT      O83053   0.458   4.634   3.528
27604WAT     H183054   0.543   4.605   3.573
27604WAT     H283055   0.381   4.582   3.565
27605WAT      O83056   0.943   6.705   4.870
27605WAT     H183057   0.906   6.752   4.950
27605WAT     H283058   0.884   6.722   4.791
27606WAT      O83059   3.353   1.257   6.413
27606WAT     H183060   3.360   1.353   6.386
27606WAT     H283061   3.336   1.201   6.332
27607WAT      O83062   2.158   5.045   1.114
27607WAT     H183063   2.225   5.119   1.112
27607WAT     H283064   2.169   4.987   1.033
27608WAT      O83065   7.195   8.435   1.149
27608WAT     H183066   7.262   8.453   1.222
27608WAT     H283067   7.104   8.463   1.180
27609WAT      O83068   0.354   3.734   6.982
27609WAT     H183069   0.371   3.826   6.947
27609WAT     H283070   0.424   3.672   6.947
27610WAT      O83071   7.619   8.903   1.439
27610WAT     H183072   7.683   8.915   1.514
27610WAT     H283073   7.590   8.993   1.406
27611WAT      O83074   4.067   0.348   7.235
27611WAT     H183075   4.142   0.413   7.225
27611WAT     H283076   4.012   0.372   7.315
27612WAT      O83077   5.905   9.083   1.585
27612WAT     H183078   5.972   9.157   1.569
27612WAT     H283079   5.832   9.117   1.643
27613WAT      O83080   0.006   5.295   6.814
27613WAT     H183081  -0.061   5.359   6.851
27613WAT     H283082   0.098   5.333   6.825
27614WAT      O83083   6.864   0.816   5.314
27614WAT     H183084   6.864   0.856   5.406
27614WAT     H283085   6.894   0.721   5.319
27615WAT      O83086   3.431   2.654   9.478
27615WAT     H183087   3.528   2.667   9.454
27615WAT     H283088   3.374   2.675   9.399
27616WAT      O83089   7.948   5.290   9.828
27616WAT     H183090   7.901   5.345   9.759
27616WAT     H283091   8.017   5.345   9.874
27617WAT      O83092   3.427   4.903   6.913
27617WAT     H183093   3.388   4.862   6.996
27617WAT     H283094   3.524   4.922   6.928
27618WAT      O83095   6.149   1.596   5.902
27618WAT     H183096   6.151   1.542   5.986
27618WAT     H283097   6.193   1.684   5.918
27619WAT      O83098   4.909   0.796   2.728
27619WAT     H183099   4.981   0.762   2.667
27619WAT     H283100   4.895   0.894   2.712
27620WAT      O83101   2.983   4.524   2.299
27620WAT     H183102   2.964   4.461   2.224
27620WAT     H283103   2.935   4.494   2.382
27621WAT      O83104   3.866   2.661   5.801
27621WAT     H183105   3.965   2.657   5.817
27621WAT     H283106   3.848   2.645   5.704
27622WAT      O83107   3.492   6.553   0.695
27622WAT     H183108   3.396   6.581   0.698
27622WAT     H283109   3.531   6.559   0.787
27623WAT      O83110   9.513   9.167   7.914
27623WAT     H183111   9.567   9.172   7.830
27623WAT     H283112   9.574   9.159   7.993
27624WAT      O83113   3.936   3.562   4.351
27624WAT     H183114   3.994   3.613   4.288
27624WAT     H283115   3.952   3.464   4.339
27625WAT      O83116   1.777   7.735   6.674
27625WAT     H183117   1.877   7.735   6.678
27625WAT     H283118   1.746   7.809   6.615
27626WAT      O83119   2.394   8.268   9.160
27626WAT     H183120   2.460   8.246   9.089
27626WAT     H283121   2.429   8.238   9.249
27627WAT      O83122   0.898   6.388   2.087
27627WAT     H183123   0.853   6.473   2.059
27627WAT     H283124   0.968   6.409   2.156
27628WAT      O83125   9.554   5.983   7.313
27628WAT     H183126   9.554   6.075   7.274
27628WAT     H283127   9.490   5.925   7.262
27629WAT      O83128   8.865   1.219   4.924
27629WAT     H183129   8.958   1.225   4.889
27629WAT     H283130   8.848   1.127   4.959
27630WAT      O83131   1.051   5.995   5.441
27630WAT     H183132   0.975   6.039   5.490
27630WAT     H283133   1.020   5.969   5.349
27631WAT      O83134   5.894   4.494   2.238
27631WAT     H183135   5.873   4.491   2.336
27631WAT     H283136   5.944   4.578   2.217
27632WAT      O83137   9.616   4.544   0.992
27632WAT     H183138   9.706   4.562   0.953
27632WAT     H283139   9.555   4.620   0.973
27633WAT      O83140   3.926   6.264   5.538
27633WAT     H183141   3.843   6.213   5.512
27633WAT     H283142   3.957   6.318   5.460
27634WAT      O83143   4.256   2.402   2.000
27634WAT     H183144   4.219   2.316   1.964
27634WAT     H283145   4.256   2.400   2.100
27635WAT      O83146   3.548   7.420   8.453
27635WAT     H183147   3.462   7.422   8.504
27635WAT     H283148   3.530   7.395   8.358
27636WAT      O83149   7.808   3.204   8.944
27636WAT     H183150   7.740   3.165   9.005
27636WAT     H283151   7.855   3.131   8.894
27637WAT      O83152   5.086   2.057   7.551
27637WAT     H183153   5.038   2.145   7.553
27637WAT     H283154   5.163   2.063   7.487
27638WAT      O83155   4.485   6.553   5.459
27638WAT     H183156   4.513   6.470   5.507
27638WAT     H283157   4.561   6.585   5.402
27639WAT      O83158   2.167   8.708   2.244
27639WAT     H183159   2.241   8.657   2.200
27639WAT     H283160   2.082   8.656   2.235
27640WAT      O83161   2.586   9.572   1.159
27640WAT     H183162   2.652   9.624   1.105
27640WAT     H283163   2.493   9.591   1.127
27641WAT      O83164   2.070   7.133   9.028
27641WAT     H183165   2.085   7.116   9.126
27641WAT     H283166   2.054   7.230   9.013
27642WAT      O83167   6.036   5.311   4.297
27642WAT     H183168   6.054   5.281   4.203
27642WAT     H283169   5.939   5.299   4.317
27643WAT      O83170   6.902   9.685   7.288
27643WAT     H183171   6.889   9.780   7.259
27643WAT     H283172   6.813   9.640   7.295
27644WAT      O83173   2.674   4.739   3.339
27644WAT     H183174   2.610   4.782   3.402
27644WAT     H283175   2.723   4.809   3.287
27645WAT      O83176   7.762   6.002   8.229
27645WAT     H183177   7.773   6.092   8.272
27645WAT     H283178   7.797   5.931   8.290
27646WAT      O83179   4.074   5.854   9.003
27646WAT     H183180   4.123   5.895   9.079
27646WAT     H283181   3.979   5.883   9.004
27647WAT      O83182   6.478   3.071   8.571
27647WAT     H183183   6.557   3.130   8.557
27647WAT     H283184   6.469   3.008   8.494
27648WAT      O83185   9.657   2.125   0.125
27648WAT     H183186   9.645   2.075   0.210
27648WAT     H283187   9.738   2.183   0.131
27649WAT      O83188   3.168   5.099   1.436
27649WAT     H183189   3.169   5.040   1.355
27649WAT     H283190   3.167   5.195   1.407
27650WAT      O83191   6.924   2.943   5.008
27650WAT     H183192   6.947   3.014   5.074
27650WAT     H283193   6.979   2.954   4.925
27651WAT      O83194   5.247   0.990   0.427
27651WAT     H183195   5.252   0.991   0.327
27651WAT     H283196   5.319   1.047   0.465
27652WAT      O83197   0.875   8.924   8.820
27652WAT     H183198   0.788   8.885   8.789
27652WAT     H283199   0.905   8.995   8.756
27653WAT      O83200   6.092   2.090   5.144
27653WAT     H183201   6.008   2.141   5.162
27653WAT     H283202   6.091   2.005   5.196
27654WAT      O83203   2.635   7.722   4.796
27654WAT     H183204   2.574   7.795   4.767
27654WAT     H283205   2.654   7.661   4.719
27655WAT      O83206   0.252   4.665   1.820
27655WAT     H183207   0.303   4.617   1.748
27655WAT     H283208   0.252   4.763   1.801
27656WAT      O83209   1.119   1.782   7.699
27656WAT     H183210   1.150   1.875   7.677
27656WAT     H283211   1.144   1.760   7.793
27657WAT      O83212   5.489   1.412   0.311
27657WAT     H183213   5.481   1.318   0.344
27657WAT     H283214   5.398   1.454   0.306
27658WAT      O83215   5.959   2.584   8.040
27658WAT     H183216   5.993   2.610   8.130
27658WAT     H283217   6.021   2.516   7.999
27659WAT      O83218   3.283   9.533   3.797
27659WAT     H183219   3.283   9.586   3.882
27659WAT     H283220   3.330   9.446   3.813
27660WAT      O83221   8.761   8.580   8.909
27660WAT     H183222   8.691   8.651   8.915
27660WAT     H283223   8.717   8.491   8.895
27661WAT      O83224   0.186   7.140   3.093
27661WAT     H183225   0.237   7.067   3.046
27661WAT     H283226   0.156   7.107   3.182
27662WAT      O83227   2.718   5.392   4.500
27662WAT     H183228   2.625   5.425   4.516
27662WAT     H283229   2.714   5.300   4.462
27663WAT      O83230   2.724   7.392   7.326
27663WAT     H183231   2.764   7.303   7.303
27663WAT     H283232   2.775   7.465   7.279
27664WAT      O83233   2.902   4.829   5.261
27664WAT     H183234   2.835   4.870   5.323
27664WAT     H283235   2.928   4.739   5.294
27665WAT      O83236   7.602   7.760   5.720
27665WAT     H183237   7.635   7.826   5.788
27665WAT     H283238   7.679   7.703   5.689
27666WAT      O83239   4.880   4.315   1.612
27666WAT     H183240   4.950   4.364   1.559
27666WAT     H283241   4.806   4.378   1.636
27667WAT      O83242   9.860   9.733   0.084
27667WAT     H183243   9.800   9.727   0.004
27667WAT     H283244   9.950   9.766   0.055
27668WAT      O83245   3.347   3.639   1.238
27668WAT     H183246   3.257   3.682   1.229
27668WAT     H283247   3.409   3.677   1.169
27669WAT      O83248   8.767   2.268   3.454
27669WAT     H183249   8.680   2.245   3.411
27669WAT     H283250   8.786   2.365   3.442
27670WAT      O83251   8.599   3.459   8.384
27670WAT     H183252   8.616   3.546   8.338
27670WAT     H283253   8.668   3.393   8.357
27671WAT      O83254   0.554   8.059   6.491
27671WAT     H183255   0.474   8.033   6.438
27671WAT     H283256   0.575   7.987   6.557
27672WAT      O83257   8.924   5.797   8.200
27672WAT     H183258   8.896   5.708   8.163
27672WAT     H283259   9.002   5.831   8.149
27673WAT      O83260   3.808   0.948   6.498
27673WAT     H183261   3.823   0.861   6.451
27673WAT     H283262   3.711   0.958   6.518
27674WAT      O83263   3.668   8.804   3.077
27674WAT     H183264   3.656   8.853   3.163
27674WAT     H283265   3.707   8.713   3.095
27675WAT      O83266   4.032   4.956   7.368
27675WAT     H183267   3.934   4.958   7.384
27675WAT     H283268   4.070   4.871   7.405
27676WAT      O83269   9.064   9.324   8.870
27676WAT     H183270   9.058   9.362   8.778
27676WAT     H283271   9.124   9.244   8.869
27677WAT      O83272   4.704   2.765   2.598
27677WAT     H183273   4.756   2.831   2.544
27677WAT     H283274   4.763   2.688   2.623
27678WAT      O83275   4.597   1.707   1.750
27678WAT     H183276   4.675   1.660   1.709
27678WAT     H283277   4.512   1.665   1.718
27679WAT      O83278   8.274   4.084   8.655
27679WAT     H183279   8.260   4.122   8.564
27679WAT     H283280   8.361   4.118   8.693
27680WAT      O83281   1.511   3.658   7.255
27680WAT     H183282   1.611   3.656   7.255
27680WAT     H283283   1.479   3.744   7.293
27681WAT      O83284   2.337   8.954   7.731
27681WAT     H183285   2.405   8.987   7.666
27681WAT     H283286   2.289   9.032   7.772
27682WAT      O83287   3.563   5.623   1.901
27682WAT     H183288   3.611   5.576   1.826
27682WAT     H283289   3.607   5.711   1.919
27683WAT      O83290   2.486   0.070   7.125
27683WAT     H183291   2.421   0.109   7.191
27683WAT     H283292   2.518   0.142   7.063
27684WAT      O83293   0.616   7.081   0.409
27684WAT     H183294   0.678   7.033   0.472
27684WAT     H283295   0.670   7.135   0.344
27685WAT      O83296   4.111   2.317   8.686
27685WAT     H183297   4.188   2.375   8.711
27685WAT     H283298   4.068   2.353   8.603
27686WAT      O83299   9.567   8.374   9.832
27686WAT     H183300   9.560   8.467   9.868
27686WAT     H283301   9.571   8.377   9.732
27687WAT      O83302   4.628   5.256   6.047
27687WAT     H183303   4.685   5.307   5.983
27687WAT     H283304   4.572   5.190   5.997
27688WAT      O83305   2.151   4.637   1.078
27688WAT     H183306   2.197   4.584   1.006
27688WAT     H283307   2.053   4.620   1.075
27689WAT      O83308   0.806   6.412   8.526
27689WAT     H183309   0.846   6.374   8.443
27689WAT     H283310   0.723   6.462   8.503
27690WAT      O83311   0.201   8.923   9.138
27690WAT     H183312   0.185   8.939   9.040
27690WAT     H283313   0.218   8.826   9.153
27691WAT      O83314   0.825   2.818   3.920
27691WAT     H183315   0.777   2.820   3.832
27691WAT     H283316   0.838   2.912   3.953
27692WAT      O83317   1.553   5.933   5.482
27692WAT     H183318   1.482   5.936   5.412
27692WAT     H283319   1.570   6.025   5.517
27693WAT      O83320   1.349   5.731   2.823
27693WAT     H183321   1.295   5.815   2.830
27693WAT     H283322   1.294   5.653   2.850
27694WAT      O83323   1.851   6.570   2.923
27694WAT     H183324   1.873   6.566   2.826
27694WAT     H283325   1.840   6.477   2.958
27695WAT      O83326   7.723   4.717   9.634
27695WAT     H183327   7.820   4.714   9.609
27695WAT     H283328   7.691   4.624   9.651
27696WAT      O83329   6.367   3.948   9.138
27696WAT     H183330   6.315   3.863   9.148
27696WAT     H283331   6.306   4.020   9.104
27697WAT      O83332   5.554   0.204   9.344
27697WAT     H183333   5.512   0.131   9.398
27697WAT     H283334   5.538   0.187   9.247
27698WAT      O83335   1.736   0.187   6.514
27698WAT     H183336   1.715   0.094   6.544
27698WAT     H283337   1.834   0.196   6.500
27699WAT      O83338   4.567   5.183   3.295
27699WAT     H183339   4.603   5.140   3.377
27699WAT     H283340   4.511   5.117   3.244
27700WAT      O83341   0.922   2.115   5.007
27700WAT     H183342   0.835   2.140   5.050
27700WAT     H283343   0.960   2.034   5.053
27701WAT      O83344   0.569   2.069   1.469
27701WAT     H183345   0.574   2.069   1.569
27701WAT     H283346   0.596   1.979   1.435
27702WAT      O83347   3.541   0.327   8.084
27702WAT     H183348   3.602   0.377   8.022
27702WAT     H283349   3.450   0.369   8.080
27703WAT      O83350   7.595   9.077   1.092
27703WAT     H183351   7.583   9.143   1.167
27703WAT     H283352   7.509   9.028   1.077
27704WAT      O83353   0.085   5.829   6.805
27704WAT     H183354   0.105   5.788   6.894
27704WAT     H283355   0.170   5.859   6.762
27705WAT      O83356   9.051   6.570   7.878
27705WAT     H183357   9.084   6.479   7.851
27705WAT     H283358   9.100   6.601   7.959
27706WAT      O83359   2.744   3.949   7.050
27706WAT     H183360   2.788   3.864   7.021
27706WAT     H283361   2.811   4.023   7.052
27707WAT      O83362   2.502   9.106   7.293
27707WAT     H183363   2.595   9.118   7.258
27707WAT     H283364   2.439   9.164   7.241
27708WAT      O83365   0.121   6.077   0.547
27708WAT     H183366   0.161   6.158   0.505
27708WAT     H283367   0.077   6.102   0.633
27709WAT      O83368   1.826   8.064   0.246
27709WAT     H183369   1.818   8.037   0.150
27709WAT     H283370   1.847   8.161   0.252
27710WAT      O83371   3.409   7.292   2.064
27710WAT     H183372   3.365   7.354   1.998
27710WAT     H283373   3.356   7.291   2.149
27711WAT      O83374   8.532   3.908   2.053
27711WAT     H183375   8.485   3.876   2.137
27711WAT     H283376   8.537   4.007   2.054
27712WAT      O83377   4.077   8.650   8.857
27712WAT     H183378   4.055   8.716   8.784
27712WAT     H283379   3.997   8.594   8.875
27713WAT      O83380   4.932   6.970   2.387
27713WAT     H183381   5.030   6.952   2.374
27713WAT     H283382   4.879   6.910   2.328
27714WAT      O83383   9.806   4.174   3.068
27714WAT     H183384   9.841   4.121   3.145
27714WAT     H283385   9.882   4.202   3.009
27715WAT      O83386   1.348   5.503   6.910
27715WAT     H183387   1.421   5.479   6.845
27715WAT     H283388   1.260   5.473   6.873
27716WAT      O83389   4.907   0.701   1.837
27716WAT     H183390   4.887   0.693   1.935
27716WAT     H283391   4.974   0.631   1.811
27717WAT      O83392   0.662   6.114   3.493
27717WAT     H183393   0.595   6.149   3.427
27717WAT     H283394   0.626   6.124   3.586
27718WAT      O83395   1.166   5.355   3.109
27718WAT     H183396   1.200   5.284   3.170
27718WAT     H283397   1.075   5.384   3.139
27719WAT      O83398   7.634   7.401   2.901
27719WAT     H183399   7.549   7.409   2.952
27719WAT     H283400   7.676   7.492   2.891
27720WAT      O83401   2.871   9.119   4.326
27720WAT     H183402   2.947   9.117   4.392
27720WAT     H283403   2.907   9.131   4.234
27721WAT      O83404   1.045   0.918   4.828
27721WAT     H183405   1.111   0.907   4.754
27721WAT     H283406   0.986   0.996   4.809
27722WAT      O83407   5.528   8.958   2.991
27722WAT     H183408   5.481   8.952   2.903
27722WAT     H283409   5.537   8.867   3.031
27723WAT      O83410   8.052   3.568   7.158
27723WAT     H183411   8.150   3.586   7.147
27723WAT     H283412   8.040   3.475   7.194
27724WAT      O83413   2.448   2.584   0.118
27724WAT     H183414   2.494   2.527   0.186
27724WAT     H283415   2.494   2.672   0.110
27725WAT      O83416   2.773   4.061   7.739
27725WAT     H183417   2.854   4.022   7.782
27725WAT     H283418   2.691   4.018   7.777
27726WAT      O83419   3.657   1.929   1.472
27726WAT     H183420   3.709   2.009   1.501
27726WAT     H283421   3.665   1.857   1.541
27727WAT      O83422   8.992   4.531   5.037
27727WAT     H183423   8.994   4.529   4.937
27727WAT     H283424   9.035   4.449   5.073
27728WAT      O83425   8.063   9.604   9.708
27728WAT     H183426   7.984   9.634   9.761
27728WAT     H283427   8.111   9.532   9.759
27729WAT      O83428   5.687   9.218   1.020
27729WAT     H183429   5.733   9.212   1.109
27729WAT     H283430   5.615   9.288   1.025
27730WAT      O83431   9.575   2.559   3.922
27730WAT     H183432   9.516   2.627   3.878
27730WAT     H283433   9.646   2.530   3.858
27731WAT      O83434   7.211   4.786   5.643
27731WAT     H183435   7.253   4.704   5.602
27731WAT     H283436   7.242   4.867   5.594
27732WAT      O83437   5.742   3.901   0.047
27732WAT     H183438   5.714   3.884  -0.048
27732WAT     H283439   5.842   3.904   0.053
27733WAT      O83440   4.349   4.554   7.922
27733WAT     H183441   4.427   4.616   7.914
27733WAT     H283442   4.310   4.561   8.014
27734WAT      O83443   2.401   2.052   6.076
27734WAT     H183444   2.376   2.148   6.080
27734WAT     H283445   2.409   2.016   6.169
27735WAT      O83446   8.036   1.207   7.607
27735WAT     H183447   7.964   1.193   7.675
27735WAT     H283448   7.997   1.198   7.516
27736WAT      O83449   5.917   6.528   8.282
27736WAT     H183450   5.933   6.456   8.350
27736WAT     H283451   5.855   6.494   8.211
27737WAT      O83452   0.652   9.027   7.373
27737WAT     H183453   0.590   8.959   7.332
27737WAT     H283454   0.609   9.117   7.371
27738WAT      O83455   6.907   6.241   5.883
27738WAT     H183456   6.885   6.293   5.966
27738WAT     H283457   6.906   6.303   5.804
27739WAT      O83458   7.548   6.392   9.055
27739WAT     H183459   7.498   6.477   9.069
27739WAT     H283460   7.484   6.315   9.059
27740WAT      O83461   9.101   3.954   5.277
27740WAT     H183462   9.104   3.865   5.322
27740WAT     H283463   9.110   4.027   5.345
27741WAT      O83464   1.263   2.781   8.207
27741WAT     H183465   1.245   2.878   8.190
27741WAT     H283466   1.177   2.734   8.225
27742WAT      O83467   9.636   1.894   5.447
27742WAT     H183468   9.556   1.940   5.485
27742WAT     H283469   9.708   1.889   5.516
27743WAT      O83470   1.019   2.248   3.730
27743WAT     H183471   1.096   2.253   3.667
27743WAT     H283472   0.949   2.314   3.703
27744WAT      O83473   0.002   6.033   2.759
27744WAT     H183474   0.066   5.994   2.693
27744WAT     H283475   0.016   5.989   2.848
27745WAT      O83476   5.949   0.530   7.409
27745WAT     H183477   5.885   0.520   7.333
27745WAT     H283478   5.956   0.627   7.434
27746WAT      O83479   0.395   3.069   5.407
27746WAT     H183480   0.324   3.018   5.357
27746WAT     H283481   0.407   3.029   5.497
27747WAT      O83482   1.766   7.474   3.569
27747WAT     H183483   1.773   7.568   3.536
27747WAT     H283484   1.679   7.435   3.539
27748WAT      O83485   6.737   4.984   1.454
27748WAT     H183486   6.686   5.068   1.434
27748WAT     H283487   6.719   4.916   1.384
27749WAT      O83488   3.031   2.489   7.534
27749WAT     H183489   2.994   2.397   7.520
27749WAT     H283490   2.985   2.554   7.473
27750WAT      O83491   2.340   0.076   0.590
27750WAT     H183492   2.381   0.167   0.585
27750WAT     H283493   2.320   0.053   0.685
27751WAT      O83494   5.679   5.392   3.642
27751WAT     H183495   5.607   5.395   3.711
27751WAT     H283496   5.638   5.398   3.551
27752WAT      O83497   8.999   5.054   0.437
27752WAT     H183498   9.045   5.125   0.491
27752WAT     H283499   8.935   5.003   0.495
27753WAT      O83500   1.203   6.533   9.698
27753WAT     H183501   1.152   6.495   9.621
27753WAT     H283502   1.141   6.545   9.776
27754WAT      O83503   1.521   8.538   3.922
27754WAT     H183504   1.522   8.452   3.974
27754WAT     H283505   1.428   8.556   3.890
27755WAT      O83506   9.548   9.761   0.258
27755WAT     H183507   9.565   9.843   0.203
27755WAT     H283508   9.523   9.685   0.199
27756WAT      O83509   4.526   5.120   8.860
27756WAT     H183510   4.499   5.042   8.917
27756WAT     H283511   4.452   5.142   8.797
27757WAT      O83512   8.518   0.522   6.382
27757WAT     H183513   8.613   0.492   6.392
27757WAT     H283514   8.509   0.573   6.296
27758WAT      O83515   4.059   7.767   6.912
27758WAT     H183516   4.077   7.726   7.001
27758WAT     H283517   3.972   7.732   6.876
27759WAT      O83518   3.460   8.044   1.466
27759WAT     H183519   3.543   8.065   1.518
27759WAT     H283520   3.428   8.126   1.418
27760WAT      O83521   8.075   3.312   0.642
27760WAT     H183522   8.045   3.407   0.650
27760WAT     H283523   8.137   3.304   0.564
27761WAT      O83524   4.191   0.948   8.715
27761WAT     H183525   4.214   1.001   8.633
27761WAT     H283526   4.137   1.005   8.777
27762WAT      O83527   1.717   8.045   5.013
27762WAT     H183528   1.803   8.018   5.057
27762WAT     H283529   1.734   8.117   4.947
27763WAT      O83530   3.762   6.483   4.153
27763WAT     H183531   3.804   6.419   4.088
27763WAT     H283532   3.677   6.519   4.114
27764WAT      O83533   9.760   7.398   6.906
27764WAT     H183534   9.683   7.385   6.843
27764WAT     H283535   9.845   7.372   6.861
27765WAT      O83536   6.870   6.547   4.370
27765WAT     H183537   6.835   6.565   4.462
27765WAT     H283538   6.800   6.569   4.302
27766WAT      O83539   7.633   7.639   4.051
27766WAT     H183540   7.630   7.725   4.000
27766WAT     H283541   7.684   7.571   3.999
27767WAT      O83542   2.197   8.952   3.447
27767WAT     H183543   2.215   8.898   3.365
27767WAT     H283544   2.180   9.047   3.420
27768WAT      O83545   1.468   1.654   1.246
27768WAT     H183546   1.535   1.642   1.319
27768WAT     H283547   1.502   1.723   1.181
27769WAT      O83548   5.191   1.502   5.218
27769WAT     H183549   5.271   1.442   5.208
27769WAT     H283550   5.221   1.592   5.247
27770WAT      O83551   8.429   8.347   6.796
27770WAT     H183552   8.416   8.423   6.732
27770WAT     H283553   8.375   8.364   6.879
27771WAT      O83554   8.195   1.983   3.306
27771WAT     H183555   8.243   1.974   3.394
27771WAT     H283556   8.262   2.002   3.234
27772WAT      O83557   0.364   2.094   6.031
27772WAT     H183558   0.280   2.136   6.067
27772WAT     H283559   0.346   2.059   5.939
27773WAT      O83560   6.295   5.017   7.542
27773WAT     H183561   6.358   4.963   7.600
27773WAT     H283562   6.318   5.003   7.446
27774WAT      O83563   9.582   4.618   7.893
27774WAT     H183564   9.619   4.615   7.986
27774WAT     H283565   9.626   4.691   7.842
27775WAT      O83566   2.369   0.380   6.732
27775WAT     H183567   2.405   0.468   6.763
27775WAT     H283568   2.334   0.390   6.639
27776WAT      O83569   8.281   7.798   7.853
27776WAT     H183570   8.342   7.862   7.900
27776WAT     H283571   8.201   7.847   7.820
27777WAT      O83572   1.600   4.312   5.598
27777WAT     H183573   1.616   4.214   5.614
27777WAT     H283574   1.664   4.364   5.655
27778WAT      O83575   0.998   3.645   0.751
27778WAT     H183576   1.084   3.595   0.743
27778WAT     H283577   0.932   3.590   0.803
27779WAT      O83578   5.420   2.869   2.412
27779WAT     H183579   5.499   2.862   2.473
27779WAT     H283580   5.341   2.825   2.455
27780WAT      O83581   4.029   3.906   1.259
27780WAT     H183582   4.023   3.932   1.356
27780WAT     H283583   3.947   3.936   1.212
27781WAT      O83584   1.952   3.144   4.370
27781WAT     H183585   2.014   3.142   4.448
27781WAT     H283586   1.858   3.144   4.402
27782WAT      O83587   3.376   2.332   9.336
27782WAT     H183588   3.286   2.352   9.374
27782WAT     H283589   3.421   2.418   9.310
27783WAT      O83590   6.910   0.378   0.786
27783WAT     H183591   6.828   0.434   0.787
27783WAT     H283592   6.981   0.424   0.731
27784WAT      O83593   2.486   6.349   3.397
27784WAT     H183594   2.559   6.289   3.365
27784WAT     H283595   2.430   6.300   3.464
27785WAT      O83596   1.058   4.642   9.188
27785WAT     H183597   1.155   4.626   9.171
27785WAT     H283598   1.048   4.700   9.270
27786WAT      O83599   7.252   2.261   6.083
27786WAT     H183600   7.209   2.180   6.121
27786WAT     H283601   7.351   2.249   6.081
27787WAT      O83602   4.449   6.896   4.123
27787WAT     H183603   4.455   6.977   4.065
27787WAT     H283604   4.513   6.826   4.090
27788WAT      O83605   2.104   4.278   1.612
27788WAT     H183606   2.147   4.292   1.702
27788WAT     H283607   2.154   4.330   1.543
27789WAT      O83608   9.659   5.701   6.108
27789WAT     H183609   9.636   5.672   6.201
27789WAT     H283610   9.732   5.770   6.112
27790WAT      O83611   6.347   3.441   5.889
27790WAT     H183612   6.333   3.525   5.941
27790WAT     H283613   6.437   3.403   5.911
27791WAT      O83614   5.753   4.594   1.209
27791WAT     H183615   5.741   4.509   1.261
27791WAT     H283616   5.804   4.660   1.265
27792WAT      O83617   9.052   7.121   2.435
27792WAT     H183618   8.989   7.124   2.512
27792WAT     H283619   9.062   7.212   2.396
27793WAT      O83620   4.730   9.826   6.622
27793WAT     H183621   4.805   9.766   6.591
27793WAT     H283622   4.664   9.772   6.674
27794WAT      O83623   3.917   1.278   0.724
27794WAT     H183624   3.914   1.294   0.823
27794WAT     H283625   4.013   1.275   0.694
27795WAT      O83626   6.438   7.169   1.143
27795WAT     H183627   6.537   7.166   1.158
27795WAT     H283628   6.402   7.257   1.174
27796WAT      O83629   6.949   3.533   0.691
27796WAT     H183630   6.967   3.626   0.724
27796WAT     H283631   6.858   3.504   0.720
27797WAT      O83632   8.116   4.303   2.052
27797WAT     H183633   8.180   4.307   2.129
27797WAT     H283634   8.165   4.275   1.969
27798WAT      O83635   0.948   0.097   8.420
27798WAT     H183636   0.892   0.054   8.350
27798WAT     H283637   1.013   0.031   8.457
27799WAT      O83638   8.018   9.767   3.815
27799WAT     H183639   8.026   9.857   3.773
27799WAT     H283640   7.967   9.706   3.753
27800WAT      O83641   5.075   6.953   6.586
27800WAT     H183642   5.174   6.962   6.586
27800WAT     H283643   5.049   6.860   6.561
27801WAT      O83644   7.402   0.388   6.701
27801WAT     H183645   7.492   0.411   6.739
27801WAT     H283646   7.353   0.472   6.679
27802WAT      O83647   4.219   4.662   0.209
27802WAT     H183648   4.124   4.693   0.210
27802WAT     H283649   4.227   4.578   0.264
27803WAT      O83650   2.178   8.264   2.888
27803WAT     H183651   2.090   8.237   2.927
27803WAT     H283652   2.249   8.257   2.958
27804WAT      O83653   9.745   8.046   6.785
27804WAT     H183654   9.727   8.114   6.855
27804WAT     H283655   9.799   7.972   6.824
27805WAT      O83656   8.890   4.079   5.871
27805WAT     H183657   8.822   4.062   5.800
27805WAT     H283658   8.980   4.047   5.839
27806WAT      O83659   8.907   8.854   9.745
27806WAT     H183660   8.861   8.858   9.656
27806WAT     H283661   8.987   8.794   9.738
27807WAT      O83662   1.673   6.995   7.312
27807WAT     H183663   1.740   7.052   7.266
27807WAT     H283664   1.635   7.044   7.391
27808WAT      O83665   0.124   7.967   6.171
27808WAT     H183666   0.161   7.901   6.106
27808WAT     H283667   0.053   8.022   6.126
27809WAT      O83668   3.822   5.454   5.751
27809WAT     H183669   3.762   5.517   5.800
27809WAT     H283670   3.902   5.504   5.717
27810WAT      O83671   9.060   6.350   6.784
27810WAT     H183672   8.963   6.372   6.780
27810WAT     H283673   9.082   6.310   6.873
27811WAT      O83674   1.293   0.055   6.332
27811WAT     H183675   1.205   0.097   6.307
27811WAT     H283676   1.367   0.118   6.309
27812WAT      O83677   2.574   2.341   0.844
27812WAT     H183678   2.603   2.383   0.759
27812WAT     H283679   2.560   2.243   0.830
27813WAT      O83680   8.018   8.955   5.958
27813WAT     H183681   8.021   8.858   5.935
27813WAT     H283682   7.925   8.980   5.986
27814WAT      O83683   9.105   7.835   2.256
27814WAT     H183684   9.157   7.887   2.188
27814WAT     H283685   9.054   7.898   2.314
27815WAT      O83686   1.892   5.033   4.445
27815WAT     H183687   1.909   5.120   4.490
27815WAT     H283688   1.885   5.047   4.347
27816WAT      O83689   1.480   3.214   5.947
27816WAT     H183690   1.579   3.205   5.942
27816WAT     H283691   1.439   3.169   5.867
27817WAT      O83692   1.303   3.845   3.513
27817WAT     H183693   1.238   3.808   3.579
27817WAT     H283694   1.394   3.807   3.532
27818WAT      O83695   3.960   1.192   4.094
27818WAT     H183696   3.867   1.227   4.103
27818WAT     H283697   3.960   1.118   4.027
27819WAT      O83698   8.106   3.240   6.373
27819WAT     H183699   8.096   3.141   6.364
27819WAT     H283700   8.025   3.278   6.417
27820WAT      O83701   6.050   3.693   2.695
27820WAT     H183702   5.973   3.729   2.748
27820WAT     H283703   6.065   3.597   2.718
27821WAT      O83704   3.811   1.006   0.392
27821WAT     H183705   3.908   1.023   0.376
27821WAT     H283706   3.800   0.952   0.476
27822WAT      O83707   6.641   3.883   3.192
27822WAT     H183708   6.628   3.784   3.200
27822WAT     H283709   6.560   3.924   3.148
27823WAT      O83710   2.993   0.587   8.427
27823WAT     H183711   3.090   0.603   8.447
27823WAT     H283712   2.978   0.490   8.411
27824WAT      O83713   7.956   4.434   6.628
27824WAT     H183714   8.032   4.435   6.563
27824WAT     H283715   7.982   4.381   6.708
27825WAT      O83716   1.908   7.315   8.823
27825WAT     H183717   1.990   7.327   8.768
27825WAT     H283718   1.906   7.384   8.895
27826WAT      O83719   5.505   4.574   8.318
27826WAT     H183720   5.423   4.573   8.260
27826WAT     H283721   5.480   4.547   8.411
27827WAT      O83722   6.210   5.225   9.473
27827WAT     H183723   6.179   5.130   9.464
27827WAT     H283724   6.266   5.234   9.555
27828WAT      O83725   9.749   4.929   9.573
27828WAT     H183726   9.716   4.835   9.577
27828WAT     H283727   9.732   4.966   9.481
27829WAT      O83728   2.047   8.839   1.452
27829WAT     H183729   2.028   8.929   1.491
27829WAT     H283730   2.045   8.844   1.352
27830WAT      O83731   7.158   3.703   4.415
27830WAT     H183732   7.176   3.616   4.368
27830WAT     H283733   7.066   3.701   4.455
27831WAT      O83734   4.178   3.885   8.718
27831WAT     H183735   4.127   3.941   8.784
27831WAT     H283736   4.240   3.824   8.767
27832WAT      O83737   4.561   4.292   9.084
27832WAT     H183738   4.520   4.308   9.174
27832WAT     H283739   4.608   4.375   9.053
27833WAT      O83740   8.931   6.408   9.176
27833WAT     H183741   8.935   6.420   9.275
27833WAT     H283742   9.003   6.462   9.133
27834WAT      O83743   8.323   5.914   9.887
27834WAT     H183744   8.233   5.909   9.844
27834WAT     H283745   8.382   5.973   9.833
27835WAT      O83746   9.277   8.461   5.566
27835WAT     H183747   9.197   8.408   5.540
27835WAT     H283748   9.324   8.495   5.484
27836WAT      O83749   5.810   3.230   4.575
27836WAT     H183750   5.772   3.223   4.667
27836WAT     H283751   5.757   3.295   4.522
27837WAT      O83752   2.764   3.567   4.171
27837WAT     H183753   2.838   3.614   4.123
27837WAT     H283754   2.696   3.634   4.202
27838WAT      O83755   5.974   6.011   3.302
27838WAT     H183756   5.953   6.006   3.205
27838WAT     H283757   5.921   5.942   3.352
27839WAT      O83758   9.325   2.442   2.320
27839WAT     H183759   9.364   2.527   2.357
27839WAT     H283760   9.238   2.464   2.275
27840WAT      O83761   3.492   6.543   4.040
27840WAT     H183762   3.453   6.565   4.129
27840WAT     H283763   3.430   6.573   3.968
27841WAT      O83764   5.759   5.980   0.688
27841WAT     H183765   5.719   5.935   0.607
27841WAT     H283766   5.858   5.979   0.680
27842WAT      O83767   4.416   6.888   0.735
27842WAT     H183768   4.465   6.835   0.666
27842WAT     H283769   4.393   6.978   0.698
27843WAT      O83770   4.044   7.740   8.374
27843WAT     H183771   4.055   7.694   8.286
27843WAT     H283772   4.113   7.812   8.382
27844WAT      O83773   4.991   8.067   6.976
27844WAT     H183774   4.896   8.037   6.973
27844WAT     H283775   4.995   8.160   7.014
27845WAT      O83776   7.861   8.537   0.950
27845WAT     H183777   7.881   8.453   0.900
27845WAT     H283778   7.808   8.598   0.891
27846WAT      O83779   8.623   4.281   5.289
27846WAT     H183780   8.662   4.326   5.209
27846WAT     H283781   8.616   4.183   5.272
27847WAT      O83782   8.935   7.018   6.390
27847WAT     H183783   8.891   7.071   6.463
27847WAT     H283784   9.015   6.971   6.427
27848WAT      O83785   5.379   5.931   3.997
27848WAT     H183786   5.355   5.864   4.066
27848WAT     H283787   5.478   5.927   3.980
27849WAT      O83788   4.023   0.444   8.919
27849WAT     H183789   3.938   0.486   8.950
27849WAT     H283790   4.016   0.345   8.925
27850WAT      O83791   6.063   1.024   0.406
27850WAT     H183792   6.099   0.940   0.445
27850WAT     H283793   5.999   1.067   0.470
27851WAT      O83794   6.378   2.737   9.793
27851WAT     H183795   6.395   2.785   9.707
27851WAT     H283796   6.412   2.793   9.869
27852WAT      O83797   7.280   6.580   1.807
27852WAT     H183798   7.193   6.561   1.853
27852WAT     H283799   7.269   6.659   1.747
27853WAT      O83800   5.206   5.689   2.065
27853WAT     H183801   5.220   5.780   2.026
27853WAT     H283802   5.272   5.673   2.138
27854WAT      O83803   0.184   8.685   3.064
27854WAT     H183804   0.183   8.649   3.157
27854WAT     H283805   0.260   8.644   3.013
27855WAT      O83806   3.112   2.708   1.538
27855WAT     H183807   3.112   2.807   1.555
27855WAT     H283808   3.180   2.686   1.468
27856WAT      O83809   8.535   6.647   1.873
27856WAT     H183810   8.486   6.700   1.804
27856WAT     H283811   8.583   6.572   1.828
27857WAT      O83812   8.251   7.208   7.828
27857WAT     H183813   8.154   7.232   7.817
27857WAT     H283814   8.307   7.288   7.811
27858WAT      O83815   2.355   6.755   3.616
27858WAT     H183816   2.453   6.761   3.635
27858WAT     H283817   2.304   6.767   3.701
27859WAT      O83818   3.784   5.281   1.618
27859WAT     H183819   3.841   5.200   1.625
27859WAT     H283820   3.786   5.331   1.704
27860WAT      O83821   5.422   1.282   8.800
27860WAT     H183822   5.347   1.239   8.851
27860WAT     H283823   5.495   1.214   8.785
27861WAT      O83824   9.201   0.170   4.538
27861WAT     H183825   9.287   0.208   4.572
27861WAT     H283826   9.137   0.245   4.520
27862WAT      O83827   6.691   7.557   9.132
27862WAT     H183828   6.774   7.504   9.143
27862WAT     H283829   6.612   7.503   9.162
27863WAT      O83830   1.393   8.644   6.146
27863WAT     H183831   1.363   8.693   6.065
27863WAT     H283832   1.314   8.621   6.203
27864WAT      O83833   3.117   3.496   0.143
27864WAT     H183834   3.029   3.537   0.166
27864WAT     H283835   3.184   3.519   0.214
27865WAT      O83836   9.134   6.050   6.453
27865WAT     H183837   9.087   5.974   6.409
27865WAT     H283838   9.222   6.066   6.408
27866WAT      O83839   8.074   3.763   6.820
27866WAT     H183840   8.120   3.769   6.909
27866WAT     H283841   8.124   3.818   6.753
27867WAT      O83842   7.807   5.478   1.634
27867WAT     H183843   7.713   5.445   1.638
27867WAT     H283844   7.868   5.402   1.609
27868WAT      O83845   6.515   8.677   1.563
27868WAT     H183846   6.435   8.619   1.579
27868WAT     H283847   6.587   8.623   1.518
27869WAT      O83848   4.741   7.842   5.196
27869WAT     H183849   4.793   7.907   5.141
27869WAT     H283850   4.743   7.870   5.292
27870WAT      O83851   7.662   2.039   3.836
27870WAT     H183852   7.678   2.024   3.934
27870WAT     H283853   7.564   2.032   3.817
27871WAT      O83854   8.265   0.021   5.124
27871WAT     H183855   8.207   0.064   5.194
27871WAT     H283856   8.263  -0.078   5.135
27872WAT      O83857   3.305   3.484   0.347
27872WAT     H183858   3.277   3.389   0.363
27872WAT     H283859   3.396   3.499   0.386
27873WAT      O83860   0.078   3.906   6.855
27873WAT     H183861   0.143   3.977   6.826
27873WAT     H283862  -0.015   3.937   6.837
27874WAT      O83863   2.801   7.978   1.639
27874WAT     H183864   2.896   7.988   1.669
27874WAT     H283865   2.781   8.047   1.569
27875WAT      O83866   3.760   0.337   1.154
27875WAT     H183867   3.855   0.328   1.183
27875WAT     H283868   3.734   0.434   1.154
27876WAT      O83869   4.499   2.881   0.158
27876WAT     H183870   4.541   2.790   0.169
27876WAT     H283871   4.558   2.949   0.202
27877WAT      O83872   4.067   4.113   7.339
27877WAT     H183873   4.055   4.042   7.409
27877WAT     H283874   4.165   4.125   7.321
27878WAT      O83875   4.765   0.491   7.674
27878WAT     H183876   4.698   0.419   7.655
27878WAT     H283877   4.751   0.526   7.766
27879WAT      O83878   3.315   5.093   1.678
27879WAT     H183879   3.259   5.044   1.744
27879WAT     H283880   3.269   5.096   1.590
27880WAT      O83881   3.055   7.410   7.068
27880WAT     H183882   3.000   7.418   6.985
27880WAT     H283883   3.118   7.487   7.074
27881WAT      O83884   3.280   5.342   2.554
27881WAT     H183885   3.334   5.278   2.498
27881WAT     H283886   3.221   5.396   2.496
27882WAT      O83887   2.598   4.668   5.188
27882WAT     H183888   2.669   4.722   5.142
27882WAT     H283889   2.579   4.586   5.134
27883WAT      O83890   2.552   9.000   9.291
27883WAT     H183891   2.515   9.090   9.270
27883WAT     H283892   2.511   8.932   9.230
27884WAT      O83893   9.870   0.606   3.164
27884WAT     H183894   9.909   0.694   3.139
27884WAT     H283895   9.942   0.536   3.162
27885WAT      O83896   0.109   8.687   0.384
27885WAT     H183897   0.064   8.634   0.313
27885WAT     H283898   0.120   8.631   0.466
27886WAT      O83899   0.526   2.222   8.024
27886WAT     H183900   0.559   2.170   7.945
27886WAT     H283901   0.433   2.254   8.007
27887WAT      O83902   5.267   3.464   5.251
27887WAT     H183903   5.356   3.483   5.292
27887WAT     H283904   5.256   3.365   5.238
27888WAT      O83905   0.107   9.255   6.458
27888WAT     H183906   0.048   9.236   6.379
27888WAT     H283907   0.186   9.308   6.428
27889WAT      O83908   8.712   1.017   2.652
27889WAT     H183909   8.741   0.933   2.699
27889WAT     H283910   8.766   1.028   2.569
27890WAT      O83911   3.426   7.668   0.829
27890WAT     H183912   3.473   7.604   0.891
27890WAT     H283913   3.490   7.697   0.758
27891WAT      O83914   3.286   8.927   6.958
27891WAT     H183915   3.306   8.885   6.870
27891WAT     H283916   3.372   8.947   7.006
27892WAT      O83917   1.377   0.905   8.115
27892WAT     H183918   1.291   0.952   8.095
27892WAT     H283919   1.358   0.812   8.148
27893WAT      O83920   9.368   4.503   7.780
27893WAT     H183921   9.450   4.550   7.813
27893WAT     H283922   9.287   4.544   7.822
27894WAT      O83923   2.600   5.915   3.890
27894WAT     H183924   2.650   5.994   3.927
27894WAT     H283925   2.658   5.865   3.827
27895WAT      O83926   6.226   0.866   2.899
27895WAT     H183927   6.167   0.834   2.825
27895WAT     H283928   6.301   0.801   2.912
27896WAT      O83929   6.358   6.998   8.447
27896WAT     H183930   6.429   7.055   8.406
27896WAT     H283931   6.399   6.938   8.516
27897WAT      O83932   7.686   3.822   7.766
27897WAT     H183933   7.606   3.764   7.782
27897WAT     H283934   7.729   3.844   7.854
27898WAT      O83935   8.937   7.021   3.290
27898WAT     H183936   8.856   7.077   3.307
27898WAT     H283937   8.998   7.027   3.369
27899WAT      O83938   3.637   6.348   9.148
27899WAT     H183939   3.736   6.337   9.139
27899WAT     H283940   3.594   6.332   9.059
27900WAT      O83941   6.150   3.879   0.623
27900WAT     H183942   6.242   3.839   0.618
27900WAT     H283943   6.151   3.969   0.579
27901WAT      O83944   4.559   5.725   9.578
27901WAT     H183945   4.563   5.628   9.552
27901WAT     H283946   4.650   5.766   9.566
27902WAT      O83947   6.324   9.743   9.882
27902WAT     H183948   6.341   9.650   9.848
27902WAT     H283949   6.230   9.770   9.860
27903WAT      O83950   6.836   1.880   1.239
27903WAT     H183951   6.750   1.829   1.241
27903WAT     H283952   6.849   1.921   1.149
27904WAT      O83953   1.786   0.474   9.525
27904WAT     H183954   1.774   0.555   9.582
27904WAT     H283955   1.697   0.441   9.495
27905WAT      O83956   0.560   7.590   3.275
27905WAT     H183957   0.476   7.606   3.225
27905WAT     H283958   0.601   7.677   3.302
27906WAT      O83959   4.465   9.462   4.469
27906WAT     H183960   4.476   9.397   4.394
27906WAT     H283961   4.436   9.412   4.551
27907WAT      O83962   1.999   3.918   2.167
27907WAT     H183963   2.064   3.938   2.240
27907WAT     H283964   2.048   3.879   2.089
27908WAT      O83965   9.231   0.984   6.607
27908WAT     H183966   9.205   0.891   6.632
27908WAT     H283967   9.297   1.019   6.673
27909WAT      O83968   6.184   8.107   7.323
27909WAT     H183969   6.106   8.156   7.283
27909WAT     H283970   6.181   8.115   7.423
27910WAT      O83971   1.257   5.493   6.364
27910WAT     H183972   1.260   5.567   6.430
27910WAT     H283973   1.229   5.408   6.409
27911WAT      O83974   2.858   2.607   0.207
27911WAT     H183975   2.771   2.567   0.237
27911WAT     H283976   2.881   2.684   0.265
27912WAT      O83977   6.119   4.807   1.132
27912WAT     H183978   6.198   4.746   1.123
27912WAT     H283979   6.148   4.901   1.114
27913WAT      O83980   0.810   6.360   7.175
27913WAT     H183981   0.818   6.263   7.149
27913WAT     H283982   0.746   6.368   7.252
27914WAT      O83983   0.709   3.930   0.111
27914WAT     H183984   0.735   3.948   0.016
27914WAT     H283985   0.789   3.900   0.163
27915WAT      O83986   6.610   5.292   6.381
27915WAT     H183987   6.679   5.365   6.384
27915WAT     H283988   6.522   5.330   6.352
27916WAT      O83989   4.479   7.060   6.173
27916WAT     H183990   4.448   7.001   6.248
27916WAT     H283991   4.439   7.150   6.183
27917WAT      O83992   5.430   8.726   6.679
27917WAT     H183993   5.351   8.677   6.714
27917WAT     H283994   5.514   8.679   6.707
27918WAT      O83995   5.642   5.714   3.090
27918WAT     H183996   5.740   5.731   3.093
27918WAT     H283997   5.610   5.715   2.995
27919WAT      O83998   2.617   5.745   7.151
27919WAT     H183999   2.545   5.813   7.136
27919WAT     H284000   2.706   5.789   7.146
27920WAT      O84001   2.435   4.550   6.177
27920WAT     H184002   2.493   4.472   6.154
27920WAT     H284003   2.474   4.634   6.138
27921WAT      O84004   3.188   2.484   2.737
27921WAT     H184005   3.279   2.525   2.740
27921WAT     H284006   3.196   2.386   2.759
27922WAT      O84007   1.612   5.093   8.984
27922WAT     H184008   1.538   5.154   9.012
27922WAT     H284009   1.694   5.112   9.038
27923WAT      O84010   8.639   6.882   4.275
27923WAT     H184011   8.668   6.827   4.353
27923WAT     H284012   8.702   6.959   4.264
27924WAT      O84013   5.516   9.657   9.698
27924WAT     H184014   5.545   9.716   9.622
27924WAT     H284015   5.424   9.683   9.727
27925WAT      O84016   1.060   6.049   5.967
27925WAT     H184017   1.083   6.132   6.018
27925WAT     H284018   1.144   6.000   5.943
27926WAT      O84019   6.575   4.759   6.695
27926WAT     H184020   6.492   4.814   6.691
27926WAT     H284021   6.652   4.813   6.661
27927WAT      O84022   9.499   3.231   5.167
27927WAT     H184023   9.580   3.181   5.136
27927WAT     H284024   9.477   3.302   5.101
27928WAT      O84025   4.624   3.567   3.159
27928WAT     H184026   4.682   3.496   3.119
27928WAT     H284027   4.669   3.605   3.240
27929WAT      O84028   1.992   7.484   0.800
27929WAT     H184029   1.969   7.533   0.883
27929WAT     H284030   1.918   7.493   0.734
27930WAT      O84031   0.883   4.484   5.473
27930WAT     H184032   0.918   4.576   5.484
27930WAT     H284033   0.785   4.488   5.452
27931WAT      O84034   8.311   9.201   7.904
27931WAT     H184035   8.276   9.291   7.879
27931WAT     H284036   8.253   9.130   7.863
27932WAT      O84037   9.066   2.184   1.012
27932WAT     H184038   9.120   2.192   1.096
27932WAT     H284039   9.014   2.099   1.014
27933WAT      O84040   0.762   3.362   6.189
27933WAT     H184041   0.861   3.349   6.193
27933WAT     H284042   0.717   3.273   6.185
27934WAT      O84043   2.665   7.227   5.108
27934WAT     H184044   2.753   7.181   5.115
27934WAT     H284045   2.634   7.225   5.013
27935WAT      O84046   4.155   1.082   9.822
27935WAT     H184047   4.123   1.041   9.908
27935WAT     H284048   4.096   1.160   9.798
27936WAT      O84049   2.258   2.406   2.838
27936WAT     H184050   2.330   2.385   2.772
27936WAT     H284051   2.208   2.322   2.860
27937WAT      O84052   1.867   2.898   6.865
27937WAT     H184053   1.871   2.928   6.770
27937WAT     H284054   1.920   2.960   6.922
27938WAT      O84055   9.584   8.450   6.659
27938WAT     H184056   9.517   8.431   6.588
27938WAT     H284057   9.611   8.365   6.703
27939WAT      O84058   6.545   4.697   4.129
27939WAT     H184059   6.555   4.794   4.149
27939WAT     H284060   6.449   4.676   4.112
27940WAT      O84061   3.735   3.652   7.125
27940WAT     H184062   3.773   3.729   7.176
27940WAT     H284063   3.640   3.673   7.100
27941WAT      O84064   7.903   9.608   8.693
27941WAT     H184065   7.867   9.661   8.616
27941WAT     H284066   7.998   9.582   8.675
27942WAT      O84067   3.430  -0.003   8.813
27942WAT     H184068   3.521   0.024   8.842
27942WAT     H284069   3.364   0.068   8.839
27943WAT      O84070   0.093   9.703   7.095
27943WAT     H184071   0.183   9.661   7.108
27943WAT     H284072   0.053   9.671   7.009
27944WAT      O84073   5.762   3.540   0.603
27944WAT     H184074   5.713   3.453   0.593
27944WAT     H284075   5.777   3.558   0.700
27945WAT      O84076   7.939   4.339   5.841
27945WAT     H184077   7.966   4.400   5.767
27945WAT     H284078   7.964   4.380   5.929
27946WAT      O84079   6.523   6.962   2.882
27946WAT     H184080   6.601   6.941   2.940
27946WAT     H284081   6.523   6.902   2.802
27947WAT      O84082   3.789   7.697   9.267
27947WAT     H184083   3.727   7.719   9.191
27947WAT     H284084   3.772   7.603   9.296
27948WAT      O84085   0.835   1.754   9.519
27948WAT     H184086   0.870   1.793   9.433
27948WAT     H284087   0.909   1.706   9.566
27949WAT      O84088   0.773   6.414   3.656
27949WAT     H184089   0.745   6.509   3.670
27949WAT     H284090   0.721   6.375   3.580
27950WAT      O84091   3.638   6.090   6.766
27950WAT     H184092   3.576   6.031   6.818
27950WAT     H284093   3.730   6.052   6.770
27951WAT      O84094   3.730   5.452   5.280
27951WAT     H184095   3.829   5.454   5.286
27951WAT     H284096   3.699   5.510   5.204
27952WAT      O84097   7.214   7.551   4.030
27952WAT     H184098   7.260   7.508   3.953
27952WAT     H284099   7.281   7.575   4.100
27953WAT      O84100   0.060   1.872   1.959
27953WAT     H184101   0.068   1.869   1.859
27953WAT     H284102   0.146   1.906   1.998
27954WAT      O84103   5.871   2.717   8.487
27954WAT     H184104   5.825   2.631   8.508
27954WAT     H284105   5.803   2.783   8.455
27955WAT      O84106   0.609   5.252   8.644
27955WAT     H184107   0.607   5.206   8.733
27955WAT     H284108   0.573   5.191   8.574
27956WAT      O84109   3.578   9.636   5.955
27956WAT     H184110   3.510   9.658   5.885
27956WAT     H284111   3.573   9.539   5.978
27957WAT      O84112   1.215   6.984   5.458
27957WAT     H184113   1.218   6.955   5.554
27957WAT     H284114   1.305   7.014   5.429
27958WAT      O84115   3.079   0.151   5.682
27958WAT     H184116   3.054   0.165   5.777
27958WAT     H284117   3.052   0.058   5.654
27959WAT      O84118   7.552   5.187   7.843
27959WAT     H184119   7.631   5.241   7.817
27959WAT     H284120   7.581   5.113   7.904
27960WAT      O84121   4.424   3.630   5.887
27960WAT     H184122   4.414   3.674   5.977
27960WAT     H284123   4.355   3.557   5.878
27961WAT      O84124   2.385   9.783   6.313
27961WAT     H184125   2.371   9.878   6.343
27961WAT     H284126   2.298   9.734   6.316
27962WAT      O84127   1.947   7.433   3.754
27962WAT     H184128   1.930   7.366   3.826
27962WAT     H284129   1.882   7.420   3.679
27963WAT      O84130   3.525   0.614   6.549
27963WAT     H184131   3.620   0.623   6.581
27963WAT     H284132   3.485   0.705   6.539
27964WAT      O84133   2.061   4.780   7.405
27964WAT     H184134   2.027   4.777   7.499
27964WAT     H284135   2.140   4.719   7.396
27965WAT      O84136   7.897   2.064   3.681
27965WAT     H184137   7.899   2.148   3.626
27965WAT     H284138   7.814   2.064   3.737
27966WAT      O84139   6.501   9.349   0.197
27966WAT     H184140   6.583   9.365   0.251
27966WAT     H284141   6.420   9.367   0.253
27967WAT      O84142   9.232   6.900   9.861
27967WAT     H184143   9.303   6.831   9.879
27967WAT     H284144   9.235   6.927   9.765
27968WAT      O84145   1.409   9.455   0.815
27968WAT     H184146   1.370   9.477   0.725
27968WAT     H284147   1.469   9.529   0.844
27969WAT      O84148   9.446   9.275   6.295
27969WAT     H184149   9.484   9.193   6.338
27969WAT     H284150   9.511   9.310   6.228
27970WAT      O84151   6.466   7.230   3.562
27970WAT     H184152   6.474   7.298   3.489
27970WAT     H284153   6.547   7.172   3.562
27971WAT      O84154   7.039   4.053   0.410
27971WAT     H184155   7.013   4.130   0.351
27971WAT     H284156   7.124   4.074   0.457
27972WAT      O84157   6.010   1.230   6.297
27972WAT     H184158   6.040   1.135   6.283
27972WAT     H284159   5.930   1.248   6.241
27973WAT      O84160   2.238   0.735   7.834
27973WAT     H184161   2.221   0.727   7.932
27973WAT     H284162   2.296   0.659   7.804
27974WAT      O84163   8.167   3.931   1.151
27974WAT     H184164   8.228   3.998   1.109
27974WAT     H284165   8.102   3.897   1.083
27975WAT      O84166   0.486   8.296   5.642
27975WAT     H184167   0.563   8.329   5.697
27975WAT     H284168   0.452   8.210   5.681
27976WAT      O84169   6.598   1.642   4.842
27976WAT     H184170   6.584   1.605   4.933
27976WAT     H284171   6.607   1.742   4.848
27977WAT      O84172   1.345   8.141   6.250
27977WAT     H184173   1.280   8.217   6.239
27977WAT     H284174   1.303   8.056   6.217
27978WAT      O84175   2.064   6.063   2.975
27978WAT     H184176   2.010   5.995   3.026
27978WAT     H284177   2.130   6.106   3.037
27979WAT      O84178   5.172   3.688   8.256
27979WAT     H184179   5.105   3.725   8.191
27979WAT     H284180   5.127   3.621   8.315
27980WAT      O84181   8.126   2.344   7.580
27980WAT     H184182   8.051   2.290   7.541
27980WAT     H284183   8.096   2.386   7.666
27981WAT      O84184   3.406   1.948   3.461
27981WAT     H184185   3.345   2.003   3.404
27981WAT     H284186   3.497   1.990   3.462
27982WAT      O84187   9.490   1.624   5.468
27982WAT     H184188   9.412   1.636   5.406
27982WAT     H284189   9.551   1.703   5.460
27983WAT      O84190   7.742   8.649   4.250
27983WAT     H184191   7.685   8.619   4.173
27983WAT     H284192   7.816   8.707   4.217
27984WAT      O84193   5.810   0.175   7.196
27984WAT     H184194   5.791   0.076   7.198
27984WAT     H284195   5.886   0.192   7.134
27985WAT      O84196   4.615   6.209   3.030
27985WAT     H184197   4.707   6.242   3.011
27985WAT     H284198   4.621   6.126   3.086
27986WAT      O84199   5.406   0.324   8.037
27986WAT     H184200   5.420   0.296   8.131
27986WAT     H284201   5.307   0.331   8.019
27987WAT      O84202   5.043   3.112   2.452
27987WAT     H184203   4.966   3.050   2.464
27987WAT     H284204   5.010   3.206   2.444
27988WAT      O84205   3.844   2.613   5.550
27988WAT     H184206   3.820   2.703   5.513
27988WAT     H284207   3.796   2.542   5.499
27989WAT      O84208   9.654   7.327   8.136
27989WAT     H184209   9.565   7.370   8.152
27989WAT     H284210   9.682   7.344   8.041
27990WAT      O84211   0.322   1.482   4.215
27990WAT     H184212   0.362   1.392   4.197
27990WAT     H284213   0.366   1.523   4.295
27991WAT      O84214   5.892   2.331   3.033
27991WAT     H184215   5.906   2.332   2.934
27991WAT     H284216   5.979   2.312   3.079
27992WAT      O84217   8.025   3.680   7.437
27992WAT     H184218   8.079   3.643   7.361
27992WAT     H284219   7.998   3.774   7.416
27993WAT      O84220   3.672   1.916   5.212
27993WAT     H184221   3.685   1.831   5.263
27993WAT     H284222   3.612   1.899   5.134
27994WAT      O84223   9.096   0.745   8.877
27994WAT     H184224   9.004   0.779   8.893
27994WAT     H284225   9.108   0.725   8.779
27995WAT      O84226   0.516   7.807   7.398
27995WAT     H184227   0.569   7.755   7.465
27995WAT     H284228   0.466   7.880   7.445
27996WAT      O84229   3.830   3.005   0.412
27996WAT     H184230   3.854   2.941   0.339
27996WAT     H284231   3.913   3.049   0.447
27997WAT      O84232   2.683   3.307   2.159
27997WAT     H184233   2.588   3.305   2.193
27997WAT     H284234   2.690   3.373   2.084
27998WAT      O84235   4.504   6.044   1.294
27998WAT     H184236   4.435   5.981   1.328
27998WAT     H284237   4.461   6.112   1.235
27999WAT      O84238   4.646   4.013   5.313
27999WAT     H184239   4.733   4.041   5.272
27999WAT     H284240   4.635   3.914   5.305
28000WAT      O84241   2.737   2.848   4.972
28000WAT     H184242   2.822   2.897   4.991
28000WAT     H284243   2.759   2.758   4.934
28001WAT      O84244   4.658   4.567   0.284
28001WAT     H184245   4.741   4.517   0.260
28001WAT     H284246   4.603   4.513   0.348
28002WAT      O84247   4.843   0.034   0.686
28002WAT     H184248   4.870   0.082   0.769
28002WAT     H284249   4.794   0.098   0.626
28003WAT      O84250   7.614   5.373   9.521
28003WAT     H184251   7.600   5.418   9.432
28003WAT     H284252   7.672   5.293   9.509
28004WAT      O84253   1.112   7.812   7.051
28004WAT     H184254   1.159   7.866   7.120
28004WAT     H284255   1.130   7.850   6.961
28005WAT      O84256   0.049   3.401   6.770
28005WAT     H184257  -0.039   3.449   6.772
28005WAT     H284258   0.101   3.425   6.852
28006WAT      O84259   2.978   7.562   3.573
28006WAT     H184260   2.976   7.662   3.582
28006WAT     H284261   3.052   7.536   3.512
28007WAT      O84262   7.511   4.776   3.369
28007WAT     H184263   7.441   4.824   3.315
28007WAT     H284264   7.529   4.687   3.328
28008WAT      O84265   8.187   4.460   8.380
28008WAT     H184266   8.281   4.493   8.393
28008WAT     H284267   8.148   4.500   8.297
28009WAT      O84268   7.675   0.589   9.720
28009WAT     H184269   7.601   0.587   9.653
28009WAT     H284270   7.637   0.596   9.812
28010WAT      O84271   1.989   8.450   6.008
28010WAT     H184272   2.072   8.398   6.031
28010WAT     H284273   1.908   8.393   6.025
28011WAT      O84274   0.098   8.091   9.077
28011WAT     H184275   0.036   8.030   9.026
28011WAT     H284276   0.189   8.086   9.037
28012WAT      O84277   8.734   1.637   7.098
28012WAT     H184278   8.738   1.578   7.018
28012WAT     H284279   8.685   1.591   7.172
28013WAT      O84280   5.903   7.964   8.278
28013WAT     H184281   5.898   7.870   8.310
28013WAT     H284282   5.814   8.009   8.289
28014WAT      O84283   7.822   6.774   2.643
28014WAT     H184284   7.912   6.733   2.661
28014WAT     H284285   7.824   6.870   2.671
28015WAT      O84286   2.760   7.117   8.219
28015WAT     H184287   2.715   7.039   8.176
28015WAT     H284288   2.706   7.148   8.297
28016WAT      O84289   8.703   9.360   3.857
28016WAT     H184290   8.679   9.364   3.954
28016WAT     H284291   8.645   9.293   3.811
28017WAT      O84292   7.332   6.522   2.725
28017WAT     H184293   7.426   6.516   2.757
28017WAT     H284294   7.326   6.491   2.630
28018WAT      O84295   0.182   0.692   0.123
28018WAT     H184296   0.114   0.647   0.180
28018WAT     H284297   0.138   0.731   0.042
28019WAT      O84298   6.915   8.225   0.699
28019WAT     H184299   6.958   8.237   0.788
28019WAT     H284300   6.816   8.234   0.708
28020WAT      O84301   5.020   7.005   0.630
28020WAT     H184302   5.058   7.036   0.717
28020WAT     H284303   4.926   6.976   0.643
28021WAT      O84304   0.256   0.119   1.855
28021WAT     H184305   0.352   0.125   1.884
28021WAT     H284306   0.245   0.161   1.765
28022WAT      O84307   1.710   6.304   0.017
28022WAT     H184308   1.697   6.216  -0.028
28022WAT     H284309   1.737   6.290   0.112
28023WAT      O84310   9.159   5.528   2.071
28023WAT     H184311   9.166   5.432   2.096
28023WAT     H284312   9.231   5.550   2.005
28024WAT      O84313   3.771   9.828   1.130
28024WAT     H184314   3.839   9.881   1.079
28024WAT     H284315   3.810   9.796   1.216
28025WAT      O84316   1.290   8.484   5.609
28025WAT     H184317   1.218   8.417   5.625
28025WAT     H284318   1.264   8.572   5.651
28026WAT      O84319   9.163   6.870   8.467
28026WAT     H184320   9.210   6.843   8.383
28026WAT     H284321   9.221   6.848   8.546
28027WAT      O84322   3.235   1.136   1.806
28027WAT     H184323   3.314   1.136   1.868
28027WAT     H284324   3.151   1.129   1.860
28028WAT      O84325   3.129   5.047   2.361
28028WAT     H184326   3.082   5.074   2.445
28028WAT     H284327   3.102   5.108   2.286
28029WAT      O84328   2.247   2.978   2.920
28029WAT     H184329   2.255   3.069   2.878
28029WAT     H284330   2.156   2.967   2.960
28030WAT      O84331   5.474   4.373   2.826
28030WAT     H184332   5.495   4.297   2.888
28030WAT     H284333   5.534   4.450   2.847
28031WAT      O84334   7.974   9.595   6.367
28031WAT     H184335   8.063   9.599   6.320
28031WAT     H284336   7.939   9.502   6.365
28032WAT      O84337   9.709   0.110   6.875
28032WAT     H184338   9.787   0.172   6.884
28032WAT     H284339   9.719   0.056   6.792
28033WAT      O84340   0.475   9.278   1.279
28033WAT     H184341   0.440   9.210   1.344
28033WAT     H284342   0.540   9.338   1.326
28034WAT      O84343   5.685   8.890   1.894
28034WAT     H184344   5.694   8.858   1.988
28034WAT     H284345   5.612   8.839   1.848
28035WAT      O84346   4.073   8.615   2.614
28035WAT     H184347   4.146   8.650   2.673
28035WAT     H284348   4.044   8.525   2.648
28036WAT      O84349   1.373   0.445   8.370
28036WAT     H184350   1.352   0.347   8.379
28036WAT     H284351   1.471   0.456   8.356
28037WAT      O84352   4.447   1.081   3.019
28037WAT     H184353   4.526   1.121   2.971
28037WAT     H284354   4.461   0.982   3.029
28038WAT      O84355   2.874   8.361   1.249
28038WAT     H184356   2.953   8.352   1.188
28038WAT     H284357   2.825   8.445   1.229
28039WAT      O84358   4.246   8.121   3.201
28039WAT     H184359   4.271   8.121   3.298
28039WAT     H284360   4.205   8.210   3.177
28040WAT      O84361   9.462   2.946   8.766
28040WAT     H184362   9.424   3.024   8.716
28040WAT     H284363   9.524   2.979   8.838
28041WAT      O84364   5.401   0.182   2.215
28041WAT     H184365   5.438   0.275   2.222
28041WAT     H284366   5.426   0.143   2.127
28042WAT      O84367   5.860   0.276   4.106
28042WAT     H184368   5.848   0.213   4.183
28042WAT     H284369   5.846   0.370   4.138
28043WAT      O84370   6.458   9.600   5.539
28043WAT     H184371   6.382   9.537   5.524
28043WAT     H284372   6.497   9.628   5.451
28044WAT      O84373   5.845   4.266   1.566
28044WAT     H184374   5.942   4.264   1.543
28044WAT     H284375   5.815   4.174   1.592
28045WAT      O84376   6.940   2.537   2.244
28045WAT     H184377   6.945   2.439   2.258
28045WAT     H284378   6.886   2.557   2.162
28046WAT      O84379   4.720   7.259   3.332
28046WAT     H184380   4.676   7.303   3.410
28046WAT     H284381   4.745   7.165   3.356
28047WAT      O84382   8.004   8.566   8.858
28047WAT     H184383   8.035   8.643   8.803
28047WAT     H284384   8.037   8.481   8.817
28048WAT      O84385   5.294   0.866   2.287
28048WAT     H184386   5.216   0.861   2.225
28048WAT     H284387   5.352   0.944   2.263
28049WAT      O84388   9.450   3.529   0.302
28049WAT     H184389   9.421   3.452   0.246
28049WAT     H284390   9.406   3.525   0.391
28050WAT      O84391   9.478   5.177   7.616
28050WAT     H184392   9.530   5.252   7.576
28050WAT     H284393   9.392   5.166   7.568
28051WAT      O84394   2.546   9.524   0.502
28051WAT     H184395   2.620   9.462   0.475
28051WAT     H284396   2.563   9.558   0.594
28052WAT      O84397   1.667   4.324   8.933
28052WAT     H184398   1.719   4.279   8.861
28052WAT     H284399   1.641   4.416   8.903
28053WAT      O84400   8.818   4.144   4.168
28053WAT     H184401   8.783   4.073   4.106
28053WAT     H284402   8.741   4.188   4.215
28054WAT      O84403   9.361   3.037   5.884
28054WAT     H184404   9.340   2.939   5.887
28054WAT     H284405   9.353   3.070   5.790
28055WAT      O84406   8.707   5.449   1.353
28055WAT     H184407   8.734   5.528   1.407
28055WAT     H284408   8.612   5.425   1.374
28056WAT      O84409   7.360   1.286   2.628
28056WAT     H184410   7.457   1.263   2.639
28056WAT     H284411   7.306   1.235   2.695
28057WAT      O84412   2.100   1.769   9.344
28057WAT     H184413   2.040   1.832   9.392
28057WAT     H284414   2.147   1.817   9.269
28058WAT      O84415   0.742   3.594   4.295
28058WAT     H184416   0.793   3.581   4.210
28058WAT     H284417   0.776   3.675   4.343
28059WAT      O84418   5.438   1.818   2.090
28059WAT     H184419   5.487   1.732   2.076
28059WAT     H284420   5.389   1.843   2.006
28060WAT      O84421   8.117   4.010   1.565
28060WAT     H184422   8.158   3.929   1.523
28060WAT     H284423   8.088   3.987   1.658
28061WAT      O84424   7.018   2.209   7.594
28061WAT     H184425   7.026   2.235   7.498
28061WAT     H284426   7.052   2.116   7.607
28062WAT      O84427   3.228   5.276   8.678
28062WAT     H184428   3.195   5.369   8.692
28062WAT     H284429   3.254   5.264   8.582
28063WAT      O84430   1.960   2.900   8.351
28063WAT     H184431   1.944   2.829   8.283
28063WAT     H284432   2.040   2.877   8.406
28064WAT      O84433   6.799   7.924   7.950
28064WAT     H184434   6.722   7.860   7.958
28064WAT     H284435   6.797   7.988   8.027
28065WAT      O84436   0.124   9.154   4.279
28065WAT     H184437   0.055   9.099   4.232
28065WAT     H284438   0.084   9.242   4.306
28066WAT      O84439   6.414   1.983   5.599
28066WAT     H184440   6.482   2.053   5.621
28066WAT     H284441   6.451   1.892   5.617
28067WAT      O84442   2.360   1.906   8.134
28067WAT     H184443   2.450   1.942   8.158
28067WAT     H284444   2.368   1.812   8.103
28068WAT      O84445   3.503   7.723   9.150
28068WAT     H184446   3.454   7.651   9.102
28068WAT     H284447   3.454   7.810   9.139
28069WAT      O84448   6.762   3.908   0.017
28069WAT     H184449   6.694   3.981   0.015
28069WAT     H284450   6.851   3.946   0.042
28070WAT      O84451   5.426   3.671   7.329
28070WAT     H184452   5.407   3.577   7.358
28070WAT     H284453   5.432   3.730   7.409
28071WAT      O84454   1.949   0.754   2.874
28071WAT     H184455   2.028   0.775   2.932
28071WAT     H284456   1.980   0.707   2.792
28072WAT      O84457   1.943   3.138   0.793
28072WAT     H184458   2.038   3.106   0.799
28072WAT     H284459   1.918   3.182   0.879
28073WAT      O84460   1.196   0.529   4.412
28073WAT     H184461   1.169   0.599   4.346
28073WAT     H284462   1.124   0.518   4.480
28074WAT      O84463   2.922   2.261   9.853
28074WAT     H184464   2.974   2.179   9.828
28074WAT     H284465   2.962   2.303   9.934
28075WAT      O84466   6.142   8.046   3.398
28075WAT     H184467   6.061   8.006   3.355
28075WAT     H284468   6.139   8.145   3.389
28076WAT      O84469   3.720   9.510   9.013
28076WAT     H184470   3.793   9.575   8.997
28076WAT     H284471   3.636   9.559   9.039
28077WAT      O84472   1.683   7.490   8.978
28077WAT     H184473   1.637   7.402   8.979
28077WAT     H284474   1.704   7.517   9.072
28078WAT      O84475   0.253   6.121   4.318
28078WAT     H184476   0.309   6.182   4.374
28078WAT     H284477   0.265   6.145   4.221
28079WAT      O84478   4.113   2.089   5.046
28079WAT     H184479   4.043   2.142   4.998
28079WAT     H284480   4.097   2.094   5.145
28080WAT      O84481   6.185   3.400   5.023
28080WAT     H184482   6.267   3.455   5.038
28080WAT     H284483   6.167   3.344   5.104
28081WAT      O84484   6.230   2.762   5.512
28081WAT     H184485   6.236   2.833   5.441
28081WAT     H284486   6.275   2.679   5.480
28082WAT      O84487   4.502   7.983   9.723
28082WAT     H184488   4.594   7.996   9.687
28082WAT     H284489   4.501   8.002   9.821
28083WAT      O84490   4.872   6.324   7.482
28083WAT     H184491   4.800   6.336   7.550
28083WAT     H284492   4.961   6.323   7.528
28084WAT      O84493   2.174   9.522   9.890
28084WAT     H184494   2.156   9.447   9.826
28084WAT     H284495   2.111   9.515   9.968
28085WAT      O84496   2.856   0.208   9.063
28085WAT     H184497   2.931   0.241   9.120
28085WAT     H284498   2.770   0.244   9.098
28086WAT      O84499   0.963   5.491   1.362
28086WAT     H184500   0.923   5.454   1.446
28086WAT     H284501   1.009   5.418   1.312
28087WAT      O84502   6.974   4.869   3.420
28087WAT     H184503   7.048   4.891   3.483
28087WAT     H284504   7.011   4.825   3.339
28088WAT      O84505   5.069   0.681   6.569
28088WAT     H184506   5.123   0.764   6.560
28088WAT     H284507   5.100   0.629   6.648
28089WAT      O84508   7.302   7.559   3.510
28089WAT     H184509   7.334   7.652   3.530
28089WAT     H284510   7.377   7.505   3.473
28090WAT      O84511   7.201   8.220   9.758
28090WAT     H184512   7.201   8.293   9.827
28090WAT     H284513   7.157   8.254   9.675
28091WAT      O84514   3.598   3.796   9.386
28091WAT     H184515   3.574   3.708   9.427
28091WAT     H284516   3.622   3.861   9.458
28092WAT      O84517   2.561   6.649   4.686
28092WAT     H184518   2.637   6.712   4.696
28092WAT     H284519   2.475   6.698   4.698
28093WAT      O84520   0.921   9.140   4.028
28093WAT     H184521   1.020   9.151   4.024
28093WAT     H284522   0.887   9.175   4.115
28094WAT      O84523   2.970   6.530   8.049
28094WAT     H184524   2.928   6.474   7.977
28094WAT     H284525   3.008   6.613   8.009
28095WAT      O84526   2.035   1.423   7.909
28095WAT     H184527   1.935   1.417   7.913
28095WAT     H284528   2.075   1.357   7.973
28096WAT      O84529   5.666   3.022   8.686
28096WAT     H184530   5.704   3.074   8.763
28096WAT     H284531   5.668   3.078   8.604
28097WAT      O84532   8.541   6.067   8.499
28097WAT     H184533   8.541   6.167   8.510
28097WAT     H284534   8.632   6.031   8.520
28098WAT      O84535   1.390   4.581   4.197
28098WAT     H184536   1.344   4.542   4.117
28098WAT     H284537   1.424   4.673   4.175
28099WAT      O84538   6.666   9.106   6.645
28099WAT     H184539   6.730   9.104   6.722
28099WAT     H284540   6.685   9.029   6.585
28100WAT      O84541   1.111   5.520   5.546
28100WAT     H184542   1.186   5.577   5.512
28100WAT     H284543   1.132   5.490   5.639
28101WAT      O84544   4.754   4.106   3.725
28101WAT     H184545   4.853   4.118   3.731
28101WAT     H284546   4.712   4.131   3.812
28102WAT      O84547   8.996   5.666   8.762
28102WAT     H184548   8.986   5.567   8.777
28102WAT     H284549   8.981   5.687   8.666
28103WAT      O84550   2.262   2.814   1.497
28103WAT     H184551   2.339   2.857   1.449
28103WAT     H284552   2.292   2.786   1.588
28104WAT      O84553   0.391   4.121   6.540
28104WAT     H184554   0.440   4.038   6.513
28104WAT     H284555   0.437   4.200   6.501
28105WAT      O84556   7.731   5.662   6.848
28105WAT     H184557   7.763   5.749   6.810
28105WAT     H284558   7.793   5.632   6.920
28106WAT      O84559   2.153   9.467   8.373
28106WAT     H184560   2.224   9.411   8.330
28106WAT     H284561   2.075   9.409   8.397
28107WAT      O84562   2.107   8.142   7.776
28107WAT     H184563   2.184   8.098   7.822
28107WAT     H284564   2.067   8.212   7.836
28108WAT      O84565   3.536   8.370   2.640
28108WAT     H184566   3.618   8.423   2.659
28108WAT     H284567   3.497   8.399   2.553
28109WAT      O84568   4.992   3.845   4.944
28109WAT     H184569   5.036   3.902   5.014
28109WAT     H284570   4.968   3.757   4.985
28110WAT      O84571   9.623   6.356   0.363
28110WAT     H184572   9.565   6.427   0.323
28110WAT     H284573   9.568   6.297   0.422
28111WAT      O84574   1.132   1.444   5.980
28111WAT     H184575   1.126   1.392   5.895
28111WAT     H284576   1.216   1.498   5.981
28112WAT      O84577   9.031   6.071   3.768
28112WAT     H184578   9.123   6.054   3.734
28112WAT     H284579   8.976   6.113   3.696
28113WAT      O84580   9.257   6.106   7.883
28113WAT     H184581   9.331   6.115   7.816
28113WAT     H284582   9.181   6.166   7.858
28114WAT      O84583   5.076   2.517   7.430
28114WAT     H184584   5.143   2.562   7.490
28114WAT     H284585   5.123   2.481   7.350
28115WAT      O84586   2.826   9.296   9.081
28115WAT     H184587   2.803   9.263   9.172
28115WAT     H284588   2.855   9.219   9.024
28116WAT      O84589   0.808   0.864   4.613
28116WAT     H184590   0.748   0.935   4.575
28116WAT     H284591   0.883   0.845   4.549
28117WAT      O84592   9.051   7.448   9.126
28117WAT     H184593   8.958   7.427   9.095
28117WAT     H284594   9.104   7.484   9.049
28118WAT      O84595   2.082   9.642   5.419
28118WAT     H184596   2.118   9.572   5.482
28118WAT     H284597   1.990   9.616   5.391
28119WAT      O84598   4.784   2.847   4.362
28119WAT     H184599   4.852   2.884   4.425
28119WAT     H284600   4.777   2.905   4.281
28120WAT      O84601   3.915   0.461   6.276
28120WAT     H184602   3.865   0.411   6.347
28120WAT     H284603   3.952   0.397   6.210
28121WAT      O84604   4.579   4.275   0.962
28121WAT     H184605   4.600   4.353   1.021
28121WAT     H284606   4.658   4.213   0.960
28122WAT      O84607   4.850   9.367   7.719
28122WAT     H184608   4.898   9.305   7.658
28122WAT     H284609   4.803   9.437   7.665
28123WAT      O84610   6.029   4.380   7.281
28123WAT     H184611   6.118   4.336   7.264
28123WAT     H284612   6.044   4.473   7.316
28124WAT      O84613   2.344   6.372   7.795
28124WAT     H184614   2.308   6.303   7.858
28124WAT     H284615   2.409   6.430   7.843
28125WAT      O84616   2.093   2.483   1.386
28125WAT     H184617   2.048   2.402   1.424
28125WAT     H284618   2.104   2.473   1.287
28126WAT      O84619   6.241   7.099   3.514
28126WAT     H184620   6.190   7.113   3.599
28126WAT     H284621   6.333   7.137   3.524
28127WAT      O84622   8.464   9.106   0.679
28127WAT     H184623   8.513   9.095   0.593
28127WAT     H284624   8.513   9.171   0.738
28128WAT      O84625   5.248   1.029   0.122
28128WAT     H184626   5.203   1.096   0.064
28128WAT     H284627   5.244   0.939   0.078
28129WAT      O84628   6.716   9.600   3.984
28129WAT     H184629   6.688   9.554   3.900
28129WAT     H284630   6.636   9.643   4.026
28130WAT      O84631   0.915   1.277   9.259
28130WAT     H184632   0.938   1.212   9.186
28130WAT     H284633   0.853   1.233   9.324
28131WAT      O84634   0.793   9.681   3.009
28131WAT     H184635   0.736   9.690   3.090
28131WAT     H284636   0.736   9.657   2.930
28132WAT      O84637   0.958   7.510   8.631
28132WAT     H184638   1.054   7.509   8.656
28132WAT     H284639   0.944   7.573   8.554
28133WAT      O84640   1.334   3.455   7.374
28133WAT     H184641   1.393   3.530   7.345
28133WAT     H284642   1.378   3.405   7.449
28134WAT      O84643   3.617   4.783   8.275
28134WAT     H184644   3.553   4.860   8.269
28134WAT     H284645   3.710   4.817   8.290
28135WAT      O84646   5.954   5.212   9.012
28135WAT     H184647   5.932   5.238   9.106
28135WAT     H284648   5.872   5.177   8.967
28136WAT      O84649   9.714   0.787   6.440
28136WAT     H184650   9.666   0.872   6.463
28136WAT     H284651   9.657   0.731   6.380
28137WAT      O84652   6.525   6.896   7.863
28137WAT     H184653   6.469   6.931   7.787
28137WAT     H284654   6.495   6.939   7.948
28138WAT      O84655   8.949   4.513   8.749
28138WAT     H184656   8.895   4.429   8.761
28138WAT     H284657   9.042   4.498   8.783
28139WAT      O84658   2.728   8.973   8.595
28139WAT     H184659   2.792   9.050   8.601
28139WAT     H284660   2.658   8.994   8.527
28140WAT      O84661   6.137   6.575   6.118
28140WAT     H184662   6.191   6.659   6.120
28140WAT     H284663   6.094   6.562   6.208
28141WAT      O84664   0.669   5.388   9.561
28141WAT     H184665   0.707   5.473   9.597
28141WAT     H284666   0.606   5.348   9.628
28142WAT      O84667   4.158   6.526   7.440
28142WAT     H184668   4.150   6.442   7.386
28142WAT     H284669   4.165   6.502   7.537
28143WAT      O84670   3.872   2.040   9.364
28143WAT     H184671   3.837   2.115   9.420
28143WAT     H284672   3.972   2.049   9.355
28144WAT      O84673   0.315   7.060   0.779
28144WAT     H184674   0.366   6.995   0.723
28144WAT     H284675   0.350   7.059   0.872
28145WAT      O84676   8.302   9.225   4.044
28145WAT     H184677   8.219   9.183   4.080
28145WAT     H284678   8.279   9.290   3.972
28146WAT      O84679   2.977   0.095   6.302
28146WAT     H184680   3.047   0.134   6.362
28146WAT     H284681   2.893   0.148   6.309
28147WAT      O84682   1.615   5.141   0.751
28147WAT     H184683   1.641   5.094   0.835
28147WAT     H284684   1.673   5.110   0.676
28148WAT      O84685   6.004   7.480   0.650
28148WAT     H184686   6.087   7.490   0.596
28148WAT     H284687   5.961   7.570   0.661
28149WAT      O84688   0.221   7.586   5.380
28149WAT     H184689   0.221   7.593   5.479
28149WAT     H284690   0.160   7.513   5.351
28150WAT      O84691   9.629   1.390   5.523
28150WAT     H184692   9.571   1.457   5.477
28150WAT     H284693   9.642   1.416   5.619
28151WAT      O84694   7.621   0.053   5.219
28151WAT     H184695   7.706   0.048   5.272
28151WAT     H284696   7.548   0.092   5.277
28152WAT      O84697   4.960   5.032   8.753
28152WAT     H184698   4.958   4.970   8.832
28152WAT     H284699   5.023   5.108   8.772
28153WAT      O84700   3.452   5.848   2.961
28153WAT     H184701   3.380   5.912   2.988
28153WAT     H284702   3.482   5.870   2.868
28154WAT      O84703   9.671   5.408   5.760
28154WAT     H184704   9.585   5.359   5.776
28154WAT     H284705   9.716   5.424   5.848
28155WAT      O84706   6.123   8.087   5.352
28155WAT     H184707   6.064   8.066   5.429
28155WAT     H284708   6.068   8.107   5.271
28156WAT      O84709   4.141   8.127   1.064
28156WAT     H184710   4.107   8.063   1.133
28156WAT     H284711   4.239   8.142   1.077
28157WAT      O84712   8.312   7.510   2.135
28157WAT     H184713   8.383   7.574   2.165
28157WAT     H284714   8.230   7.561   2.108
28158WAT      O84715   1.853   0.020   2.003
28158WAT     H184716   1.890   0.089   2.065
28158WAT     H284717   1.911   0.013   1.922
28159WAT      O84718   2.955   1.977   8.784
28159WAT     H184719   2.900   1.893   8.785
28159WAT     H284720   2.917   2.041   8.719
28160WAT      O84721   1.179   7.705   2.113
28160WAT     H184722   1.252   7.638   2.122
28160WAT     H284723   1.090   7.658   2.116
28161WAT      O84724   2.760   9.684   5.718
28161WAT     H184725   2.705   9.737   5.654
28161WAT     H284726   2.851   9.725   5.725
28162WAT      O84727   1.382   9.762   8.437
28162WAT     H184728   1.295   9.746   8.484
28162WAT     H284729   1.453   9.706   8.478
28163WAT      O84730   5.075   1.239   8.102
28163WAT     H184731   5.011   1.165   8.127
28163WAT     H284732   5.163   1.199   8.077
28164WAT      O84733   1.608   2.583   9.679
28164WAT     H184734   1.537   2.563   9.612
28164WAT     H284735   1.696   2.550   9.645
28165WAT      O84736   4.700   1.981   1.727
28165WAT     H184737   4.647   1.912   1.777
28165WAT     H284738   4.639   2.051   1.691
28166WAT      O84739   1.844   4.398   8.521
28166WAT     H184740   1.933   4.442   8.508
28166WAT     H284741   1.807   4.371   8.432
28167WAT      O84742   8.287   5.433   3.837
28167WAT     H184743   8.225   5.365   3.797
28167WAT     H284744   8.306   5.408   3.932
28168WAT      O84745   8.345   3.004   9.470
28168WAT     H184746   8.432   3.046   9.446
28168WAT     H284747   8.358   2.905   9.484
28169WAT      O84748   4.007   2.870   8.830
28169WAT     H184749   4.016   2.940   8.760
28169WAT     H284750   3.968   2.911   8.913
28170WAT      O84751   7.331   9.213   1.406
28170WAT     H184752   7.320   9.243   1.500
28170WAT     H284753   7.318   9.114   1.400
28171WAT      O84754   6.196   9.261   1.083
28171WAT     H184755   6.278   9.263   1.026
28171WAT     H284756   6.118   9.228   1.030
28172WAT      O84757   5.014   4.249   6.729
28172WAT     H184758   4.998   4.316   6.657
28172WAT     H284759   4.986   4.286   6.817
28173WAT      O84760   3.789   5.493   1.081
28173WAT     H184761   3.747   5.536   1.161
28173WAT     H284762   3.749   5.533   0.998
28174WAT      O84763   7.167   0.895   6.304
28174WAT     H184764   7.193   0.984   6.267
28174WAT     H284765   7.160   0.828   6.230
28175WAT      O84766   8.005   2.730   0.551
28175WAT     H184767   8.012   2.634   0.578
28175WAT     H284768   7.940   2.777   0.611
28176WAT      O84769   4.530   7.412   5.921
28176WAT     H184770   4.456   7.345   5.927
28176WAT     H284771   4.519   7.466   5.838
28177WAT      O84772   0.725   7.412   2.520
28177WAT     H184773   0.819   7.400   2.550
28177WAT     H284774   0.693   7.329   2.473
28178WAT      O84775   7.564   5.822   9.247
28178WAT     H184776   7.588   5.788   9.156
28178WAT     H284777   7.478   5.781   9.276
28179WAT      O84778   9.860   2.690   9.602
28179WAT     H184779   9.908   2.708   9.688
28179WAT     H284780   9.856   2.774   9.548
28180WAT      O84781   4.279   0.330   9.089
28180WAT     H184782   4.355   0.371   9.139
28180WAT     H284783   4.210   0.400   9.071
28181WAT      O84784   2.851   7.256   9.413
28181WAT     H184785   2.921   7.322   9.438
28181WAT     H284786   2.855   7.177   9.475
28182WAT      O84787   4.231   5.406   7.320
28182WAT     H184788   4.193   5.322   7.284
28182WAT     H284789   4.209   5.415   7.417
28183WAT      O84790   1.851   7.833   4.552
28183WAT     H184791   1.897   7.781   4.624
28183WAT     H284792   1.754   7.843   4.575
28184WAT      O84793   5.643   7.899   6.592
28184WAT     H184794   5.677   7.977   6.540
28184WAT     H284795   5.543   7.903   6.599
28185WAT      O84796   6.131   7.672   6.534
28185WAT     H184797   6.179   7.751   6.572
28185WAT     H284798   6.033   7.680   6.555
28186WAT      O84799   5.864   4.172   9.172
28186WAT     H184800   5.881   4.270   9.162
28186WAT     H284801   5.940   4.129   9.220
28187WAT      O84802   2.345   5.433   5.453
28187WAT     H184803   2.373   5.417   5.548
28187WAT     H284804   2.359   5.350   5.400
28188WAT      O84805   5.305   4.011   3.060
28188WAT     H184806   5.391   3.967   3.037
28188WAT     H284807   5.323   4.099   3.103
28189WAT      O84808   1.677   9.014   9.407
28189WAT     H184809   1.619   8.953   9.354
28189WAT     H284810   1.647   9.108   9.394
28190WAT      O84811   8.654   6.459   2.484
28190WAT     H184812   8.717   6.410   2.544
28190WAT     H284813   8.623   6.397   2.411
28191WAT      O84814   5.658   8.302   7.363
28191WAT     H184815   5.628   8.251   7.443
28191WAT     H284816   5.755   8.286   7.348
28192WAT      O84817   1.258   0.817   4.632
28192WAT     H184818   1.302   0.853   4.551
28192WAT     H284819   1.275   0.719   4.638
28193WAT      O84820   9.828   1.135   8.442
28193WAT     H184821   9.811   1.233   8.431
28193WAT     H284822   9.819   1.110   8.538
28194WAT      O84823   3.427   2.728   3.695
28194WAT     H184824   3.349   2.782   3.664
28194WAT     H284825   3.511   2.769   3.660
28195WAT      O84826   4.303   3.614   2.463
28195WAT     H184827   4.300   3.650   2.370
28195WAT     H284828   4.347   3.681   2.523
28196WAT      O84829   1.601   9.752   5.853
28196WAT     H184830   1.587   9.731   5.950
28196WAT     H284831   1.698   9.751   5.832
28197WAT      O84832   4.727   7.624   8.397
28197WAT     H184833   4.633   7.598   8.373
28197WAT     H284834   4.767   7.677   8.323
28198WAT      O84835   3.567   2.283   5.556
28198WAT     H184836   3.593   2.281   5.652
28198WAT     H284837   3.607   2.205   5.509
28199WAT      O84838   4.683   4.483   8.532
28199WAT     H184839   4.624   4.543   8.586
28199WAT     H284840   4.739   4.539   8.470
28200WAT      O84841   6.647   5.744   0.536
28200WAT     H184842   6.646   5.657   0.486
28200WAT     H284843   6.576   5.742   0.607
28201WAT      O84844   4.860   7.827   7.963
28201WAT     H184845   4.958   7.844   7.947
28201WAT     H284846   4.806   7.899   7.919
28202WAT      O84847   1.997   0.934   6.054
28202WAT     H184848   2.062   1.009   6.069
28202WAT     H284849   2.005   0.867   6.128
28203WAT      O84850   8.325   1.272   7.416
28203WAT     H184851   8.257   1.341   7.441
28203WAT     H284852   8.288   1.214   7.343
28204WAT      O84853   0.680   6.387   9.833
28204WAT     H184854   0.741   6.351   9.904
28204WAT     H284855   0.595   6.336   9.832
28205WAT      O84856   7.823   1.922   2.654
28205WAT     H184857   7.812   1.857   2.729
28205WAT     H284858   7.870   1.877   2.578
28206WAT      O84859   0.822   7.015   1.717
28206WAT     H184860   0.885   7.045   1.788
28206WAT     H284861   0.783   6.926   1.742
28207WAT      O84862   0.412   8.440   6.177
28207WAT     H184863   0.355   8.421   6.097
28207WAT     H284864   0.471   8.518   6.159
28208WAT      O84865   7.587   2.801   6.733
28208WAT     H184866   7.565   2.705   6.718
28208WAT     H284867   7.611   2.815   6.829
28209WAT      O84868   7.273   3.393   8.789
28209WAT     H184869   7.360   3.380   8.836
28209WAT     H284870   7.272   3.482   8.744
28210WAT      O84871   5.387   8.488   1.541
28210WAT     H184872   5.458   8.502   1.471
28210WAT     H284873   5.401   8.400   1.585
28211WAT      O84874   7.809   2.199   4.856
28211WAT     H184875   7.870   2.275   4.875
28211WAT     H284876   7.812   2.177   4.758
28212WAT      O84877   2.323   0.017   9.098
28212WAT     H184878   2.412   0.019   9.143
28212WAT     H284879   2.332   0.054   9.006
28213WAT      O84880   8.969   8.465   7.848
28213WAT     H184881   8.976   8.502   7.941
28213WAT     H284882   8.883   8.495   7.807
28214WAT      O84883   3.857   7.563   3.497
28214WAT     H184884   3.764   7.526   3.495
28214WAT     H284885   3.886   7.573   3.592
28215WAT      O84886   4.038   5.590   8.880
28215WAT     H184887   3.967   5.595   8.810
28215WAT     H284888   4.051   5.680   8.921
28216WAT      O84889   7.671   4.668   3.575
28216WAT     H184890   7.595   4.707   3.523
28216WAT     H284891   7.758   4.702   3.538
28217WAT      O84892   6.296   3.889   0.857
28217WAT     H184893   6.209   3.928   0.826
28217WAT     H284894   6.287   3.790   0.867
28218WAT      O84895   7.095   8.461   4.638
28218WAT     H184896   7.144   8.397   4.579
28218WAT     H284897   7.143   8.470   4.725
28219WAT      O84898   0.874   4.387   4.387
28219WAT     H184899   0.848   4.479   4.416
28219WAT     H284900   0.916   4.338   4.463
28220WAT      O84901   6.840   2.847   0.458
28220WAT     H184902   6.790   2.801   0.384
28220WAT     H284903   6.777   2.907   0.508
28221WAT      O84904   1.250   0.536   6.796
28221WAT     H184905   1.151   0.532   6.805
28221WAT     H284906   1.286   0.613   6.847
28222WAT      O84907   2.305   7.425   3.134
28222WAT     H184908   2.330   7.428   3.231
28222WAT     H284909   2.212   7.460   3.122
28223WAT      O84910   0.059   2.459   2.040
28223WAT     H184911  -0.017   2.486   1.980
28223WAT     H284912   0.048   2.501   2.130
28224WAT      O84913   4.752   2.971   2.950
28224WAT     H184914   4.722   3.000   3.040
28224WAT     H284915   4.803   2.885   2.957
28225WAT      O84916   2.622   2.900   0.863
28225WAT     H184917   2.529   2.899   0.900
28225WAT     H284918   2.641   2.812   0.819
28226WAT      O84919   9.742   2.952   8.293
28226WAT     H184920   9.767   3.015   8.367
28226WAT     H284921   9.794   2.974   8.211
28227WAT      O84922   8.426   7.135   5.678
28227WAT     H184923   8.379   7.216   5.642
28227WAT     H284924   8.517   7.129   5.639
28228WAT      O84925   8.336   1.883   0.430
28228WAT     H184926   8.368   1.848   0.518
28228WAT     H284927   8.414   1.896   0.369
28229WAT      O84928   6.159   1.837   0.239
28229WAT     H184929   6.072   1.789   0.250
28229WAT     H284930   6.202   1.809   0.153
28230WAT      O84931   2.016   8.441   2.456
28230WAT     H184932   2.005   8.352   2.410
28230WAT     H284933   1.931   8.493   2.448
28231WAT      O84934   0.629   5.803   8.099
28231WAT     H184935   0.627   5.883   8.158
28231WAT     H284936   0.626   5.832   8.003
28232WAT      O84937   6.465   0.372   3.870
28232WAT     H184938   6.421   0.335   3.789
28232WAT     H284939   6.563   0.353   3.867
28233WAT      O84940   4.122   2.848   1.987
28233WAT     H184941   4.087   2.811   2.073
28233WAT     H284942   4.048   2.854   1.920
28234WAT      O84943   7.647   1.467   9.495
28234WAT     H184944   7.613   1.524   9.570
28234WAT     H284945   7.747   1.477   9.488
28235WAT      O84946   0.392   1.989   8.821
28235WAT     H184947   0.475   2.012   8.872
28235WAT     H284948   0.312   2.000   8.880
28236WAT      O84949   0.461   6.883   6.541
28236WAT     H184950   0.414   6.796   6.525
28236WAT     H284951   0.519   6.874   6.622
28237WAT      O84952   5.848   7.204   4.416
28237WAT     H184953   5.836   7.152   4.500
28237WAT     H284954   5.810   7.153   4.339
28238WAT      O84955   4.487   9.317   0.990
28238WAT     H184956   4.508   9.304   1.087
28238WAT     H284957   4.498   9.230   0.941
28239WAT      O84958   2.797   5.343   1.015
28239WAT     H184959   2.813   5.293   1.100
28239WAT     H284960   2.753   5.282   0.949
28240WAT      O84961   3.228   1.435   5.750
28240WAT     H184962   3.313   1.402   5.710
28240WAT     H284963   3.223   1.535   5.743
28241WAT      O84964   6.337   2.942   9.134
28241WAT     H184965   6.246   2.902   9.118
28241WAT     H284966   6.400   2.871   9.166
28242WAT      O84967   1.297   1.352   6.625
28242WAT     H184968   1.341   1.343   6.536
28242WAT     H284969   1.201   1.325   6.618
28243WAT      O84970   3.034   0.458   3.497
28243WAT     H184971   3.038   0.557   3.481
28243WAT     H284972   3.048   0.439   3.594
28244WAT      O84973   5.210   5.250   5.505
28244WAT     H184974   5.287   5.313   5.516
28244WAT     H284975   5.147   5.286   5.436
28245WAT      O84976   0.770   1.518   4.060
28245WAT     H184977   0.738   1.480   4.147
28245WAT     H284978   0.692   1.536   4.000
28246WAT      O84979   4.370   4.160   6.294
28246WAT     H184980   4.463   4.153   6.329
28246WAT     H284981   4.342   4.257   6.294
28247WAT      O84982   4.318   1.544   7.077
28247WAT     H184983   4.229   1.517   7.114
28247WAT     H284984   4.315   1.639   7.047
28248WAT      O84985   3.861   2.181   6.697
28248WAT     H184986   3.796   2.128   6.751
28248WAT     H284987   3.942   2.200   6.753
28249WAT      O84988   8.394   1.542   7.551
28249WAT     H184989   8.439   1.454   7.539
28249WAT     H284990   8.421   1.582   7.639
28250WAT      O84991   2.479   6.101   2.837
28250WAT     H184992   2.449   6.195   2.851
28250WAT     H284993   2.498   6.058   2.925
28251WAT      O84994   0.523   9.336   5.664
28251WAT     H184995   0.527   9.402   5.739
28251WAT     H284996   0.534   9.385   5.577
28252WAT      O84997   7.703   3.780   9.446
28252WAT     H184998   7.687   3.741   9.536
28252WAT     H284999   7.712   3.707   9.379
28253WAT      O85000   8.047   4.156   4.026
28253WAT     H185001   8.002   4.133   4.113
28253WAT     H285002   8.070   4.253   4.025
28254WAT      O85003   2.498   0.466   2.935
28254WAT     H185004   2.430   0.432   2.870
28254WAT     H285005   2.541   0.548   2.898
28255WAT      O85006   4.731   2.287   2.524
28255WAT     H185007   4.719   2.354   2.598
28255WAT     H285008   4.694   2.199   2.553
28256WAT      O85009   6.905   0.668   5.588
28256WAT     H185010   6.811   0.635   5.585
28256WAT     H285011   6.962   0.614   5.526
28257WAT      O85012   2.260   7.398   7.192
28257WAT     H185013   2.247   7.400   7.291
28257WAT     H285014   2.326   7.469   7.166
28258WAT      O85015   0.159   3.387   5.241
28258WAT     H185016   0.093   3.463   5.248
28258WAT     H285017   0.210   3.395   5.156
28259WAT      O85018   8.285   0.310   2.719
28259WAT     H185019   8.195   0.319   2.762
28259WAT     H285020   8.282   0.350   2.628
28260WAT      O85021   5.343   1.571   4.933
28260WAT     H185022   5.280   1.645   4.958
28260WAT     H285023   5.404   1.552   5.010
28261WAT      O85024   1.227   5.097   6.288
28261WAT     H185025   1.257   5.109   6.193
28261WAT     H285026   1.295   5.046   6.339
28262WAT      O85027   8.540   4.607   2.962
28262WAT     H185028   8.619   4.657   2.999
28262WAT     H285029   8.514   4.648   2.874
28263WAT      O85030   4.322   3.223   3.173
28263WAT     H185031   4.422   3.224   3.181
28263WAT     H285032   4.294   3.152   3.109
28264WAT      O85033   7.222   5.825   3.852
28264WAT     H185034   7.257   5.760   3.919
28264WAT     H285035   7.136   5.792   3.815
28265WAT      O85036   0.564   5.981   6.868
28265WAT     H185037   0.530   5.931   6.789
28265WAT     H285038   0.664   5.991   6.861
28266WAT      O85039   8.496   0.593   8.212
28266WAT     H185040   8.408   0.556   8.182
28266WAT     H285041   8.562   0.587   8.137
28267WAT      O85042   0.048   1.821   0.262
28267WAT     H185043   0.114   1.768   0.316
28267WAT     H285044  -0.033   1.840   0.318
28268WAT      O85045   8.656   3.200   4.113
28268WAT     H185046   8.660   3.215   4.212
28268WAT     H285047   8.748   3.186   4.077
28269WAT      O85048   8.877   6.279   4.436
28269WAT     H185049   8.812   6.352   4.417
28269WAT     H285050   8.891   6.224   4.354
28270WAT      O85051   3.082   3.796   9.164
28270WAT     H185052   3.066   3.895   9.169
28270WAT     H285053   3.164   3.773   9.217
28271WAT      O85054   2.491   8.915   6.912
28271WAT     H185055   2.579   8.962   6.914
28271WAT     H285056   2.482   8.858   6.994
28272WAT      O85057   2.996   2.912   5.068
28272WAT     H185058   3.052   2.987   5.105
28272WAT     H285059   3.031   2.825   5.101
28273WAT      O85060   2.780   1.785   1.055
28273WAT     H185061   2.741   1.811   0.967
28273WAT     H285062   2.761   1.688   1.072
28274WAT      O85063   7.472   4.785   9.890
28274WAT     H185064   7.395   4.758   9.947
28274WAT     H285065   7.496   4.710   9.829
28275WAT      O85066   4.749   3.758   8.378
28275WAT     H185067   4.700   3.803   8.304
28275WAT     H285068   4.691   3.751   8.459
28276WAT      O85069   5.301   5.413   1.301
28276WAT     H185070   5.232   5.480   1.325
28276WAT     H285071   5.389   5.439   1.342
28277WAT      O85072   5.532   9.739   6.986
28277WAT     H185073   5.432   9.747   6.988
28277WAT     H285074   5.568   9.794   6.912
28278WAT      O85075   5.007   2.404   0.620
28278WAT     H185076   4.926   2.382   0.675
28278WAT     H285077   5.049   2.319   0.589
28279WAT      O85078   8.783   1.366   6.390
28279WAT     H185079   8.792   1.360   6.290
28279WAT     H285080   8.700   1.319   6.419
28280WAT      O85081   1.810   6.839   0.484
28280WAT     H185082   1.737   6.891   0.528
28280WAT     H285083   1.800   6.742   0.507
28281WAT      O85084   8.706   0.695   3.945
28281WAT     H185085   8.739   0.604   3.971
28281WAT     H285086   8.626   0.718   4.000
28282WAT      O85087   1.648   4.524   6.912
28282WAT     H185088   1.706   4.526   6.831
28282WAT     H285089   1.700   4.488   6.990
28283WAT      O85090   3.846   2.699   8.669
28283WAT     H185091   3.905   2.745   8.736
28283WAT     H285092   3.810   2.615   8.709
28284WAT      O85093   3.710   6.172   3.447
28284WAT     H185094   3.655   6.196   3.367
28284WAT     H285095   3.662   6.199   3.530
28285WAT      O85096   8.668   1.398   8.453
28285WAT     H185097   8.656   1.355   8.543
28285WAT     H285098   8.739   1.467   8.458
28286WAT      O85099   0.334   1.359   1.631
28286WAT     H185100   0.323   1.421   1.709
28286WAT     H285101   0.249   1.308   1.618
28287WAT      O85102   5.377   5.603   2.752
28287WAT     H185103   5.279   5.604   2.731
28287WAT     H285104   5.390   5.592   2.850
28288WAT      O85105   8.255   7.339   3.029
28288WAT     H185106   8.339   7.295   2.995
28288WAT     H285107   8.180   7.273   3.025
28289WAT      O85108   2.718   7.985   2.662
28289WAT     H185109   2.629   7.979   2.707
28289WAT     H285110   2.789   7.999   2.731
28290WAT      O85111   1.499   0.118   3.030
28290WAT     H185112   1.412   0.092   3.073
28290WAT     H285113   1.537   0.196   3.079
28291WAT      O85114   3.456   6.548   9.864
28291WAT     H185115   3.549   6.578   9.842
28291WAT     H285116   3.392   6.624   9.850
28292WAT      O85117   6.084   9.275   3.586
28292WAT     H185118   6.167   9.324   3.613
28292WAT     H285119   6.021   9.339   3.541
28293WAT      O85120   4.263   2.910   7.294
28293WAT     H185121   4.173   2.955   7.296
28293WAT     H285122   4.264   2.841   7.222
28294WAT      O85123   4.562   8.466   5.067
28294WAT     H185124   4.521   8.375   5.077
28294WAT     H285125   4.636   8.475   5.134
28295WAT      O85126   1.837   3.329   8.438
28295WAT     H185127   1.892   3.261   8.390
28295WAT     H285128   1.770   3.282   8.496
28296WAT      O85129   7.701   5.971   1.830
28296WAT     H185130   7.685   5.911   1.752
28296WAT     H285131   7.800   5.982   1.844
28297WAT      O85132   7.971   1.279   9.205
28297WAT     H185133   7.984   1.230   9.291
28297WAT     H285134   7.878   1.316   9.202
28298WAT      O85135   1.769   2.101   0.726
28298WAT     H185136   1.677   2.127   0.755
28298WAT     H285137   1.798   2.162   0.652
28299WAT      O85138   9.095   1.132   8.234
28299WAT     H185139   9.124   1.209   8.178
28299WAT     H285140   9.127   1.144   8.328
28300WAT      O85141   8.023   0.981   6.744
28300WAT     H185142   7.966   0.956   6.823
28300WAT     H285143   7.969   0.974   6.660
28301WAT      O85144   0.441   0.752   1.389
28301WAT     H185145   0.528   0.707   1.410
28301WAT     H285146   0.377   0.738   1.464
28302WAT      O85147   2.485   4.463   7.761
28302WAT     H185148   2.463   4.385   7.702
28302WAT     H285149   2.496   4.545   7.704
28303WAT      O85150   1.559   8.056   2.963
28303WAT     H185151   1.559   8.083   3.059
28303WAT     H285152   1.472   8.013   2.940
28304WAT      O85153   6.063   6.108   9.359
28304WAT     H185154   6.054   6.014   9.326
28304WAT     H285155   5.997   6.166   9.312
28305WAT      O85156   6.616   5.270   8.878
28305WAT     H185157   6.704   5.292   8.835
28305WAT     H285158   6.589   5.344   8.939
28306WAT      O85159   2.727   7.781   2.275
28306WAT     H185160   2.824   7.779   2.299
28306WAT     H285161   2.712   7.726   2.193
28307WAT      O85162   8.459   8.651   5.946
28307WAT     H185163   8.439   8.726   6.009
28307WAT     H285164   8.529   8.679   5.881
28308WAT      O85165   0.122   7.032   0.335
28308WAT     H185166   0.215   7.057   0.308
28308WAT     H285167   0.057   7.062   0.265
28309WAT      O85168   8.773   8.352   3.178
28309WAT     H185169   8.686   8.312   3.148
28309WAT     H285170   8.761   8.399   3.265
28310WAT      O85171   6.659   1.539   4.601
28310WAT     H185172   6.745   1.585   4.579
28310WAT     H285173   6.620   1.578   4.684
28311WAT      O85174   5.386   7.218   7.160
28311WAT     H185175   5.416   7.175   7.246
28311WAT     H285176   5.454   7.202   7.089
28312WAT      O85177   6.895   2.656   8.950
28312WAT     H185178   6.880   2.751   8.922
28312WAT     H285179   6.966   2.615   8.893
28313WAT      O85180   3.644   8.129   1.059
28313WAT     H185181   3.592   8.160   1.139
28313WAT     H285182   3.646   8.202   0.991
28314WAT      O85183   8.322   8.356   5.002
28314WAT     H185184   8.256   8.288   4.971
28314WAT     H285185   8.273   8.438   5.033
28315WAT      O85186   5.997   7.320   0.090
28315WAT     H185187   5.933   7.397   0.099
28315WAT     H285188   5.991   7.262   0.172
28316WAT      O85189   2.476   5.168   1.153
28316WAT     H185190   2.469   5.249   1.096
28316WAT     H285191   2.459   5.193   1.249
28317WAT      O85192   8.067   5.302   6.460
28317WAT     H185193   8.096   5.208   6.476
28317WAT     H285194   8.014   5.307   6.376
28318WAT      O85195   9.056   5.296   8.141
28318WAT     H185196   9.045   5.209   8.093
28318WAT     H285197   9.124   5.285   8.214
28319WAT      O85198   7.569   7.053   3.724
28319WAT     H185199   7.473   7.031   3.744
28319WAT     H285200   7.581   7.152   3.724
28320WAT      O85201   3.510   3.184   0.685
28320WAT     H185202   3.590   3.135   0.720
28320WAT     H285203   3.456   3.219   0.762
28321WAT      O85204   8.781   6.530   6.223
28321WAT     H185205   8.757   6.579   6.139
28321WAT     H285206   8.832   6.590   6.284
28322WAT      O85207   2.401   6.457   4.996
28322WAT     H185208   2.360   6.467   4.905
28322WAT     H285209   2.337   6.409   5.056
28323WAT      O85210   8.768   9.547   2.192
28323WAT     H185211   8.766   9.454   2.227
28323WAT     H285212   8.861   9.570   2.162
28324WAT      O85213   7.236   5.314   4.470
28324WAT     H185214   7.255   5.412   4.476
28324WAT     H285215   7.228   5.276   4.562
28325WAT      O85216   7.207   4.247   2.142
28325WAT     H185217   7.191   4.344   2.123
28325WAT     H285218   7.298   4.236   2.180
28326WAT      O85219   4.301   6.181   0.699
28326WAT     H185220   4.205   6.192   0.674
28326WAT     H285221   4.308   6.131   0.785
28327WAT      O85222   6.695   0.045   8.687
28327WAT     H185223   6.676  -0.021   8.614
28327WAT     H285224   6.692   0.137   8.649
28328WAT      O85225   6.458   7.634   3.285
28328WAT     H185226   6.387   7.599   3.224
28328WAT     H285227   6.421   7.706   3.343
28329WAT      O85228   9.852   5.902   4.688
28329WAT     H185229   9.848   5.847   4.604
28329WAT     H285230   9.760   5.925   4.718
28330WAT      O85231   0.301   4.421   4.711
28330WAT     H185232   0.338   4.353   4.649
28330WAT     H285233   0.368   4.495   4.724
28331WAT      O85234   9.039   6.822   8.832
28331WAT     H185235   8.966   6.756   8.842
28331WAT     H285236   9.017   6.904   8.885
28332WAT      O85237   9.775   5.990   0.074
28332WAT     H185238   9.770   5.978  -0.025
28332WAT     H285239   9.756   6.086   0.097
28333WAT      O85240   2.429   5.152   1.801
28333WAT     H185241   2.379   5.126   1.719
28333WAT     H285242   2.364   5.171   1.875
28334WAT      O85243   1.765   9.092   0.323
28334WAT     H185244   1.787   8.997   0.341
28334WAT     H285245   1.747   9.104   0.225
28335WAT      O85246   4.998   7.923   9.094
28335WAT     H185247   4.916   7.894   9.045
28335WAT     H285248   4.985   8.017   9.127
28336WAT      O85249   5.971   9.386   5.460
28336WAT     H185250   5.932   9.450   5.526
28336WAT     H285251   5.922   9.393   5.373
28337WAT      O85252   6.206   0.540   6.072
28337WAT     H185253   6.220   0.543   6.171
28337WAT     H285254   6.240   0.453   6.037
28338WAT      O85255   0.973   2.546   6.069
28338WAT     H185256   0.998   2.619   6.006
28338WAT     H285257   0.876   2.526   6.060
28339WAT      O85258   0.559   1.003   6.697
28339WAT     H185259   0.605   1.042   6.777
28339WAT     H285260   0.561   0.903   6.703
28340WAT      O85261   4.410   9.841   8.281
28340WAT     H185262   4.439   9.925   8.234
28340WAT     H285263   4.414   9.764   8.216
28341WAT      O85264   7.631   2.968   7.429
28341WAT     H185265   7.547   2.918   7.412
28341WAT     H285266   7.703   2.934   7.368
28342WAT      O85267   9.659   6.713   1.959
28342WAT     H185268   9.695   6.789   1.905
28342WAT     H285269   9.684   6.725   2.055
28343WAT      O85270   6.536   1.725   7.993
28343WAT     H185271   6.601   1.769   7.930
28343WAT     H285272   6.500   1.794   8.056
28344WAT      O85273   2.356   0.804   2.717
28344WAT     H185274   2.297   0.763   2.786
28344WAT     H285275   2.326   0.897   2.698
28345WAT      O85276   1.156   8.386   0.496
28345WAT     H185277   1.064   8.418   0.520
28345WAT     H285278   1.155   8.287   0.482
28346WAT      O85279   3.339   6.602   3.784
28346WAT     H185280   3.279   6.599   3.864
28346WAT     H285281   3.285   6.585   3.701
28347WAT      O85282   8.135   0.691   5.997
28347WAT     H185283   8.195   0.771   5.999
28347WAT     H285284   8.048   0.714   6.041
28348WAT      O85285   5.434   4.387   6.444
28348WAT     H185286   5.502   4.357   6.510
28348WAT     H285287   5.410   4.311   6.384
28349WAT      O85288   7.239   4.887   4.107
28349WAT     H185289   7.310   4.834   4.059
28349WAT     H285290   7.157   4.831   4.118
28350WAT      O85291   2.643   7.526   6.381
28350WAT     H185292   2.636   7.575   6.294
28350WAT     H285293   2.593   7.576   6.452
28351WAT      O85294   4.821   4.187   1.372
28351WAT     H185295   4.865   4.099   1.355
28351WAT     H285296   4.853   4.224   1.459
28352WAT      O85297   2.821   8.271   4.626
28352WAT     H185298   2.811   8.228   4.715
28352WAT     H285299   2.901   8.331   4.625
28353WAT      O85300   2.187   0.348   4.027
28353WAT     H185301   2.185   0.433   3.974
28353WAT     H285302   2.234   0.277   3.975
28354WAT      O85303   6.399   4.519   9.680
28354WAT     H185304   6.365   4.447   9.741
28354WAT     H285305   6.457   4.581   9.732
28355WAT      O85306   9.304   1.967   1.050
28355WAT     H185307   9.271   1.974   1.144
28355WAT     H285308   9.291   2.055   1.004
28356WAT      O85309   7.966   4.569   9.337
28356WAT     H185310   8.043   4.532   9.285
28356WAT     H285311   7.977   4.544   9.434
28357WAT      O85312   5.844   1.757   2.182
28357WAT     H185313   5.926   1.709   2.149
28357WAT     H285314   5.872   1.838   2.234
28358WAT      O85315   9.661   2.739   3.662
28358WAT     H185316   9.568   2.704   3.661
28358WAT     H285317   9.673   2.800   3.741
28359WAT      O85318   7.656   0.543   5.743
28359WAT     H185319   7.623   0.583   5.657
28359WAT     H285320   7.687   0.616   5.803
28360WAT      O85321   6.592   5.760   1.222
28360WAT     H185322   6.531   5.699   1.273
28360WAT     H285323   6.553   5.852   1.221
28361WAT      O85324   4.515   1.287   1.543
28361WAT     H185325   4.432   1.260   1.495
28361WAT     H285326   4.530   1.386   1.530
28362WAT      O85327   8.754   3.906   7.949
28362WAT     H185328   8.844   3.950   7.953
28362WAT     H285329   8.764   3.815   7.908
28363WAT      O85330   6.426   9.482   6.628
28363WAT     H185331   6.454   9.408   6.689
28363WAT     H285332   6.456   9.461   6.535
28364WAT      O85333   3.559   7.416   2.267
28364WAT     H185334   3.492   7.365   2.214
28364WAT     H285335   3.627   7.455   2.205
28365WAT      O85336   1.102   0.672   5.894
28365WAT     H185337   1.200   0.655   5.895
28365WAT     H285338   1.053   0.585   5.891
28366WAT      O85339   7.534   5.231   4.603
28366WAT     H185340   7.570   5.236   4.696
28366WAT     H285341   7.573   5.305   4.549
28367WAT      O85342   1.922   9.683   6.508
28367WAT     H185343   1.834   9.711   6.545
28367WAT     H285344   1.981   9.652   6.582
28368WAT      O85345   1.865   2.242   4.319
28368WAT     H185346   1.909   2.160   4.281
28368WAT     H285347   1.846   2.306   4.244
28369WAT      O85348   0.249   4.165   2.428
28369WAT     H185349   0.243   4.127   2.521
28369WAT     H285350   0.323   4.232   2.424
28370WAT      O85351   1.429   3.207   1.309
28370WAT     H185352   1.474   3.266   1.241
28370WAT     H285353   1.478   3.213   1.396
28371WAT      O85354   7.218   0.092   0.856
28371WAT     H185355   7.306   0.080   0.809
28371WAT     H285356   7.233   0.106   0.953
28372WAT      O85357   9.110   5.109   1.513
28372WAT     H185358   9.103   5.201   1.551
28372WAT     H285359   9.108   5.113   1.413
28373WAT      O85360   6.763   5.019   4.733
28373WAT     H185361   6.664   5.001   4.738
28373WAT     H285362   6.790   5.078   4.809
28374WAT      O85363   4.257   9.714   1.052
28374WAT     H185364   4.173   9.667   1.077
28374WAT     H285365   4.298   9.668   0.973
28375WAT      O85366   1.332   5.413   4.957
28375WAT     H185367   1.370   5.479   4.891
28375WAT     H285368   1.246   5.377   4.921
28376WAT      O85369   8.245   6.269   4.326
28376WAT     H185370   8.244   6.250   4.424
28376WAT     H285371   8.300   6.199   4.280
28377WAT      O85372   5.846   2.482   2.058
28377WAT     H185373   5.798   2.450   1.977
28377WAT     H285374   5.822   2.424   2.136
28378WAT      O85375   2.230   1.049   8.198
28378WAT     H185376   2.304   0.998   8.154
28378WAT     H285377   2.259   1.079   8.289
28379WAT      O85378   2.136   8.828   3.197
28379WAT     H185379   2.038   8.843   3.179
28379WAT     H285380   2.161   8.735   3.168
28380WAT      O85381   2.650   4.041   6.443
28380WAT     H185382   2.640   3.973   6.515
28380WAT     H285383   2.686   4.126   6.482
28381WAT      O85384   0.460   5.004   5.034
28381WAT     H185385   0.491   4.928   5.091
28381WAT     H285386   0.498   4.995   4.942
28382WAT      O85387   6.309   8.522   8.733
28382WAT     H185388   6.335   8.553   8.824
28382WAT     H285389   6.210   8.528   8.722
28383WAT      O85390   5.195   0.299   2.486
28383WAT     H185391   5.204   0.209   2.443
28383WAT     H285392   5.249   0.301   2.570
28384WAT      O85393   6.077   2.578   6.031
28384WAT     H185394   6.004   2.586   6.099
28384WAT     H285395   6.048   2.622   5.946
28385WAT      O85396   8.766   8.349   0.619
28385WAT     H185397   8.808   8.282   0.558
28385WAT     H285398   8.788   8.441   0.588
28386WAT      O85399   8.846   2.684   7.150
28386WAT     H185400   8.793   2.675   7.066
28386WAT     H285401   8.839   2.778   7.183
28387WAT      O85402   5.081   0.014   6.601
28387WAT     H185403   5.165  -0.003   6.651
28387WAT     H285404   5.078   0.110   6.573
28388WAT      O85405   0.242   9.479   7.435
28388WAT     H185406   0.213   9.383   7.437
28388WAT     H285407   0.318   9.492   7.498
28389WAT      O85408   8.698   0.984   8.678
28389WAT     H185409   8.668   1.042   8.754
28389WAT     H285410   8.632   0.991   8.603
28390WAT      O85411   0.909   3.881   7.067
28390WAT     H185412   0.851   3.962   7.059
28390WAT     H285413   0.856   3.799   7.047
28391WAT      O85414   5.431   1.345   2.835
28391WAT     H185415   5.387   1.266   2.878
28391WAT     H285416   5.499   1.314   2.769
28392WAT      O85417   5.602   3.737   1.983
28392WAT     H185418   5.669   3.775   2.046
28392WAT     H285419   5.555   3.811   1.935
28393WAT      O85420   7.483   2.961   3.729
28393WAT     H185421   7.386   2.953   3.754
28393WAT     H285422   7.525   3.034   3.782
28394WAT      O85423   3.760   7.204   7.917
28394WAT     H185424   3.814   7.120   7.914
28394WAT     H285425   3.771   7.247   8.007
28395WAT      O85426   1.222   8.617   6.593
28395WAT     H185427   1.193   8.696   6.646
28395WAT     H285428   1.150   8.547   6.596
28396WAT      O85429   0.637   1.913   7.574
28396WAT     H185430   0.719   1.899   7.520
28396WAT     H285431   0.562   1.858   7.535
28397WAT      O85432   6.564   8.699   6.772
28397WAT     H185433   6.556   8.754   6.689
28397WAT     H285434   6.640   8.733   6.828
28398WAT      O85435   0.763   3.043   4.784
28398WAT     H185436   0.746   2.986   4.704
28398WAT     H285437   0.679   3.088   4.811
28399WAT      O85438   5.307   0.465   9.323
28399WAT     H185439   5.309   0.543   9.385
28399WAT     H285440   5.273   0.384   9.372
28400WAT      O85441   0.454   3.558   4.250
28400WAT     H185442   0.410   3.604   4.327
28400WAT     H285443   0.551   3.583   4.247
28401WAT      O85444   7.858   2.720   9.097
28401WAT     H185445   7.838   2.782   9.021
28401WAT     H285446   7.931   2.657   9.071
28402WAT      O85447   5.691   5.483   7.505
28402WAT     H185448   5.627   5.560   7.500
28402WAT     H285449   5.650   5.410   7.559
28403WAT      O85450   9.087   9.424   8.612
28403WAT     H185451   9.024   9.485   8.562
28403WAT     H285452   9.180   9.441   8.580
28404WAT      O85453   7.697   3.539   5.492
28404WAT     H185454   7.756   3.531   5.411
28404WAT     H285455   7.675   3.447   5.525
28405WAT      O85456   1.321   3.342   1.885
28405WAT     H185457   1.346   3.405   1.959
28405WAT     H285458   1.222   3.339   1.877
28406WAT      O85459   6.344   6.865   4.661
28406WAT     H185460   6.409   6.829   4.594
28406WAT     H285461   6.289   6.937   4.619
28407WAT      O85462   9.025   6.069   0.969
28407WAT     H185463   9.094   6.141   0.971
28407WAT     H285464   8.981   6.067   0.880
28408WAT      O85465   5.183   0.456   2.211
28408WAT     H185466   5.158   0.425   2.303
28408WAT     H285467   5.282   0.472   2.208
28409WAT      O85468   4.479   0.652   8.322
28409WAT     H185469   4.455   0.612   8.234
28409WAT     H285470   4.469   0.751   8.317
28410WAT      O85471   9.694   1.726   7.510
28410WAT     H185472   9.790   1.712   7.537
28410WAT     H285473   9.657   1.641   7.474
28411WAT      O85474   8.263   6.620   6.885
28411WAT     H185475   8.196   6.591   6.954
28411WAT     H285476   8.348   6.570   6.899
28412WAT      O85477   2.071   4.839   8.119
28412WAT     H185478   2.031   4.792   8.041
28412WAT     H285479   2.014   4.918   8.143
28413WAT      O85480   5.511   2.374   6.449
28413WAT     H185481   5.507   2.288   6.397
28413WAT     H285482   5.520   2.354   6.546
28414WAT      O85483   8.087   3.348   6.898
28414WAT     H185484   7.988   3.341   6.910
28414WAT     H285485   8.134   3.298   6.971
28415WAT      O85486   2.312   0.866   4.579
28415WAT     H185487   2.247   0.907   4.642
28415WAT     H285488   2.405   0.897   4.600
28416WAT      O85489   0.203   6.935   7.747
28416WAT     H185490   0.161   6.966   7.832
28416WAT     H285491   0.140   6.874   7.699
28417WAT      O85492   7.371   7.357   3.178
28417WAT     H185493   7.431   7.285   3.144
28417WAT     H285494   7.290   7.316   3.219
28418WAT      O85495   1.633   1.472   1.044
28418WAT     H185496   1.619   1.571   1.038
28418WAT     H285497   1.683   1.450   1.128
28419WAT      O85498   4.833   6.866   6.979
28419WAT     H185499   4.777   6.843   6.899
28419WAT     H285500   4.805   6.809   7.057
28420WAT      O85501   0.027   4.475   5.427
28420WAT     H185502   0.029   4.469   5.327
28420WAT     H285503  -0.064   4.450   5.460
28421WAT      O85504   2.683   8.530   8.048
28421WAT     H185505   2.700   8.559   7.954
28421WAT     H285506   2.588   8.499   8.056
28422WAT      O85507   9.053   6.369   7.532
28422WAT     H185508   9.048   6.469   7.527
28422WAT     H285509   8.973   6.329   7.487
28423WAT      O85510   8.025   0.891   9.132
28423WAT     H185511   8.076   0.807   9.110
28423WAT     H285512   8.060   0.930   9.217
28424WAT      O85513   3.652   2.287   5.813
28424WAT     H185514   3.662   2.355   5.886
28424WAT     H285515   3.736   2.233   5.806
28425WAT      O85516   7.844   2.237   6.047
28425WAT     H185517   7.763   2.184   6.024
28425WAT     H285518   7.926   2.182   6.029
28426WAT      O85519   5.689   3.373   6.219
28426WAT     H185520   5.645   3.350   6.306
28426WAT     H285521   5.788   3.380   6.232
28427WAT      O85522   6.591   3.665   5.444
28427WAT     H185523   6.601   3.663   5.543
28427WAT     H285524   6.544   3.583   5.413
28428WAT      O85525   5.266   0.566   0.829
28428WAT     H185526   5.330   0.534   0.759
28428WAT     H285527   5.278   0.665   0.842
28429WAT      O85528   5.623   2.094   4.258
28429WAT     H185529   5.573   2.180   4.253
28429WAT     H285530   5.684   2.086   4.179
28430WAT      O85531   6.795   7.146   2.344
28430WAT     H185532   6.841   7.132   2.432
28430WAT     H285533   6.731   7.222   2.353
28431WAT      O85534   4.965   3.650   1.159
28431WAT     H185535   4.939   3.581   1.226
28431WAT     H285536   4.885   3.674   1.103
28432WAT      O85537   2.664   0.930   0.266
28432WAT     H185538   2.580   0.891   0.302
28432WAT     H285539   2.676   1.022   0.302
28433WAT      O85540   9.273   2.111   6.875
28433WAT     H185541   9.266   2.095   6.776
28433WAT     H285542   9.293   2.207   6.892
28434WAT      O85543   0.469   6.872   0.655
28434WAT     H185544   0.564   6.900   0.669
28434WAT     H285545   0.467   6.782   0.611
28435WAT      O85546   3.904   5.191   5.005
28435WAT     H185547   3.928   5.178   5.101
28435WAT     H285548   3.941   5.278   4.973
28436WAT      O85549   6.352   2.036   2.749
28436WAT     H185550   6.331   2.016   2.844
28436WAT     H285551   6.452   2.035   2.736
28437WAT      O85552   2.538   8.272   3.843
28437WAT     H185553   2.542   8.351   3.905
28437WAT     H285554   2.616   8.212   3.861
28438WAT      O85555   7.847   9.038   3.407
28438WAT     H185556   7.902   9.092   3.343
28438WAT     H285557   7.903   9.009   3.484
28439WAT      O85558   1.110   8.274   5.697
28439WAT     H185559   1.164   8.190   5.693
28439WAT     H285560   1.036   8.270   5.630
28440WAT      O85561   8.714   6.209   1.800
28440WAT     H185562   8.764   6.149   1.737
28440WAT     H285563   8.618   6.179   1.804
28441WAT      O85564   0.947   5.810   6.173
28441WAT     H185565   0.930   5.711   6.168
28441WAT     H285566   0.867   5.859   6.139
28442WAT      O85567   9.568   3.556   8.026
28442WAT     H185568   9.623   3.587   8.103
28442WAT     H285569   9.616   3.577   7.941
28443WAT      O85570   8.650   8.163   9.774
28443WAT     H185571   8.607   8.252   9.788
28443WAT     H285572   8.656   8.114   9.860
28444WAT      O85573   9.317   7.669   4.662
28444WAT     H185574   9.374   7.588   4.656
28444WAT     H285575   9.227   7.645   4.698
28445WAT      O85576   4.215   9.279   8.829
28445WAT     H185577   4.269   9.209   8.874
28445WAT     H285578   4.174   9.339   8.897
28446WAT      O85579   1.464   4.684   6.997
28446WAT     H185580   1.533   4.620   6.963
28446WAT     H285581   1.508   4.754   7.053
28447WAT      O85582   8.206   5.867   5.975
28447WAT     H185583   8.237   5.775   6.000
28447WAT     H285584   8.278   5.913   5.924
28448WAT      O85585   4.538   5.847   6.018
28448WAT     H185586   4.497   5.905   6.088
28448WAT     H285587   4.636   5.839   6.034
28449WAT      O85588   1.730   5.251   6.183
28449WAT     H185589   1.701   5.285   6.094
28449WAT     H285590   1.651   5.211   6.231
28450WAT      O85591   5.465   4.952   6.158
28450WAT     H185592   5.406   4.957   6.077
28450WAT     H285593   5.427   4.888   6.224
28451WAT      O85594   0.634   6.249   8.723
28451WAT     H185595   0.633   6.157   8.683
28451WAT     H285596   0.697   6.307   8.670
28452WAT      O85597   6.719   9.598   3.151
28452WAT     H185598   6.759   9.559   3.068
28452WAT     H285599   6.704   9.696   3.138
28453WAT      O85600   4.778   2.367   0.771
28453WAT     H185601   4.681   2.386   0.758
28453WAT     H285602   4.805   2.392   0.864
28454WAT      O85603   2.033   8.133   9.798
28454WAT     H185604   2.109   8.172   9.850
28454WAT     H285605   1.959   8.108   9.861
28455WAT      O85606   0.716   8.666   2.711
28455WAT     H185607   0.635   8.720   2.733
28455WAT     H285608   0.688   8.579   2.671
28456WAT      O85609   3.013   4.413   9.400
28456WAT     H185610   2.956   4.452   9.327
28456WAT     H285611   2.958   4.405   9.483
28457WAT      O85612   3.226   3.400   1.798
28457WAT     H185613   3.253   3.323   1.740
28457WAT     H285614   3.159   3.456   1.750
28458WAT      O85615   0.634   5.212   2.290
28458WAT     H185616   0.555   5.157   2.319
28458WAT     H285617   0.675   5.255   2.370
28459WAT      O85618   3.237   5.563   8.630
28459WAT     H185619   3.152   5.615   8.625
28459WAT     H285620   3.255   5.519   8.542
28460WAT      O85621   9.437   5.557   4.676
28460WAT     H185622   9.484   5.609   4.747
28460WAT     H285623   9.353   5.517   4.714
28461WAT      O85624   9.874   7.350   0.543
28461WAT     H185625   9.946   7.365   0.475
28461WAT     H285626   9.887   7.260   0.586
28462WAT      O85627   8.300   1.944   3.799
28462WAT     H185628   8.222   2.004   3.816
28462WAT     H285629   8.285   1.894   3.714
28463WAT      O85630   5.117   1.524   9.493
28463WAT     H185631   5.051   1.598   9.477
28463WAT     H285632   5.105   1.488   9.586
28464WAT      O85633   2.939   2.748   8.752
28464WAT     H185634   2.902   2.780   8.839
28464WAT     H285635   3.012   2.681   8.770
28465WAT      O85636   3.918   0.932   0.090
28465WAT     H185637   3.890   0.889   0.004
28465WAT     H285638   3.933   0.862   0.159
28466WAT      O85639   7.735   0.162   6.669
28466WAT     H185640   7.781   0.079   6.638
28466WAT     H285641   7.774   0.241   6.621
28467WAT      O85642   9.218   3.380   0.864
28467WAT     H185643   9.308   3.349   0.893
28467WAT     H285644   9.223   3.477   0.838
28468WAT      O85645   6.577   6.735   9.133
28468WAT     H185646   6.574   6.642   9.170
28468WAT     H285647   6.485   6.774   9.132
28469WAT      O85648   0.253   4.117   5.163
28469WAT     H185649   0.228   4.046   5.097
28469WAT     H285650   0.185   4.190   5.160
28470WAT      O85651   1.155   9.143   3.253
28470WAT     H185652   1.067   9.137   3.300
28470WAT     H285653   1.210   9.214   3.296
28471WAT      O85654   5.383   6.767   4.621
28471WAT     H185655   5.327   6.752   4.540
28471WAT     H285656   5.444   6.689   4.636
28472WAT      O85657   3.124   4.219   5.644
28472WAT     H185658   3.133   4.144   5.709
28472WAT     H285659   3.214   4.261   5.630
28473WAT      O85660   2.710   8.035   0.334
28473WAT     H185661   2.640   8.013   0.403
28473WAT     H285662   2.668   8.086   0.259
28474WAT      O85663   1.749   8.317   7.606
28474WAT     H185664   1.712   8.379   7.538
28474WAT     H285665   1.706   8.227   7.597
28475WAT      O85666   4.810   0.237   6.641
28475WAT     H185667   4.734   0.287   6.599
28475WAT     H285668   4.787   0.139   6.646
28476WAT      O85669   4.604   5.047   2.290
28476WAT     H185670   4.647   4.957   2.297
28476WAT     H285671   4.535   5.045   2.218
28477WAT      O85672   1.972   2.431   8.647
28477WAT     H185673   2.022   2.362   8.596
28477WAT     H285674   1.996   2.425   8.744
28478WAT      O85675   2.273   3.247   3.165
28478WAT     H185676   2.298   3.343   3.172
28478WAT     H285677   2.174   3.238   3.172
28479WAT      O85678   8.563   8.923   4.148
28479WAT     H185679   8.627   8.999   4.158
28479WAT     H285680   8.602   8.840   4.188
28480WAT      O85681   6.532   8.805   4.520
28480WAT     H185682   6.483   8.780   4.604
28480WAT     H285683   6.605   8.869   4.542
28481WAT      O85684   4.011   3.032   7.071
28481WAT     H185685   4.041   2.937   7.056
28481WAT     H285686   4.079   3.094   7.034
28482WAT      O85687   2.129   7.809   2.410
28482WAT     H185688   2.032   7.784   2.413
28482WAT     H285689   2.170   7.800   2.501
28483WAT      O85690   4.825   6.342   1.653
28483WAT     H185691   4.851   6.260   1.705
28483WAT     H285692   4.779   6.406   1.714
28484WAT      O85693   2.070   4.943   1.794
28484WAT     H185694   1.997   5.003   1.824
28484WAT     H285695   2.034   4.872   1.734
28485WAT      O85696   5.608   3.557   9.715
28485WAT     H185697   5.537   3.525   9.778
28485WAT     H285698   5.610   3.657   9.713
28486WAT      O85699   6.391   9.619   0.566
28486WAT     H185700   6.328   9.606   0.643
28486WAT     H285701   6.342   9.663   0.490
28487WAT      O85702   1.223   6.081   1.071
28487WAT     H185703   1.236   6.179   1.089
28487WAT     H285704   1.286   6.028   1.128
28488WAT      O85705   1.738   0.435   8.823
28488WAT     H185706   1.786   0.461   8.740
28488WAT     H285707   1.752   0.337   8.841
28489WAT      O85708   8.671   1.561   9.870
28489WAT     H185709   8.765   1.555   9.905
28489WAT     H285710   8.664   1.638   9.807
28490WAT      O85711   5.462   2.638   0.692
28490WAT     H185712   5.524   2.639   0.771
28490WAT     H285713   5.409   2.552   0.692
28491WAT      O85714   4.972   7.005   4.791
28491WAT     H185715   5.058   7.030   4.747
28491WAT     H285716   4.947   6.912   4.765
28492WAT      O85717   2.412   0.214   5.574
28492WAT     H185718   2.441   0.236   5.481
28492WAT     H285719   2.312   0.214   5.579
28493WAT      O85720   7.361   7.130   2.422
28493WAT     H185721   7.437   7.124   2.487
28493WAT     H285722   7.371   7.213   2.366
28494WAT      O85723   9.634   0.788   8.330
28494WAT     H185724   9.588   0.870   8.365
28494WAT     H285725   9.615   0.711   8.390
28495WAT      O85726   4.154   0.466   5.112
28495WAT     H185727   4.181   0.424   5.199
28495WAT     H285728   4.130   0.395   5.046
28496WAT      O85729   7.292   0.238   9.531
28496WAT     H185730   7.389   0.226   9.507
28496WAT     H285731   7.268   0.176   9.605
28497WAT      O85732   1.619   9.287   7.660
28497WAT     H185733   1.579   9.337   7.583
28497WAT     H285734   1.702   9.333   7.690
28498WAT      O85735   0.351   0.716   1.807
28498WAT     H185736   0.261   0.706   1.765
28498WAT     H285737   0.421   0.681   1.745
28499WAT      O85738   9.119   5.735   7.069
28499WAT     H185739   9.164   5.696   6.989
28499WAT     H285740   9.057   5.667   7.109
28500WAT      O85741   0.133   9.327   2.109
28500WAT     H185742   0.063   9.275   2.159
28500WAT     H285743   0.152   9.282   2.021
28501WAT      O85744   8.284   2.552   9.138
28501WAT     H185745   8.185   2.542   9.153
28501WAT     H285746   8.301   2.565   9.040
28502WAT      O85747   6.792   8.531   4.890
28502WAT     H185748   6.716   8.560   4.831
28502WAT     H285749   6.830   8.610   4.937
28503WAT      O85750   7.999   5.331   4.969
28503WAT     H185751   8.029   5.317   4.874
28503WAT     H285752   7.966   5.244   5.006
28504WAT      O85753   5.006   9.262   0.340
28504WAT     H185754   5.027   9.264   0.438
28504WAT     H285755   5.082   9.219   0.290
28505WAT      O85756   8.754   8.237   4.588
28505WAT     H185757   8.766   8.142   4.560
28505WAT     H285758   8.781   8.298   4.514
28506WAT      O85759   0.103   1.647   0.059
28506WAT     H185760   0.054   1.561   0.074
28506WAT     H285761   0.070   1.716   0.124
28507WAT      O85762   3.143   6.431   7.522
28507WAT     H185763   3.062   6.488   7.517
28507WAT     H285764   3.204   6.453   7.445
28508WAT      O85765   0.066   1.328   5.173
28508WAT     H185766   0.069   1.363   5.079
28508WAT     H285767   0.132   1.254   5.183
28509WAT      O85768   9.311   7.898   9.230
28509WAT     H185769   9.327   7.892   9.328
28509WAT     H285770   9.374   7.839   9.181
28510WAT      O85771   1.830   8.659   0.434
28510WAT     H185772   1.825   8.719   0.354
28510WAT     H285773   1.750   8.599   0.435
28511WAT      O85774   0.329   9.199   3.243
28511WAT     H185775   0.345   9.111   3.199
28511WAT     H285776   0.338   9.190   3.342
28512WAT      O85777   9.239   6.310   1.952
28512WAT     H185778   9.203   6.394   1.992
28512WAT     H285779   9.169   6.269   1.894
28513WAT      O85780   9.223   8.331   4.440
28513WAT     H185781   9.204   8.321   4.538
28513WAT     H285782   9.138   8.353   4.393
28514WAT      O85783   7.474   8.562   2.690
28514WAT     H185784   7.463   8.476   2.740
28514WAT     H285785   7.415   8.561   2.609
28515WAT      O85786   4.946   9.116   2.072
28515WAT     H185787   4.850   9.144   2.074
28515WAT     H285788   4.962   9.044   2.139
28516WAT      O85789   1.338   1.429   9.099
28516WAT     H185790   1.302   1.473   9.181
28516WAT     H285791   1.424   1.383   9.121
28517WAT      O85792   2.014   8.717   7.095
28517WAT     H185793   1.927   8.763   7.076
28517WAT     H285794   2.064   8.768   7.166
28518WAT      O85795   4.873   0.779   3.594
28518WAT     H185796   4.821   0.861   3.622
28518WAT     H285797   4.811   0.714   3.550
28519WAT      O85798   1.594   8.622   4.813
28519WAT     H185799   1.579   8.588   4.906
28519WAT     H285800   1.683   8.666   4.807
28520WAT      O85801   5.092   6.279   7.893
28520WAT     H185802   5.050   6.192   7.866
28520WAT     H285803   5.091   6.342   7.815
28521WAT      O85804   7.708   4.472   2.417
28521WAT     H185805   7.646   4.395   2.401
28521WAT     H285806   7.686   4.516   2.504
28522WAT      O85807   6.874   7.099   1.638
28522WAT     H185808   6.807   7.059   1.700
28522WAT     H285809   6.942   7.150   1.690
28523WAT      O85810   0.501   0.325   8.433
28523WAT     H185811   0.412   0.293   8.402
28523WAT     H285812   0.551   0.250   8.475
28524WAT      O85813   4.677   8.154   2.830
28524WAT     H185814   4.723   8.239   2.855
28524WAT     H285815   4.612   8.172   2.756
28525WAT      O85816   6.173   9.076   1.850
28525WAT     H185817   6.240   9.041   1.916
28525WAT     H285818   6.086   9.027   1.862
28526WAT      O85819   7.554   4.088   2.628
28526WAT     H185820   7.483   4.105   2.697
28526WAT     H285821   7.549   3.992   2.598
28527WAT      O85822   3.538   4.540   0.265
28527WAT     H185823   3.569   4.631   0.294
28527WAT     H285824   3.441   4.528   0.288
28528WAT      O85825   3.181   7.883   1.162
28528WAT     H185826   3.100   7.834   1.132
28528WAT     H285827   3.253   7.876   1.092
28529WAT      O85828   1.843   5.000   4.803
28529WAT     H185829   1.939   4.991   4.778
28529WAT     H285830   1.786   4.972   4.726
28530WAT      O85831   3.781   7.590   3.964
28530WAT     H185832   3.733   7.661   4.017
28530WAT     H285833   3.716   7.538   3.910
28531WAT      O85834   3.028   7.739   7.031
28531WAT     H185835   3.102   7.672   7.034
28531WAT     H285836   3.027   7.784   6.941
28532WAT      O85837   4.158   0.661   3.490
28532WAT     H185838   4.210   0.583   3.525
28532WAT     H285839   4.214   0.743   3.497
28533WAT      O85840   6.886   2.913   7.639
28533WAT     H185841   6.889   2.963   7.725
28533WAT     H285842   6.833   2.966   7.572
28534WAT      O85843   2.502   0.428   6.168
28534WAT     H185844   2.553   0.509   6.139
28534WAT     H285845   2.484   0.370   6.088
28535WAT      O85846   9.816   4.429   1.505
28535WAT     H185847   9.876   4.503   1.477
28535WAT     H285848   9.772   4.452   1.592
28536WAT      O85849   1.779   5.438   3.793
28536WAT     H185850   1.717   5.384   3.851
28536WAT     H285851   1.855   5.381   3.763
28537WAT      O85852   0.673   9.002   3.621
28537WAT     H185853   0.697   9.011   3.718
28537WAT     H285854   0.625   9.085   3.591
28538WAT      O85855   6.276   8.874   1.154
28538WAT     H185856   6.306   8.876   1.250
28538WAT     H285857   6.354   8.893   1.094
28539WAT      O85858   0.185   1.283   9.082
28539WAT     H185859   0.202   1.330   8.996
28539WAT     H285860   0.270   1.277   9.134
28540WAT      O85861   4.896   2.411   8.682
28540WAT     H185862   4.826   2.421   8.753
28540WAT     H285863   4.872   2.337   8.620
28541WAT      O85864   6.004   4.805   8.469
28541WAT     H185865   6.015   4.780   8.565
28541WAT     H285866   5.908   4.792   8.442
28542WAT      O85867   6.412   9.115   4.300
28542WAT     H185868   6.500   9.104   4.253
28542WAT     H285869   6.339   9.079   4.242
28543WAT      O85870   1.709   9.587   4.999
28543WAT     H185871   1.795   9.614   4.956
28543WAT     H285872   1.711   9.610   5.096
28544WAT      O85873   0.717   5.743   3.760
28544WAT     H185874   0.681   5.748   3.667
28544WAT     H285875   0.817   5.741   3.757
28545WAT      O85876   3.268   4.857   5.941
28545WAT     H185877   3.175   4.887   5.960
28545WAT     H285878   3.332   4.909   5.999
28546WAT      O85879   3.607   4.232   4.766
28546WAT     H185880   3.629   4.300   4.837
28546WAT     H285881   3.570   4.150   4.809
28547WAT      O85882   0.532   0.743   3.464
28547WAT     H185883   0.526   0.834   3.504
28547WAT     H285884   0.586   0.747   3.380
28548WAT      O85885   4.519   8.297   8.658
28548WAT     H185886   4.431   8.251   8.666
28548WAT     H285887   4.568   8.260   8.579
28549WAT      O85888   7.860   5.458   2.273
28549WAT     H185889   7.898   5.514   2.200
28549WAT     H285890   7.915   5.375   2.284
28550WAT      O85891   0.334   3.604   3.639
28550WAT     H185892   0.260   3.541   3.615
28550WAT     H285893   0.393   3.560   3.707
28551WAT      O85894   1.405   1.393   4.701
28551WAT     H185895   1.475   1.455   4.666
28551WAT     H285896   1.398   1.313   4.641
28552WAT      O85897   6.129   4.050   7.620
28552WAT     H185898   6.143   4.039   7.718
28552WAT     H285899   6.217   4.042   7.572
28553WAT      O85900   5.863   8.954   1.341
28553WAT     H185901   5.870   8.978   1.438
28553WAT     H285902   5.785   8.893   1.327
28554WAT      O85903   8.817   2.173   0.501
28554WAT     H185904   8.910   2.207   0.493
28554WAT     H285905   8.802   2.137   0.594
28555WAT      O85906   5.950   9.386   3.962
28555WAT     H185907   5.957   9.377   4.061
28555WAT     H285908   5.869   9.440   3.938
28556WAT      O85909   2.293   2.680   3.455
28556WAT     H185910   2.220   2.612   3.452
28556WAT     H285911   2.320   2.695   3.550
28557WAT      O85912   4.216   0.967   4.094
28557WAT     H185913   4.248   1.039   4.155
28557WAT     H285914   4.214   1.000   4.000
28558WAT      O85915   8.054   8.360   5.440
28558WAT     H185916   8.062   8.323   5.532
28558WAT     H285917   8.106   8.302   5.376
28559WAT      O85918   3.195   5.499   6.623
28559WAT     H185919   3.110   5.447   6.630
28559WAT     H285920   3.185   5.570   6.553
28560WAT      O85921   8.662   8.859   6.097
28560WAT     H185922   8.687   8.948   6.059
28560WAT     H285923   8.565   8.859   6.121
28561WAT      O85924   4.243   6.402   2.323
28561WAT     H185925   4.259   6.423   2.420
28561WAT     H285926   4.144   6.401   2.305
28562WAT      O85927   2.443   5.980   0.327
28562WAT     H185928   2.530   5.936   0.348
28562WAT     H285929   2.425   6.052   0.395
28563WAT      O85930   2.123   1.920   0.541
28563WAT     H185931   2.171   1.972   0.470
28563WAT     H285932   2.034   1.962   0.558
28564WAT      O85933   1.359   3.024   7.231
28564WAT     H185934   1.365   3.072   7.144
28564WAT     H285935   1.264   3.020   7.261
28565WAT      O85936   7.762   0.009   6.206
28565WAT     H185937   7.691   0.044   6.268
28565WAT     H285938   7.758   0.058   6.119
28566WAT      O85939   5.596   2.980   2.932
28566WAT     H185940   5.512   2.926   2.926
28566WAT     H285941   5.606   3.034   2.848
28567WAT      O85942   4.238   7.813   1.141
28567WAT     H185943   4.192   7.792   1.227
28567WAT     H285944   4.170   7.821   1.068
28568WAT      O85945   4.842   2.728   6.301
28568WAT     H185946   4.846   2.733   6.401
28568WAT     H285947   4.775   2.658   6.274
28569WAT      O85948   7.512   3.652   3.919
28569WAT     H185949   7.461   3.694   3.844
28569WAT     H285950   7.478   3.688   4.006
28570WAT      O85951   9.425   0.922   6.867
28570WAT     H185952   9.488   0.852   6.836
28570WAT     H285953   9.469   1.012   6.862
28571WAT      O85954   7.933   6.540   1.406
28571WAT     H185955   7.860   6.564   1.470
28571WAT     H285956   7.894   6.518   1.317
28572WAT      O85957   7.491   7.697   4.986
28572WAT     H185958   7.428   7.620   4.974
28572WAT     H285959   7.585   7.665   4.973
28573WAT      O85960   6.234   1.753   1.667
28573WAT     H185961   6.276   1.795   1.586
28573WAT     H285962   6.287   1.673   1.695
28574WAT      O85963   7.246   3.119   6.962
28574WAT     H185964   7.276   3.126   6.867
28574WAT     H285965   7.325   3.123   7.023
28575WAT      O85966   7.098   9.390   0.737
28575WAT     H185967   7.020   9.372   0.677
28575WAT     H285968   7.090   9.482   0.774
28576WAT      O85969   5.148   6.003   8.711
28576WAT     H185970   5.089   6.009   8.791
28576WAT     H285971   5.143   5.911   8.671
28577WAT      O85972   8.623   5.984   4.130
28577WAT     H185973   8.578   5.929   4.200
28577WAT     H285974   8.694   5.929   4.085
28578WAT      O85975   0.931   1.614   0.458
28578WAT     H185976   0.916   1.515   0.459
28578WAT     H285977   0.986   1.639   0.538
28579WAT      O85978   0.952   4.296   9.386
28579WAT     H185979   1.051   4.304   9.386
28579WAT     H285980   0.926   4.200   9.390
28580WAT      O85981   4.735   6.131   4.120
28580WAT     H185982   4.645   6.092   4.101
28580WAT     H285983   4.741   6.221   4.077
28581WAT      O85984   6.356   8.440   4.675
28581WAT     H185985   6.451   8.410   4.679
28581WAT     H285986   6.298   8.370   4.716
28582WAT      O85987   2.416   1.438   8.422
28582WAT     H185988   2.336   1.464   8.368
28582WAT     H285989   2.389   1.422   8.517
28583WAT      O85990   2.429   8.420   8.097
28583WAT     H185991   2.402   8.369   8.016
28583WAT     H285992   2.347   8.448   8.147
28584WAT      O85993   1.282   6.177   4.905
28584WAT     H185994   1.355   6.120   4.868
28584WAT     H285995   1.288   6.269   4.867
28585WAT      O85996   8.536   8.348   3.688
28585WAT     H185997   8.493   8.416   3.748
28585WAT     H285998   8.532   8.258   3.732
28586WAT      O85999   5.463   8.496   7.900
28586WAT     H186000   5.526   8.449   7.838
28586WAT     H286001   5.389   8.433   7.925
28587WAT      O86002   5.583   2.287   1.531
28587WAT     H186003   5.674   2.324   1.553
28587WAT     H286004   5.539   2.345   1.463
28588WAT      O86005   1.091   4.970   1.707
28588WAT     H186006   1.161   4.966   1.779
28588WAT     H286007   1.048   4.880   1.698
28589WAT      O86008   9.399   0.551   1.027
28589WAT     H186009   9.397   0.604   1.112
28589WAT     H286010   9.494   0.539   0.998
28590WAT      O86011   8.459   7.766   6.953
28590WAT     H186012   8.494   7.701   6.885
28590WAT     H286013   8.359   7.769   6.949
28591WAT      O86014   0.192   6.109   6.004
28591WAT     H186015   0.119   6.127   6.069
28591WAT     H286016   0.251   6.189   5.996
28592WAT      O86017   5.137   9.356   6.123
28592WAT     H186018   5.054   9.386   6.075
28592WAT     H286019   5.110   9.300   6.202
28593WAT      O86020   8.725   8.740   0.041
28593WAT     H186021   8.642   8.744  -0.015
28593WAT     H286022   8.798   8.791  -0.004
28594WAT      O86023   3.185   2.152   3.374
28594WAT     H186024   3.254   2.223   3.390
28594WAT     H286025   3.122   2.183   3.303
28595WAT      O86026   9.192   3.112   8.073
28595WAT     H186027   9.188   3.198   8.022
28595WAT     H286028   9.133   3.044   8.029
28596WAT      O86029   0.987   6.994   1.274
28596WAT     H186030   0.897   7.007   1.232
28596WAT     H286031   0.977   6.941   1.358
28597WAT      O86032   9.205   4.599   0.963
28597WAT     H186033   9.280   4.664   0.974
28597WAT     H286034   9.197   4.573   0.867
28598WAT      O86035   1.594   9.275   1.998
28598WAT     H186036   1.520   9.310   1.940
28598WAT     H286037   1.573   9.182   2.026
28599WAT      O86038   3.886   8.847   2.206
28599WAT     H186039   3.962   8.896   2.164
28599WAT     H286040   3.902   8.838   2.304
28600WAT      O86041   5.122   2.055   6.707
28600WAT     H186042   5.085   2.073   6.616
28600WAT     H286043   5.152   2.140   6.749
28601WAT      O86044   3.798   1.602   0.623
28601WAT     H186045   3.724   1.589   0.557
28601WAT     H286046   3.886   1.582   0.578
28602WAT      O86047   4.165   4.689   3.019
28602WAT     H186048   4.079   4.735   3.039
28602WAT     H286049   4.241   4.746   3.050
28603WAT      O86050   2.303   4.292   5.870
28603WAT     H186051   2.312   4.224   5.942
28603WAT     H286052   2.207   4.299   5.842
28604WAT      O86053   8.727   4.104   9.259
28604WAT     H186054   8.714   4.035   9.188
28604WAT     H286055   8.654   4.172   9.252
28605WAT      O86056   2.121   5.883   3.814
28605WAT     H186057   2.082   5.790   3.818
28605WAT     H286058   2.102   5.931   3.899
28606WAT      O86059   1.849   9.791   0.532
28606WAT     H186060   1.864   9.697   0.562
28606WAT     H286061   1.881   9.801   0.438
28607WAT      O86062   7.786   4.443   9.096
28607WAT     H186063   7.690   4.470   9.104
28607WAT     H286064   7.842   4.502   9.154
28608WAT      O86065   7.907   1.768   2.459
28608WAT     H186066   7.841   1.696   2.479
28608WAT     H286067   7.995   1.726   2.433
28609WAT      O86068   8.520   7.919   5.856
28609WAT     H186069   8.421   7.916   5.866
28609WAT     H286070   8.550   7.846   5.795
28610WAT      O86071   5.975   3.775   8.177
28610WAT     H186072   6.067   3.762   8.216
28610WAT     H286073   5.975   3.747   8.081
28611WAT      O86074   2.840   5.129   6.560
28611WAT     H186075   2.748   5.136   6.520
28611WAT     H286076   2.833   5.108   6.657
28612WAT      O86077   6.036   6.559   6.923
28612WAT     H186078   6.027   6.459   6.925
28612WAT     H286079   5.996   6.598   7.006
28613WAT      O86080   3.069   1.238   2.449
28613WAT     H186081   3.084   1.329   2.411
28613WAT     H286082   3.136   1.174   2.411
28614WAT      O86083   4.633   8.861   0.909
28614WAT     H186084   4.594   8.770   0.917
28614WAT     H286085   4.732   8.856   0.923
28615WAT      O86086   9.047   9.392   9.274
28615WAT     H186087   9.112   9.322   9.301
28615WAT     H286088   9.009   9.370   9.184
28616WAT      O86089   5.505   1.667   7.780
28616WAT     H186090   5.431   1.642   7.717
28616WAT     H286091   5.543   1.583   7.820
28617WAT      O86092   1.663   7.707   3.111
28617WAT     H186093   1.578   7.719   3.060
28617WAT     H286094   1.713   7.629   3.074
28618WAT      O86095   0.700   8.206   1.228
28618WAT     H186096   0.655   8.141   1.166
28618WAT     H286097   0.648   8.213   1.313
28619WAT      O86098   7.702   9.685   2.825
28619WAT     H186099   7.741   9.654   2.738
28619WAT     H286100   7.695   9.785   2.825
28620WAT      O86101   9.597   9.053   5.444
28620WAT     H186102   9.621   9.073   5.349
28620WAT     H286103   9.643   9.119   5.504
28621WAT      O86104   2.250   6.483   1.891
28621WAT     H186105   2.201   6.405   1.851
28621WAT     H286106   2.245   6.560   1.828
28622WAT      O86107   7.949   3.581   8.332
28622WAT     H186108   7.967   3.588   8.430
28622WAT     H286109   8.018   3.524   8.289
28623WAT      O86110   8.191   5.147   4.443
28623WAT     H186111   8.145   5.109   4.363
28623WAT     H286112   8.194   5.078   4.515
28624WAT      O86113   8.417   1.183   3.183
28624WAT     H186114   8.503   1.191   3.233
28624WAT     H286115   8.381   1.090   3.193
28625WAT      O86116   9.478   4.964   3.474
28625WAT     H186117   9.504   4.908   3.552
28625WAT     H286118   9.413   4.914   3.416
28626WAT      O86119   2.523   6.192   4.730
28626WAT     H186120   2.433   6.201   4.688
28626WAT     H286121   2.594   6.202   4.661
28627WAT      O86122   8.572   6.780   5.716
28627WAT     H186123   8.507   6.783   5.792
28627WAT     H286124   8.522   6.796   5.630
28628WAT      O86125   7.308   4.269   8.239
28628WAT     H186126   7.238   4.290   8.307
28628WAT     H286127   7.398   4.292   8.276
28629WAT      O86128   1.916   0.466   3.389
28629WAT     H186129   1.930   0.561   3.360
28629WAT     H286130   1.820   0.441   3.377
28630WAT      O86131   5.780   4.258   1.982
28630WAT     H186132   5.857   4.253   2.045
28630WAT     H286133   5.707   4.196   2.012
28631WAT      O86134   3.760   2.171   1.499
28631WAT     H186135   3.732   2.201   1.590
28631WAT     H286136   3.766   2.249   1.438
28632WAT      O86137   1.188   3.794   1.183
28632WAT     H186138   1.123   3.777   1.109
28632WAT     H286139   1.273   3.831   1.146
28633WAT      O86140   8.166   9.796   3.196
28633WAT     H186141   8.143   9.885   3.236
28633WAT     H286142   8.194   9.809   3.101
28634WAT      O86143   9.579   8.668   3.996
28634WAT     H186144   9.648   8.678   3.924
28634WAT     H286145   9.550   8.759   4.027
28635WAT      O86146   3.619   5.592   5.845
28635WAT     H186147   3.615   5.677   5.899
28635WAT     H286148   3.528   5.569   5.812
28636WAT      O86149   4.512   1.537   6.132
28636WAT     H186150   4.503   1.511   6.228
28636WAT     H286151   4.507   1.456   6.074
28637WAT      O86152   5.965   2.325   6.312
28637WAT     H186153   5.948   2.277   6.225
28637WAT     H286154   5.970   2.423   6.295
28638WAT      O86155   6.555   3.283   6.157
28638WAT     H186156   6.584   3.317   6.067
28638WAT     H286157   6.530   3.186   6.150
28639WAT      O86158   7.047   9.712   6.876
28639WAT     H186159   6.957   9.670   6.862
28639WAT     H286160   7.048   9.803   6.836
28640WAT      O86161   5.742   8.530   4.873
28640WAT     H186162   5.755   8.605   4.938
28640WAT     H286163   5.778   8.557   4.784
28641WAT      O86164   0.061   6.814   8.986
28641WAT     H186165   0.001   6.824   8.907
28641WAT     H286166   0.105   6.901   9.006
28642WAT      O86167   5.410   3.992   0.764
28642WAT     H186168   5.381   4.082   0.732
28642WAT     H286169   5.507   3.979   0.743
28643WAT      O86170   4.546   4.914   4.083
28643WAT     H186171   4.575   4.894   4.177
28643WAT     H286172   4.471   4.854   4.058
28644WAT      O86173   3.219   3.894   1.635
28644WAT     H186174   3.297   3.927   1.582
28644WAT     H286175   3.160   3.838   1.577
28645WAT      O86176   3.019   7.749   2.298
28645WAT     H186177   3.115   7.778   2.295
28645WAT     H286178   2.997   7.718   2.391
28646WAT      O86179   3.667   3.954   0.322
28646WAT     H186180   3.656   3.854   0.327
28646WAT     H286181   3.604   3.998   0.385
28647WAT      O86182   1.290   3.659   5.153
28647WAT     H186183   1.275   3.660   5.054
28647WAT     H286184   1.384   3.631   5.172
28648WAT      O86185   8.307   3.335   6.530
28648WAT     H186186   8.399   3.300   6.511
28648WAT     H286187   8.242   3.293   6.466
28649WAT      O86188   0.520   8.094   4.140
28649WAT     H186189   0.576   8.052   4.069
28649WAT     H286190   0.557   8.185   4.162
28650WAT      O86191   7.219   2.426   6.450
28650WAT     H186192   7.124   2.454   6.464
28650WAT     H286193   7.225   2.327   6.455
28651WAT      O86194   5.246   9.154   2.803
28651WAT     H186195   5.322   9.095   2.775
28651WAT     H286196   5.271   9.203   2.887
28652WAT      O86197   8.360   6.502   4.107
28652WAT     H186198   8.350   6.533   4.201
28652WAT     H286199   8.291   6.432   4.087
28653WAT      O86200   7.889   9.166   0.267
28653WAT     H186201   7.909   9.246   0.323
28653WAT     H286202   7.974   9.119   0.244
28654WAT      O86203   5.625   8.341   7.719
28654WAT     H186204   5.631   8.419   7.656
28654WAT     H286205   5.576   8.266   7.675
28655WAT      O86206   0.507   7.068   6.051
28655WAT     H186207   0.431   7.059   6.115
28655WAT     H286208   0.528   7.165   6.037
28656WAT      O86209   9.529   1.654   7.060
28656WAT     H186210   9.594   1.690   7.127
28656WAT     H286211   9.438   1.650   7.101
28657WAT      O86212   6.646   1.073   6.716
28657WAT     H186213   6.725   1.013   6.729
28657WAT     H286214   6.620   1.113   6.804
28658WAT      O86215   4.272   2.408   7.687
28658WAT     H186216   4.244   2.502   7.666
28658WAT     H286217   4.334   2.375   7.616
28659WAT      O86218   9.591   6.811   0.775
28659WAT     H186219   9.644   6.848   0.698
28659WAT     H286220   9.625   6.849   0.860
28660WAT      O86221   5.187   5.470   9.490
28660WAT     H186222   5.115   5.520   9.538
28660WAT     H286223   5.276   5.509   9.514
28661WAT      O86224   9.598   2.001   4.360
28661WAT     H186225   9.578   1.929   4.294
28661WAT     H286226   9.648   1.963   4.438
28662WAT      O86227   4.519   0.201   7.099
28662WAT     H186228   4.489   0.216   7.193
28662WAT     H286229   4.613   0.235   7.088
28663WAT      O86230   6.066   8.682   9.323
28663WAT     H186231   6.087   8.765   9.271
28663WAT     H286232   6.115   8.605   9.283
28664WAT      O86233   8.567   8.318   8.505
28664WAT     H186234   8.513   8.380   8.449
28664WAT     H286235   8.507   8.262   8.561
28665WAT      O86236   5.753   0.510   2.205
28665WAT     H186237   5.781   0.597   2.246
28665WAT     H286238   5.832   0.450   2.196
28666WAT      O86239   4.882   6.874   4.085
28666WAT     H186240   4.829   6.791   4.104
28666WAT     H286241   4.976   6.860   4.114
28667WAT      O86242   9.160   9.773   9.741
28667WAT     H186243   9.188   9.824   9.823
28667WAT     H286244   9.121   9.836   9.674
28668WAT      O86245   1.876   6.061   4.019
28668WAT     H186246   1.901   6.156   4.003
28668WAT     H286247   1.780   6.046   3.992
28669WAT      O86248   1.565   3.726   1.226
28669WAT     H186249   1.570   3.695   1.131
28669WAT     H286250   1.494   3.674   1.274
28670WAT      O86251   3.766   2.807   1.489
28670WAT     H186252   3.731   2.747   1.561
28670WAT     H286253   3.858   2.776   1.463
28671WAT      O86254   2.129   1.008   3.070
28671WAT     H186255   2.121   0.909   3.073
28671WAT     H286256   2.121   1.045   3.162
28672WAT      O86257   0.493   3.924   0.396
28672WAT     H186258   0.510   3.877   0.309
28672WAT     H286259   0.579   3.939   0.444
28673WAT      O86260   3.090   3.383   6.372
28673WAT     H186261   2.990   3.379   6.379
28673WAT     H286262   3.130   3.374   6.463
28674WAT      O86263   0.308   2.449   2.402
28674WAT     H186264   0.248   2.369   2.404
28674WAT     H286265   0.264   2.523   2.352
28675WAT      O86266   2.505   3.360   3.025
28675WAT     H186267   2.451   3.424   3.078
28675WAT     H286268   2.575   3.410   2.973
28676WAT      O86269   3.386   0.305   5.223
28676WAT     H186270   3.469   0.321   5.170
28676WAT     H286271   3.383   0.369   5.300
28677WAT      O86272   3.338   0.277   6.371
28677WAT     H186273   3.344   0.206   6.442
28677WAT     H286274   3.429   0.306   6.345
28678WAT      O86275   6.175   3.516   4.335
28678WAT     H186276   6.138   3.482   4.422
28678WAT     H286277   6.125   3.474   4.260
28679WAT      O86278   8.704   9.666   7.339
28679WAT     H186279   8.733   9.634   7.429
28679WAT     H286280   8.774   9.646   7.271
28680WAT      O86281   7.852   7.490   2.325
28680WAT     H186282   7.796   7.565   2.362
28680WAT     H286283   7.946   7.500   2.356
28681WAT      O86284   1.075   7.878   0.339
28681WAT     H186285   0.975   7.882   0.349
28681WAT     H286286   1.109   7.794   0.381
28682WAT      O86287   3.329   6.262   3.621
28682WAT     H186288   3.270   6.309   3.687
28682WAT     H286289   3.359   6.327   3.551
28683WAT      O86290   4.253   5.083   7.546
28683WAT     H186291   4.182   5.046   7.606
28683WAT     H286292   4.214   5.102   7.456
28684WAT      O86293   9.741   1.196   4.986
28684WAT     H186294   9.744   1.138   5.067
28684WAT     H286295   9.816   1.171   4.925
28685WAT      O86296   5.414   2.303   0.889
28685WAT     H186297   5.366   2.343   0.811
28685WAT     H286298   5.495   2.254   0.858
28686WAT      O86299   2.325   1.927   4.922
28686WAT     H186300   2.265   1.861   4.967
28686WAT     H286301   2.346   1.895   4.830
28687WAT      O86302   0.233   3.477   7.831
28687WAT     H186303   0.153   3.436   7.873
28687WAT     H286304   0.204   3.538   7.757
28688WAT      O86305   2.324   1.573   2.190
28688WAT     H186306   2.333   1.579   2.290
28688WAT     H286307   2.376   1.646   2.147
28689WAT      O86308   8.948   0.129   1.436
28689WAT     H186309   9.010   0.094   1.366
28689WAT     H286310   8.963   0.227   1.448
28690WAT      O86311   0.691   0.102   6.767
28690WAT     H186312   0.638   0.186   6.751
28690WAT     H286313   0.766   0.122   6.830
28691WAT      O86314   4.281   0.290   4.753
28691WAT     H186315   4.372   0.319   4.781
28691WAT     H286316   4.287   0.201   4.707
28692WAT      O86317   3.006   2.432   6.601
28692WAT     H186318   2.946   2.457   6.524
28692WAT     H286319   3.093   2.480   6.593
28693WAT      O86320   7.571   9.035   4.469
28693WAT     H186321   7.596   9.087   4.551
28693WAT     H286322   7.621   8.949   4.467
28694WAT      O86323   4.868   6.677   5.593
28694WAT     H186324   4.898   6.761   5.548
28694WAT     H286325   4.942   6.640   5.649
28695WAT      O86326   8.653   4.265   6.403
28695WAT     H186327   8.669   4.325   6.481
28695WAT     H286328   8.739   4.224   6.373
28696WAT      O86329   2.448   9.680   1.507
28696WAT     H186330   2.387   9.612   1.546
28696WAT     H286331   2.396   9.741   1.447
28697WAT      O86332   4.444   0.248   8.554
28697WAT     H186333   4.424   0.334   8.602
28697WAT     H286334   4.409   0.171   8.607
28698WAT      O86335   5.241   4.822   1.415
28698WAT     H186336   5.337   4.802   1.396
28698WAT     H286337   5.228   4.839   1.512
28699WAT      O86338   0.337   1.329   6.957
28699WAT     H186339   0.244   1.361   6.976
28699WAT     H286340   0.337   1.229   6.948
28700WAT      O86341   6.021   7.586   9.246
28700WAT     H186342   5.934   7.553   9.282
28700WAT     H286343   6.088   7.512   9.246
28701WAT      O86344   6.570   7.580   2.812
28701WAT     H186345   6.668   7.589   2.830
28701WAT     H286346   6.533   7.505   2.866
28702WAT      O86347   2.681   4.572   8.360
28702WAT     H186348   2.697   4.667   8.388
28702WAT     H286349   2.720   4.558   8.269
28703WAT      O86350   5.651   4.063   4.122
28703WAT     H186351   5.694   4.150   4.146
28703WAT     H286352   5.572   4.047   4.182
28704WAT      O86353   0.449   4.900   2.894
28704WAT     H186354   0.474   4.954   2.974
28704WAT     H286355   0.531   4.880   2.840
28705WAT      O86356   4.104   5.802   0.697
28705WAT     H186357   4.168   5.830   0.625
28705WAT     H286358   4.036   5.873   0.711
28706WAT      O86359   3.814   8.011   3.317
28706WAT     H186360   3.892   7.968   3.271
28706WAT     H286361   3.802   7.970   3.407
28707WAT      O86362   0.660   2.453   9.673
28707WAT     H186363   0.645   2.551   9.655
28707WAT     H286364   0.626   2.431   9.765
28708WAT      O86365   2.500   0.800   9.774
28708WAT     H186366   2.442   0.746   9.836
28708WAT     H286367   2.446   0.874   9.734
28709WAT      O86368   3.863   1.016   3.653
28709WAT     H186369   3.845   0.925   3.616
28709WAT     H286370   3.808   1.083   3.605
28710WAT      O86371   6.809   4.547   3.364
28710WAT     H186372   6.802   4.585   3.272
28710WAT     H286373   6.754   4.602   3.427
28711WAT      O86374   0.749   7.203   6.697
28711WAT     H186375   0.769   7.173   6.791
28711WAT     H286376   0.655   7.236   6.692
28712WAT      O86377   2.861   5.014   2.166
28712WAT     H186378   2.891   5.031   2.260
28712WAT     H286379   2.876   5.097   2.112
28713WAT      O86380   9.757   7.844   0.801
28713WAT     H186381   9.709   7.776   0.856
28713WAT     H286382   9.842   7.805   0.766
28714WAT      O86383   1.999   6.624   3.614
28714WAT     H186384   2.077   6.594   3.669
28714WAT     H286385   1.918   6.570   3.637
28715WAT      O86386   8.116   2.348   6.500
28715WAT     H186387   8.148   2.260   6.534
28715WAT     H286388   8.048   2.334   6.428
28716WAT      O86389   1.071   4.203   2.991
28716WAT     H186390   1.058   4.290   3.038
28716WAT     H286391   1.022   4.131   3.039
28717WAT      O86392   0.247   6.752   3.176
28717WAT     H186393   0.344   6.765   3.196
28717WAT     H286394   0.220   6.811   3.100
28718WAT      O86395   9.889   7.219   9.147
28718WAT     H186396   9.813   7.157   9.126
28718WAT     H286397   9.903   7.281   9.069
28719WAT      O86398   6.806   1.402   5.583
28719WAT     H186399   6.708   1.415   5.591
28719WAT     H286400   6.839   1.446   5.499
28720WAT      O86401   1.593   3.170   0.854
28720WAT     H186402   1.575   3.173   0.755
28720WAT     H286403   1.671   3.109   0.871
28721WAT      O86404   6.295   2.987   5.392
28721WAT     H186405   6.252   2.987   5.302
28721WAT     H286406   6.390   3.018   5.384
28722WAT      O86407   2.461   5.427   2.367
28722WAT     H186408   2.430   5.360   2.434
28722WAT     H286409   2.506   5.503   2.414
28723WAT      O86410   0.114   4.277   7.870
28723WAT     H186411   0.188   4.210   7.863
28723WAT     H286412   0.133   4.339   7.946
28724WAT      O86413   2.605   5.956   2.446
28724WAT     H186414   2.508   5.950   2.423
28724WAT     H286415   2.622   5.905   2.531
28725WAT      O86416   9.425   1.027   1.875
28725WAT     H186417   9.484   1.099   1.838
28725WAT     H286418   9.457   1.002   1.966
28726WAT      O86419   9.263   8.665   7.791
28726WAT     H186420   9.204   8.710   7.858
28726WAT     H286421   9.207   8.605   7.733
28727WAT      O86422   8.350   3.042   3.126
28727WAT     H186423   8.446   3.035   3.099
28727WAT     H286424   8.299   3.089   3.053
28728WAT      O86425   0.930   8.900   0.308
28728WAT     H186426   0.849   8.908   0.250
28728WAT     H286427   0.987   8.824   0.276
28729WAT      O86428   2.912   4.877   1.781
28729WAT     H186429   2.826   4.840   1.816
28729WAT     H286430   2.898   4.973   1.755
28730WAT      O86431   8.920   2.217   9.277
28730WAT     H186432   8.931   2.161   9.195
28730WAT     H286433   8.979   2.297   9.270
28731WAT      O86434   3.912   8.775   0.368
28731WAT     H186435   3.896   8.698   0.306
28731WAT     H286436   4.011   8.791   0.376
28732WAT      O86437   2.452   3.272   9.375
28732WAT     H186438   2.510   3.206   9.325
28732WAT     H286439   2.485   3.365   9.357
28733WAT      O86440   5.740   2.935   6.046
28733WAT     H186441   5.655   2.986   6.057
28733WAT     H286442   5.750   2.908   5.950
28734WAT      O86443   0.983   7.179   7.615
28734WAT     H186444   1.005   7.103   7.676
28734WAT     H286445   0.972   7.144   7.521
28735WAT      O86446   0.712   1.132   6.873
28735WAT     H186447   0.673   1.217   6.905
28735WAT     H286448   0.741   1.076   6.951
28736WAT      O86449   9.048   5.060   0.955
28736WAT     H186450   9.058   4.967   0.989
28736WAT     H286451   9.137   5.106   0.954
28737WAT      O86452   0.707   9.046   3.881
28737WAT     H186453   0.789   9.087   3.921
28737WAT     H286454   0.664   8.984   3.947
28738WAT      O86455   1.102   0.682   9.892
28738WAT     H186456   1.121   0.682   9.794
28738WAT     H286457   1.148   0.759   9.936
28739WAT      O86458   6.023   8.460   2.405
28739WAT     H186459   6.115   8.446   2.368
28739WAT     H286460   6.014   8.410   2.491
28740WAT      O86461   3.229   3.882   8.542
28740WAT     H186462   3.235   3.823   8.624
28740WAT     H286463   3.215   3.825   8.462
28741WAT      O86464   8.122   6.885   6.899
28741WAT     H186465   8.164   6.796   6.883
28741WAT     H286466   8.090   6.923   6.812
28742WAT      O86467   0.200   0.095   5.330
28742WAT     H186468   0.242   0.058   5.247
28742WAT     H286469   0.201   0.026   5.402
28743WAT      O86470   2.855   1.852   1.423
28743WAT     H186471   2.856   1.752   1.423
28743WAT     H286472   2.819   1.886   1.336
28744WAT      O86473   9.142   2.490   3.871
28744WAT     H186474   9.166   2.587   3.866
28744WAT     H286475   9.046   2.480   3.898
28745WAT      O86476   9.616   4.928   8.248
28745WAT     H186477   9.564   4.914   8.332
28745WAT     H286478   9.554   4.946   8.172
28746WAT      O86479   3.293   4.005   9.811
28746WAT     H186480   3.248   3.917   9.827
28746WAT     H286481   3.248   4.076   9.864
28747WAT      O86482   3.790   9.749   1.968
28747WAT     H186483   3.858   9.788   2.030
28747WAT     H286484   3.726   9.820   1.939
28748WAT      O86485   5.587   6.092   7.722
28748WAT     H186486   5.518   6.147   7.768
28748WAT     H286487   5.642   6.043   7.790
28749WAT      O86488   9.770   3.360   9.089
28749WAT     H186489   9.765   3.357   8.989
28749WAT     H286490   9.843   3.423   9.117
28750WAT      O86491   2.628   2.963   8.427
28750WAT     H186492   2.708   2.932   8.478
28750WAT     H286493   2.549   2.968   8.488
28751WAT      O86494   2.742   4.281   6.551
28751WAT     H186495   2.822   4.223   6.535
28751WAT     H286496   2.730   4.294   6.650
28752WAT      O86497   4.428   4.052   8.019
28752WAT     H186498   4.440   4.046   7.920
28752WAT     H286499   4.370   3.977   8.051
28753WAT      O86500   9.247   5.541   8.066
28753WAT     H186501   9.184   5.470   8.032
28753WAT     H286502   9.225   5.562   8.161
28754WAT      O86503   9.151   7.023   0.697
28754WAT     H186504   9.182   7.090   0.631
28754WAT     H286505   9.209   6.942   0.694
28755WAT      O86506   1.410   8.658   8.158
28755WAT     H186507   1.445   8.686   8.069
28755WAT     H286508   1.404   8.738   8.218
28756WAT      O86509   5.084   8.922   0.029
28756WAT     H186510   5.050   8.835  -0.007
28756WAT     H286511   5.036   8.998  -0.014
28757WAT      O86512   6.545   9.717   2.055
28757WAT     H186513   6.557   9.703   2.153
28757WAT     H286514   6.583   9.639   2.005
28758WAT      O86515   6.764   5.416   2.020
28758WAT     H186516   6.832   5.458   2.080
28758WAT     H286517   6.735   5.328   2.057
28759WAT      O86518   4.921   8.679   5.257
28759WAT     H186519   4.979   8.688   5.176
28759WAT     H286520   4.910   8.768   5.301
28760WAT      O86521   3.795   0.510   3.696
28760WAT     H186522   3.820   0.436   3.634
28760WAT     H286523   3.696   0.512   3.708
28761WAT      O86524   8.913   4.186   6.317
28761WAT     H186525   8.898   4.224   6.225
28761WAT     H286526   9.011   4.188   6.338
28762WAT      O86527   1.306   6.783   0.915
28762WAT     H186528   1.234   6.838   0.957
28762WAT     H286529   1.388   6.839   0.903
28763WAT      O86530   5.979   8.779   4.771
28763WAT     H186531   6.059   8.836   4.787
28763WAT     H286532   5.916   8.787   4.848
28764WAT      O86533   6.971   1.802   8.734
28764WAT     H186534   6.968   1.857   8.817
28764WAT     H286535   6.909   1.841   8.666
28765WAT      O86536   7.569   2.566   7.477
28765WAT     H186537   7.580   2.482   7.530
28765WAT     H286538   7.657   2.615   7.473
28766WAT      O86539   0.252   9.712   6.822
28766WAT     H186540   0.295   9.634   6.867
28766WAT     H286541   0.154   9.694   6.810
28767WAT      O86542   8.185   3.895   8.818
28767WAT     H186543   8.208   3.977   8.766
28767WAT     H286544   8.096   3.860   8.789
28768WAT      O86545   3.098   7.364   7.383
28768WAT     H186546   3.066   7.406   7.299
28768WAT     H286547   3.196   7.382   7.394
28769WAT      O86548   4.419   3.077   5.277
28769WAT     H186549   4.427   3.171   5.243
28769WAT     H286550   4.405   3.014   5.201
28770WAT      O86551   9.868   8.579   1.294
28770WAT     H186552   9.848   8.503   1.356
28770WAT     H286553   9.869   8.664   1.346
28771WAT      O86554   7.737   9.255   0.038
28771WAT     H186555   7.729   9.176  -0.024
28771WAT     H286556   7.792   9.230   0.117
28772WAT      O86557   1.818   6.115   3.269
28772WAT     H186558   1.850   6.040   3.326
28772WAT     H286559   1.830   6.092   3.172
28773WAT      O86560   7.880   7.179   8.300
28773WAT     H186561   7.918   7.119   8.229
28773WAT     H286562   7.936   7.262   8.307
28774WAT      O86563   9.540   7.300   1.627
28774WAT     H186564   9.575   7.275   1.537
28774WAT     H286565   9.530   7.400   1.632
28775WAT      O86566   9.868   3.326   9.730
28775WAT     H186567   9.828   3.414   9.706
28775WAT     H286568   9.798   3.268   9.773
28776WAT      O86569   1.402   1.674   7.331
28776WAT     H186570   1.493   1.716   7.333
28776WAT     H286571   1.401   1.601   7.262
28777WAT      O86572   3.438   2.834   7.015
28777WAT     H186573   3.358   2.840   6.955
28777WAT     H286574   3.420   2.885   7.099
28778WAT      O86575   4.892   2.114   0.010
28778WAT     H186576   4.837   2.139   0.090
28778WAT     H286577   4.861   2.167  -0.070
28779WAT      O86578   4.968   1.906   8.879
28779WAT     H186579   4.875   1.918   8.845
28779WAT     H286580   4.986   1.975   8.950
28780WAT      O86581   1.064   7.908   7.631
28780WAT     H186582   1.130   7.836   7.608
28780WAT     H286583   0.972   7.869   7.634
28781WAT      O86584   1.187   5.032   9.565
28781WAT     H186585   1.241   5.090   9.504
28781WAT     H286586   1.240   5.011   9.647
28782WAT      O86587   0.220   6.164   6.830
28782WAT     H186588   0.188   6.076   6.864
28782WAT     H286589   0.280   6.149   6.751
28783WAT      O86590   1.963   7.959   6.076
28783WAT     H186591   1.873   7.973   6.035
28783WAT     H286592   1.953   7.928   6.170
28784WAT      O86593   7.662   9.136   4.698
28784WAT     H186594   7.593   9.160   4.766
28784WAT     H286595   7.714   9.057   4.731
28785WAT      O86596   4.745   8.484   1.247
28785WAT     H186597   4.833   8.513   1.285
28785WAT     H286598   4.757   8.399   1.196
28786WAT      O86599   8.995   1.204   2.803
28786WAT     H186600   9.092   1.215   2.825
28786WAT     H286601   8.970   1.107   2.807
28787WAT      O86602   5.023   2.874   7.591
28787WAT     H186603   5.086   2.922   7.652
28787WAT     H286604   5.030   2.912   7.499
28788WAT      O86605   8.391   5.937   8.320
28788WAT     H186606   8.453   5.873   8.275
28788WAT     H286607   8.445   6.009   8.365
28789WAT      O86608   7.035   3.446   9.614
28789WAT     H186609   7.011   3.528   9.562
28789WAT     H286610   7.027   3.465   9.712
28790WAT      O86611   2.538   8.973   7.547
28790WAT     H186612   2.504   9.039   7.480
28790WAT     H286613   2.538   8.882   7.507
28791WAT      O86614   3.021   9.386   8.843
28791WAT     H186615   3.015   9.453   8.770
28791WAT     H286616   3.029   9.433   8.931
28792WAT      O86617   6.971   9.202   3.283
28792WAT     H186618   6.886   9.220   3.234
28792WAT     H286619   7.031   9.282   3.276
28793WAT      O86620   6.335   0.034   3.684
28793WAT     H186621   6.415  -0.018   3.653
28793WAT     H286622   6.257   0.013   3.626
28794WAT      O86623   7.827   3.736   4.914
28794WAT     H186624   7.875   3.813   4.870
28794WAT     H286625   7.744   3.770   4.958
28795WAT      O86626   8.733   4.073   8.896
28795WAT     H186627   8.713   4.047   8.801
28795WAT     H286628   8.726   3.992   8.955
28796WAT      O86629   6.503   1.149   9.367
28796WAT     H186630   6.521   1.105   9.454
28796WAT     H286631   6.503   1.249   9.379
28797WAT      O86632   5.470   3.694   2.345
28797WAT     H186633   5.472   3.621   2.412
28797WAT     H286634   5.420   3.772   2.382
28798WAT      O86635   0.170   3.663   8.393
28798WAT     H186636   0.104   3.589   8.379
28798WAT     H286637   0.133   3.728   8.460
28799WAT      O86638   0.436   0.752   0.518
28799WAT     H186639   0.372   0.776   0.445
28799WAT     H286640   0.426   0.655   0.541
28800WAT      O86641   5.901   4.032   8.146
28800WAT     H186642   5.946   3.944   8.165
28800WAT     H286643   5.848   4.024   8.061
28801WAT      O86644   0.435   8.418   7.138
28801WAT     H186645   0.525   8.398   7.176
28801WAT     H286646   0.389   8.333   7.114
28802WAT      O86647   7.099   6.731   6.771
28802WAT     H186648   7.133   6.668   6.702
28802WAT     H286649   7.144   6.712   6.859
28803WAT      O86650   2.876   2.852   8.522
28803WAT     H186651   2.857   2.755   8.506
28803WAT     H286652   2.908   2.864   8.616
28804WAT      O86653   2.433   8.119   6.204
28804WAT     H186654   2.467   8.032   6.240
28804WAT     H286655   2.347   8.104   6.155
28805WAT      O86656   3.528   9.798   5.130
28805WAT     H186657   3.583   9.873   5.165
28805WAT     H286658   3.457   9.833   5.069
28806WAT      O86659   7.678   8.048   1.411
28806WAT     H186660   7.587   8.056   1.452
28806WAT     H286661   7.745   8.025   1.483
28807WAT      O86662   8.796   0.749   1.516
28807WAT     H186663   8.790   0.801   1.431
28807WAT     H286664   8.724   0.680   1.518
28808WAT      O86665   6.526   7.929   2.459
28808WAT     H186666   6.530   7.902   2.555
28808WAT     H286667   6.543   8.027   2.451
28809WAT      O86668   4.656   7.115   5.707
28809WAT     H186669   4.647   7.043   5.638
28809WAT     H286670   4.657   7.074   5.798
28810WAT      O86671   0.185   3.435   1.914
28810WAT     H186672   0.100   3.474   1.878
28810WAT     H286673   0.236   3.391   1.840
28811WAT      O86674   6.146   0.116   5.877
28811WAT     H186675   6.170   0.032   5.926
28811WAT     H286676   6.163   0.103   5.779
28812WAT      O86677   5.358   6.906   5.866
28812WAT     H186678   5.365   6.811   5.898
28812WAT     H286679   5.450   6.941   5.847
28813WAT      O86680   0.918   2.494   2.590
28813WAT     H186681   0.898   2.398   2.613
28813WAT     H286682   0.832   2.546   2.587
28814WAT      O86683   4.118   2.950   2.430
28814WAT     H186684   4.177   3.028   2.409
28814WAT     H286685   4.157   2.898   2.506
28815WAT      O86686   8.151   3.956   6.246
28815WAT     H186687   8.205   4.024   6.196
28815WAT     H286688   8.091   4.002   6.312
28816WAT      O86689   4.914   3.875   0.037
28816WAT     H186690   4.962   3.829  -0.038
28816WAT     H286691   4.838   3.928   0.001
28817WAT      O86692   0.316   8.665   7.097
28817WAT     H186693   0.217   8.673   7.091
28817WAT     H286694   0.342   8.568   7.101
28818WAT      O86695   8.490   0.788   9.786
28818WAT     H186696   8.542   0.817   9.706
28818WAT     H286697   8.494   0.859   9.856
28819WAT      O86698   9.595   1.022   0.554
28819WAT     H186699   9.544   1.105   0.535
28819WAT     H286700   9.692   1.037   0.538
28820WAT      O86701   7.893   9.761   1.518
28820WAT     H186702   7.944   9.678   1.538
28820WAT     H286703   7.822   9.773   1.587
28821WAT      O86704   1.932   7.279   2.075
28821WAT     H186705   1.887   7.291   2.164
28821WAT     H286706   1.941   7.368   2.030
28822WAT      O86707   3.843   4.925   8.009
28822WAT     H186708   3.763   4.891   7.958
28822WAT     H286709   3.905   4.972   7.946
28823WAT      O86710   5.919   2.987   7.615
28823WAT     H186711   5.983   3.037   7.556
28823WAT     H286712   5.966   2.957   7.698
28824WAT      O86713   6.262   6.679   9.495
28824WAT     H186714   6.246   6.655   9.399
28824WAT     H286715   6.311   6.605   9.540
28825WAT      O86716   0.206   3.422   1.393
28825WAT     H186717   0.149   3.424   1.311
28825WAT     H286718   0.295   3.462   1.372
28826WAT      O86719   5.035   7.569   0.198
28826WAT     H186720   5.134   7.555   0.191
28826WAT     H286721   5.013   7.619   0.282
28827WAT      O86722   1.959   2.066   1.952
28827WAT     H186723   1.938   2.163   1.950
28827WAT     H286724   1.890   2.018   2.006
28828WAT      O86725   3.853   2.965   2.099
28828WAT     H186726   3.776   2.930   2.152
28828WAT     H286727   3.932   2.905   2.112
28829WAT      O86728   5.161   7.150   2.164
28829WAT     H186729   5.170   7.065   2.216
28829WAT     H286730   5.252   7.188   2.146
28830WAT      O86731   9.408   4.982   8.457
28830WAT     H186732   9.374   5.063   8.409
28830WAT     H286733   9.488   5.006   8.512
28831WAT      O86734   2.292   1.083   1.472
28831WAT     H186735   2.216   1.120   1.525
28831WAT     H286736   2.356   1.156   1.449
28832WAT      O86737   3.031   4.430   3.748
28832WAT     H186738   3.100   4.396   3.684
28832WAT     H286739   2.969   4.356   3.773
28833WAT      O86740   3.416   4.732   6.668
28833WAT     H186741   3.400   4.755   6.763
28833WAT     H286742   3.450   4.813   6.619
28834WAT      O86743   3.705   2.412   8.258
28834WAT     H186744   3.695   2.355   8.339
28834WAT     H286745   3.760   2.493   8.281
28835WAT      O86746   3.047   4.360   4.793
28835WAT     H186747   3.088   4.269   4.797
28835WAT     H286748   3.066   4.409   4.878
28836WAT      O86749   3.250   3.267   4.219
28836WAT     H186750   3.171   3.256   4.158
28836WAT     H286751   3.283   3.176   4.247
28837WAT      O86752   8.639   3.125   5.284
28837WAT     H186753   8.571   3.196   5.300
28837WAT     H286754   8.655   3.117   5.185
28838WAT      O86755   8.156   4.199   9.019
28838WAT     H186756   8.233   4.261   9.031
28838WAT     H286757   8.184   4.122   8.961
28839WAT      O86758   4.444   3.860   2.071
28839WAT     H186759   4.458   3.792   2.000
28839WAT     H286760   4.347   3.865   2.094
28840WAT      O86761   9.810   1.303   6.771
28840WAT     H186762   9.829   1.321   6.675
28840WAT     H286763   9.787   1.389   6.818
28841WAT      O86764   4.421   7.153   4.049
28841WAT     H186765   4.403   7.221   3.977
28841WAT     H286766   4.519   7.143   4.061
28842WAT      O86767   9.480   5.944   0.317
28842WAT     H186768   9.575   5.934   0.347
28842WAT     H286769   9.425   5.870   0.354
28843WAT      O86770   5.383   7.896   4.609
28843WAT     H186771   5.361   7.871   4.703
28843WAT     H286772   5.418   7.990   4.607
28844WAT      O86773   3.344   1.126   5.524
28844WAT     H186774   3.266   1.070   5.494
28844WAT     H286775   3.357   1.113   5.623
28845WAT      O86776   7.963   7.923   7.065
28845WAT     H186777   7.957   7.916   7.164
28845WAT     H286778   7.893   7.986   7.032
28846WAT      O86779   1.429   4.038   1.640
28846WAT     H186780   1.410   3.984   1.557
28846WAT     H286781   1.526   4.057   1.646
28847WAT      O86782   4.333   8.121   6.948
28847WAT     H186783   4.426   8.157   6.944
28847WAT     H286784   4.277   8.180   7.005
28848WAT      O86785   5.109   2.462   9.353
28848WAT     H186786   5.110   2.362   9.356
28848WAT     H286787   5.160   2.493   9.273
28849WAT      O86788   3.543   4.612   7.177
28849WAT     H186789   3.556   4.696   7.229
28849WAT     H286790   3.613   4.607   7.105
28850WAT      O86791   6.267   7.558   4.646
28850WAT     H186792   6.342   7.549   4.712
28850WAT     H286793   6.233   7.652   4.648
28851WAT      O86794   0.879   1.121   9.661
28851WAT     H186795   0.851   1.205   9.707
28851WAT     H286796   0.975   1.102   9.681
28852WAT      O86797   2.965   9.187   0.591
28852WAT     H186798   3.005   9.185   0.500
28852WAT     H286799   2.983   9.275   0.634
28853WAT      O86800   7.608   4.008   2.953
28853WAT     H186801   7.516   4.034   2.924
28853WAT     H286802   7.660   4.091   2.978
28854WAT      O86803   4.130   8.487   5.297
28854WAT     H186804   4.182   8.451   5.374
28854WAT     H286805   4.191   8.499   5.218
28855WAT      O86806   8.186   0.559   8.108
28855WAT     H186807   8.139   0.486   8.059
28855WAT     H286808   8.140   0.646   8.091
28856WAT      O86809   4.301   5.707   7.104
28856WAT     H186810   4.378   5.733   7.163
28856WAT     H286811   4.330   5.636   7.041
28857WAT      O86812   8.377   1.176   8.202
28857WAT     H186813   8.467   1.190   8.242
28857WAT     H286814   8.375   1.088   8.154
28858WAT      O86815   3.895   6.333   1.470
28858WAT     H186816   3.953   6.260   1.506
28858WAT     H286817   3.801   6.300   1.460
28859WAT      O86818   0.003   0.908   0.481
28859WAT     H186819   0.015   1.005   0.501
28859WAT     H286820   0.084   0.872   0.435
28860WAT      O86821   1.733   1.790   4.788
28860WAT     H186822   1.731   1.846   4.706
28860WAT     H286823   1.738   1.849   4.869
28861WAT      O86824   8.595   1.178   3.586
28861WAT     H186825   8.541   1.096   3.607
28861WAT     H286826   8.664   1.192   3.656
28862WAT      O86827   1.472   8.389   6.993
28862WAT     H186828   1.400   8.393   7.063
28862WAT     H286829   1.432   8.408   6.904
28863WAT      O86830   3.787   6.351   0.089
28863WAT     H186831   3.870   6.299   0.110
28863WAT     H286832   3.711   6.317   0.144
28864WAT      O86833   5.485   0.741   6.476
28864WAT     H186834   5.476   0.646   6.505
28864WAT     H286835   5.567   0.781   6.516
28865WAT      O86836   6.193   9.735   6.014
28865WAT     H186837   6.130   9.666   5.978
28865WAT     H286838   6.277   9.691   6.045
28866WAT      O86839   8.191   7.135   9.668
28866WAT     H186840   8.180   7.192   9.750
28866WAT     H286841   8.286   7.140   9.637
28867WAT      O86842   7.831   4.448   5.069
28867WAT     H186843   7.915   4.482   5.028
28867WAT     H286844   7.832   4.469   5.167
28868WAT      O86845   0.488   6.955   2.542
28868WAT     H186846   0.540   6.920   2.620
28868WAT     H286847   0.541   7.024   2.494
28869WAT      O86848   3.940   8.031   0.210
28869WAT     H186849   3.935   8.121   0.252
28869WAT     H286850   3.947   8.041   0.111
28870WAT      O86851   9.238   0.885   3.745
28870WAT     H186852   9.200   0.852   3.831
28870WAT     H286853   9.175   0.864   3.670
28871WAT      O86854   2.421   8.708   8.718
28871WAT     H186855   2.361   8.644   8.670
28871WAT     H286856   2.515   8.694   8.688
28872WAT      O86857   4.970   0.778   8.526
28872WAT     H186858   4.933   0.793   8.618
28872WAT     H286859   4.916   0.829   8.459
28873WAT      O86860   3.979   0.497   9.385
28873WAT     H186861   4.009   0.414   9.338
28873WAT     H286862   4.058   0.554   9.405
28874WAT      O86863   0.239   2.049   0.963
28874WAT     H186864   0.335   2.049   0.933
28874WAT     H286865   0.185   2.106   0.900
28875WAT      O86866   8.146   0.597   6.625
28875WAT     H186867   8.059   0.624   6.583
28875WAT     H286868   8.198   0.542   6.560
28876WAT      O86869   5.391   4.637   6.374
28876WAT     H186870   5.415   4.544   6.402
28876WAT     H286871   5.467   4.699   6.393
28877WAT      O86872   7.579   3.264   9.450
28877WAT     H186873   7.604   3.240   9.544
28877WAT     H286874   7.662   3.281   9.397
28878WAT      O86875   9.834   2.092   5.119
28878WAT     H186876   9.791   2.010   5.156
28878WAT     H286877   9.920   2.068   5.074
28879WAT      O86878   6.894   2.277   0.580
28879WAT     H186879   6.929   2.317   0.495
28879WAT     H286880   6.867   2.351   0.642
28880WAT      O86881   6.752   5.675   1.533
28880WAT     H186882   6.782   5.589   1.493
28880WAT     H286883   6.804   5.694   1.616
28881WAT      O86884   2.035   0.730   9.182
28881WAT     H186885   1.967   0.659   9.164
28881WAT     H286886   2.067   0.769   9.095
28882WAT      O86887   1.580   4.381   4.227
28882WAT     H186888   1.522   4.463   4.224
28882WAT     H286889   1.541   4.316   4.292
28883WAT      O86890   2.057   6.590   8.462
28883WAT     H186891   2.024   6.528   8.390
28883WAT     H286892   2.105   6.667   8.420
28884WAT      O86893   4.949   7.581   5.511
28884WAT     H186894   4.959   7.528   5.595
28884WAT     H286895   5.023   7.647   5.504
28885WAT      O86896   3.555   2.954   8.361
28885WAT     H186897   3.600   2.918   8.279
28885WAT     H286898   3.458   2.970   8.342
28886WAT      O86899   0.875   8.611   2.949
28886WAT     H186900   0.821   8.656   2.877
28886WAT     H286901   0.818   8.597   3.030
28887WAT      O86902   7.679   7.370   6.657
28887WAT     H186903   7.739   7.318   6.598
28887WAT     H286904   7.590   7.382   6.613
28888WAT      O86905   5.111   9.705   5.273
28888WAT     H186906   5.091   9.610   5.296
28888WAT     H286907   5.165   9.747   5.347
28889WAT      O86908   8.722   0.115   7.356
28889WAT     H186909   8.739   0.017   7.361
28889WAT     H286910   8.784   0.156   7.289
28890WAT      O86911   1.534   2.539   5.022
28890WAT     H186912   1.486   2.541   5.109
28890WAT     H286913   1.472   2.566   4.949
28891WAT      O86914   9.859   3.206   7.064
28891WAT     H186915   9.812   3.209   6.976
28891WAT     H286916   9.949   3.249   7.056
28892WAT      O86917   5.366   2.427   5.518
28892WAT     H186918   5.347   2.356   5.450
28892WAT     H286919   5.281   2.449   5.567
28893WAT      O86920   5.470   1.409   4.286
28893WAT     H186921   5.511   1.483   4.339
28893WAT     H286922   5.527   1.326   4.294
28894WAT      O86923   4.221   1.321   1.866
28894WAT     H186924   4.168   1.365   1.794
28894WAT     H286925   4.180   1.341   1.955
28895WAT      O86926   7.028   0.222   6.349
28895WAT     H186927   7.059   0.135   6.311
28895WAT     H286928   7.105   0.285   6.357
28896WAT      O86929   3.529   9.350   5.955
28896WAT     H186930   3.432   9.370   5.963
28896WAT     H286931   3.542   9.270   5.896
28897WAT      O86932   6.624   7.669   5.906
28897WAT     H186933   6.596   7.761   5.932
28897WAT     H286934   6.671   7.626   5.983
28898WAT      O86935   9.327   7.080   8.065
28898WAT     H186936   9.242   7.109   8.107
28898WAT     H286937   9.330   6.981   8.058
28899WAT      O86938   4.213   9.676   3.742
28899WAT     H186939   4.190   9.585   3.708
28899WAT     H286940   4.187   9.745   3.675
28900WAT      O86941   8.852   5.170   4.190
28900WAT     H186942   8.823   5.087   4.236
28900WAT     H286943   8.891   5.148   4.101
28901WAT      O86944   0.483   0.668   5.905
28901WAT     H186945   0.452   0.704   5.992
28901WAT     H286946   0.580   0.643   5.912
28902WAT      O86947   9.367   8.916   8.000
28902WAT     H186948   9.411   9.001   7.972
28902WAT     H286949   9.437   8.847   8.020
28903WAT      O86950   8.249   9.325   9.357
28903WAT     H186951   8.288   9.254   9.416
28903WAT     H286952   8.152   9.306   9.343
28904WAT      O86953   5.517   8.222   3.888
28904WAT     H186954   5.477   8.132   3.905
28904WAT     H286955   5.609   8.225   3.925
28905WAT      O86956   2.594   3.246   7.366
28905WAT     H186957   2.600   3.215   7.271
28905WAT     H286958   2.610   3.169   7.428
28906WAT      O86959   0.699   5.971   3.906
28906WAT     H186960   0.662   6.055   3.866
28906WAT     H286961   0.665   5.892   3.855
28907WAT      O86962   1.042   1.578   7.922
28907WAT     H186963   1.108   1.652   7.931
28907WAT     H286964   0.949   1.615   7.923
28908WAT      O86965   1.566   0.857   9.500
28908WAT     H186966   1.502   0.796   9.547
28908WAT     H286967   1.622   0.804   9.437
28909WAT      O86968   8.117   9.542   0.672
28909WAT     H186969   8.134   9.444   0.681
28909WAT     H286970   8.113   9.566   0.575
28910WAT      O86971   5.552   9.180   8.187
28910WAT     H186972   5.574   9.170   8.284
28910WAT     H286973   5.455   9.202   8.177
28911WAT      O86974   3.838   4.719   7.425
28911WAT     H186975   3.892   4.635   7.434
28911WAT     H286976   3.857   4.761   7.337
28912WAT      O86977   9.698   9.503   7.294
28912WAT     H186978   9.767   9.574   7.303
28912WAT     H286979   9.610   9.537   7.327
28913WAT      O86980   9.313   9.021   5.261
28913WAT     H186981   9.282   9.002   5.354
28913WAT     H286982   9.260   9.096   5.222
28914WAT      O86983   3.968   8.783   0.970
28914WAT     H186984   3.901   8.856   0.979
28914WAT     H286985   4.042   8.814   0.910
28915WAT      O86986   6.072   4.576   0.210
28915WAT     H186987   6.059   4.479   0.189
28915WAT     H286988   6.064   4.630   0.126
28916WAT      O86989   2.058   1.538   2.681
28916WAT     H186990   1.987   1.475   2.711
28916WAT     H286991   2.016   1.622   2.647
28917WAT      O86992   4.785   0.683   6.613
28917WAT     H186993   4.881   0.704   6.630
28917WAT     H286994   4.771   0.666   6.515
28918WAT      O86995   6.966   9.503   8.500
28918WAT     H186996   7.040   9.445   8.535
28918WAT     H286997   6.899   9.519   8.573
28919WAT      O86998   2.091   2.893   3.401
28919WAT     H186999   2.043   2.861   3.319
28919WAT     H287000   2.169   2.834   3.419
28920WAT      O87001   2.963   7.122   2.052
28920WAT     H187002   2.925   7.044   2.003
28920WAT     H287003   2.926   7.124   2.145
28921WAT      O87004   0.156   8.226   6.298
28921WAT     H187005   0.175   8.290   6.223
28921WAT     H287006   0.155   8.132   6.263
28922WAT      O87007   8.419   6.842   4.120
28922WAT     H187008   8.496   6.859   4.182
28922WAT     H287009   8.335   6.832   4.174
28923WAT      O87010   4.132   5.292   2.107
28923WAT     H187011   4.106   5.361   2.040
28923WAT     H287012   4.050   5.245   2.140
28924WAT      O87013   5.274   6.307   0.167
28924WAT     H187014   5.372   6.287   0.173
28924WAT     H287015   5.237   6.316   0.260
28925WAT      O87016   2.153   1.374   5.204
28925WAT     H187017   2.098   1.409   5.129
28925WAT     H287018   2.250   1.380   5.180
28926WAT      O87019   6.685   0.556   8.949
28926WAT     H187020   6.663   0.651   8.927
28926WAT     H287021   6.639   0.496   8.883
28927WAT      O87022   2.846   3.308   9.406
28927WAT     H187023   2.769   3.254   9.372
28927WAT     H287024   2.824   3.405   9.400
28928WAT      O87025   4.309   1.024   5.134
28928WAT     H187026   4.296   1.090   5.207
28928WAT     H287027   4.350   1.069   5.055
28929WAT      O87028   1.460   7.346   1.573
28929WAT     H187029   1.493   7.255   1.547
28929WAT     H287030   1.391   7.376   1.507
28930WAT      O87031   2.737   5.771   2.268
28930WAT     H187032   2.665   5.836   2.294
28930WAT     H287033   2.712   5.680   2.299
28931WAT      O87034   3.890   0.293   5.061
28931WAT     H187035   3.872   0.385   5.027
28931WAT     H287036   3.977   0.260   5.023
28932WAT      O87037   1.107   7.092   2.555
28932WAT     H187038   1.023   7.081   2.608
28932WAT     H287039   1.173   7.022   2.583
28933WAT      O87040   6.705   3.231   8.575
28933WAT     H187041   6.775   3.210   8.506
28933WAT     H287042   6.625   3.271   8.530
28934WAT      O87043   0.206   0.993   1.253
28934WAT     H187044   0.198   0.910   1.198
28934WAT     H287045   0.287   1.044   1.223
28935WAT      O87046   7.917   4.335   0.971
28935WAT     H187047   7.870   4.422   0.960
28935WAT     H287048   7.850   4.264   0.996
28936WAT      O87049   2.514   1.375   6.742
28936WAT     H187050   2.441   1.334   6.797
28936WAT     H287051   2.523   1.471   6.766
28937WAT      O87052   3.850   1.417   1.171
28937WAT     H187053   3.847   1.447   1.076
28937WAT     H287054   3.774   1.457   1.222
28938WAT      O87055   8.249   7.990   9.815
28938WAT     H187056   8.268   8.048   9.735
28938WAT     H287057   8.153   7.964   9.815
28939WAT      O87058   3.047   3.276   3.634
28939WAT     H187059   2.957   3.234   3.629
28939WAT     H287060   3.041   3.363   3.681
28940WAT      O87061   7.489   4.523   7.733
28940WAT     H187062   7.466   4.563   7.644
28940WAT     H287063   7.407   4.483   7.774
28941WAT      O87064   7.126   4.388   4.122
28941WAT     H187065   7.027   4.395   4.116
28941WAT     H287066   7.167   4.426   4.039
28942WAT      O87067   0.099   3.075   3.353
28942WAT     H187068   0.144   3.099   3.267
28942WAT     H287069   0.153   3.007   3.402
28943WAT      O87070   9.372   5.659   1.301
28943WAT     H187071   9.409   5.737   1.351
28943WAT     H287072   9.364   5.682   1.204
28944WAT      O87073   0.292   7.414   9.099
28944WAT     H187074   0.223   7.411   9.027
28944WAT     H287075   0.360   7.484   9.077
28945WAT      O87076   2.564   1.991   3.666
28945WAT     H187077   2.503   1.912   3.656
28945WAT     H287078   2.650   1.962   3.707
28946WAT      O87079   0.024   0.307   8.026
28946WAT     H187080  -0.011   0.360   7.948
28946WAT     H287081   0.010   0.360   8.110
28947WAT      O87082   7.410   6.624   2.397
28947WAT     H187083   7.344   6.686   2.354
28947WAT     H287084   7.364   6.539   2.423
28948WAT      O87085   3.414   8.576   1.229
28948WAT     H187086   3.395   8.599   1.324
28948WAT     H287087   3.509   8.599   1.207
28949WAT      O87088   2.065   0.022   5.018
28949WAT     H187089   2.045   0.120   5.023
28949WAT     H287090   2.006  -0.021   4.950
28950WAT      O87091   1.405   8.855   5.393
28950WAT     H187092   1.461   8.773   5.382
28950WAT     H287093   1.311   8.834   5.368
28951WAT      O87094   3.201   1.764   0.595
28951WAT     H187095   3.162   1.784   0.506
28951WAT     H287096   3.274   1.829   0.616
28952WAT      O87097   3.728   7.985   7.861
28952WAT     H187098   3.700   7.968   7.955
28952WAT     H287099   3.647   7.989   7.802
28953WAT      O87100   7.256   4.574   6.894
28953WAT     H187101   7.323   4.649   6.889
28953WAT     H287102   7.201   4.584   6.977
28954WAT      O87103   2.195   7.979   3.205
28954WAT     H187104   2.189   8.079   3.197
28954WAT     H287105   2.184   7.938   3.115
28955WAT      O87106   6.827   7.252   0.412
28955WAT     H187107   6.748   7.193   0.397
28955WAT     H287108   6.852   7.298   0.326
28956WAT      O87109   4.786   0.288   1.565
28956WAT     H187110   4.866   0.251   1.612
28956WAT     H287111   4.722   0.326   1.632
28957WAT      O87112   1.696   4.191   6.655
28957WAT     H187113   1.737   4.194   6.564
28957WAT     H287114   1.652   4.279   6.675
28958WAT      O87115   0.459   1.756   5.244
28958WAT     H187116   0.517   1.744   5.325
28958WAT     H287117   0.365   1.733   5.266
28959WAT      O87118   7.559   7.031   7.507
28959WAT     H187119   7.654   7.000   7.517
28959WAT     H287120   7.510   7.015   7.592
28960WAT      O87121   1.419   0.958   3.405
28960WAT     H187122   1.458   0.895   3.338
28960WAT     H287123   1.394   1.044   3.360
28961WAT      O87124   7.464   7.582   4.471
28961WAT     H187125   7.484   7.497   4.520
28961WAT     H287126   7.450   7.656   4.537
28962WAT      O87127   1.498   9.493   5.724
28962WAT     H187128   1.540   9.582   5.745
28962WAT     H287129   1.568   9.431   5.689
28963WAT      O87130   3.489   4.940   8.008
28963WAT     H187131   3.478   4.844   8.034
28963WAT     H287132   3.561   4.948   7.939
28964WAT      O87133   9.252   9.057   7.710
28964WAT     H187134   9.307   9.010   7.640
28964WAT     H287135   9.292   9.042   7.800
28965WAT      O87136   2.768   7.560   0.980
28965WAT     H187137   2.804   7.492   0.915
28965WAT     H287138   2.761   7.519   1.070
28966WAT      O87139   1.765   2.792   0.174
28966WAT     H187140   1.725   2.720   0.117
28966WAT     H287141   1.694   2.857   0.200
28967WAT      O87142   1.314   4.936   3.438
28967WAT     H187143   1.394   4.911   3.492
28967WAT     H287144   1.300   4.869   3.365
28968WAT      O87145   7.093   6.755   4.085
28968WAT     H187146   7.068   6.661   4.109
28968WAT     H287147   7.182   6.777   4.124
28969WAT      O87148   8.679   7.102   0.463
28969WAT     H187149   8.710   7.195   0.483
28969WAT     H287150   8.733   7.037   0.517
28970WAT      O87151   2.647   2.075   5.966
28970WAT     H187152   2.665   2.167   6.001
28970WAT     H287153   2.556   2.045   5.996
28971WAT      O87154   0.388   8.358   9.139
28971WAT     H187155   0.487   8.345   9.140
28971WAT     H287156   0.351   8.338   9.230
28972WAT      O87157   2.564   6.127   8.109
28972WAT     H187158   2.599   6.175   8.189
28972WAT     H287159   2.480   6.171   8.077
28973WAT      O87160   2.442   1.462   1.240
28973WAT     H187161   2.476   1.549   1.275
28973WAT     H287162   2.343   1.466   1.232
28974WAT      O87163   6.265   9.487   3.382
28974WAT     H187164   6.353   9.503   3.339
28974WAT     H287165   6.279   9.463   3.478
28975WAT      O87166   0.512   3.021   2.198
28975WAT     H187167   0.456   3.079   2.257
28975WAT     H287168   0.503   2.926   2.225
28976WAT      O87169   4.719   9.559   7.554
28976WAT     H187170   4.622   9.571   7.532
28976WAT     H287171   4.775   9.598   7.480
28977WAT      O87172   5.702   0.326   3.869
28977WAT     H187173   5.643   0.245   3.873
28977WAT     H287174   5.757   0.332   3.952
28978WAT      O87175   9.404   8.182   1.479
28978WAT     H187176   9.308   8.203   1.500
28978WAT     H287177   9.436   8.243   1.406
28979WAT      O87178   7.196   8.479   7.355
28979WAT     H187179   7.118   8.462   7.295
28979WAT     H287180   7.250   8.555   7.318
28980WAT      O87181   1.536   4.628   5.188
28980WAT     H187182   1.634   4.605   5.185
28980WAT     H287183   1.517   4.682   5.270
28981WAT      O87184   3.108   6.116   5.314
28981WAT     H187185   3.068   6.066   5.237
28981WAT     H287186   3.169   6.187   5.279
28982WAT      O87187   9.249   1.623   0.756
28982WAT     H187188   9.288   1.692   0.695
28982WAT     H287189   9.246   1.535   0.710
28983WAT      O87190   5.541   1.487   9.286
28983WAT     H187191   5.623   1.446   9.246
28983WAT     H287192   5.491   1.538   9.216
28984WAT      O87193   7.162   6.536   7.915
28984WAT     H187194   7.219   6.578   7.844
28984WAT     H287195   7.217   6.523   7.997
28985WAT      O87196   5.851   7.950   2.139
28985WAT     H187197   5.933   8.006   2.136
28985WAT     H287198   5.866   7.865   2.089
28986WAT      O87199   3.715   6.188   4.415
28986WAT     H187200   3.811   6.211   4.427
28986WAT     H287201   3.669   6.188   4.504
28987WAT      O87202   0.510   0.278   9.504
28987WAT     H187203   0.472   0.189   9.529
28987WAT     H287204   0.558   0.317   9.583
28988WAT      O87205   2.433   8.044   4.431
28988WAT     H187206   2.462   8.131   4.394
28988WAT     H287207   2.504   7.975   4.417
28989WAT      O87208   4.486   8.836   4.259
28989WAT     H187209   4.431   8.852   4.342
28989WAT     H287210   4.583   8.838   4.283
28990WAT      O87211   8.237   1.379   9.107
28990WAT     H187212   8.154   1.340   9.147
28990WAT     H287213   8.271   1.319   9.035
28991WAT      O87214   1.541   7.858   5.435
28991WAT     H187215   1.548   7.941   5.379
28991WAT     H287216   1.486   7.790   5.386
28992WAT      O87217   6.354   7.003   9.342
28992WAT     H187218   6.443   6.967   9.368
28992WAT     H287219   6.316   7.054   9.419
28993WAT      O87220   3.796   1.699   2.807
28993WAT     H187221   3.857   1.638   2.857
28993WAT     H287222   3.782   1.783   2.859
28994WAT      O87223   7.247   3.663   5.290
28994WAT     H187224   7.259   3.734   5.221
28994WAT     H287225   7.315   3.674   5.362
28995WAT      O87226   7.000   8.139   4.331
28995WAT     H187227   6.901   8.155   4.339
28995WAT     H287228   7.016   8.061   4.270
28996WAT      O87229   3.446   7.887   4.210
28996WAT     H187230   3.478   7.956   4.275
28996WAT     H287231   3.407   7.810   4.259
28997WAT      O87232   2.101   9.316   8.816
28997WAT     H187233   2.108   9.239   8.879
28997WAT     H287234   2.180   9.377   8.829
28998WAT      O87235   6.330   7.153   4.286
28998WAT     H187236   6.429   7.155   4.295
28998WAT     H287237   6.299   7.232   4.233
28999WAT      O87238   4.059   3.361   7.711
28999WAT     H187239   4.065   3.423   7.789
28999WAT     H287240   3.994   3.397   7.645
29000WAT      O87241   1.458   6.389   8.030
29000WAT     H187242   1.360   6.407   8.040
29000WAT     H287243   1.503   6.400   8.118
29001WAT      O87244   1.897   5.732   1.105
29001WAT     H187245   1.872   5.793   1.180
29001WAT     H287246   1.995   5.715   1.107
29002WAT      O87247   1.685   3.598   0.729
29002WAT     H187248   1.709   3.682   0.681
29002WAT     H287249   1.648   3.532   0.665
29003WAT      O87250   5.154   4.570   6.567
29003WAT     H187251   5.133   4.661   6.602
29003WAT     H287252   5.225   4.577   6.497
29004WAT      O87253   5.615   7.964   9.425
29004WAT     H187254   5.616   7.905   9.344
29004WAT     H287255   5.521   7.976   9.456
29005WAT      O87256   4.370   8.345   1.476
29005WAT     H187257   4.288   8.401   1.465
29005WAT     H287258   4.418   8.337   1.389
29006WAT      O87259   6.888   2.743   8.241
29006WAT     H187260   6.951   2.797   8.297
29006WAT     H287261   6.808   2.798   8.218
29007WAT      O87262   0.483   6.227   6.663
29007WAT     H187263   0.549   6.224   6.588
29007WAT     H287264   0.513   6.295   6.730
29008WAT      O87265   3.108   2.899   7.815
29008WAT     H187266   3.186   2.877   7.874
29008WAT     H287267   3.026   2.908   7.872
29009WAT      O87268   6.844   0.305   6.133
29009WAT     H187269   6.859   0.401   6.158
29009WAT     H287270   6.863   0.247   6.212
29010WAT      O87271   4.031   7.573   7.827
29010WAT     H187272   3.960   7.643   7.824
29010WAT     H287273   4.024   7.515   7.746
29011WAT      O87274   4.547   3.886   9.296
29011WAT     H187275   4.612   3.942   9.246
29011WAT     H287276   4.536   3.922   9.389
29012WAT      O87277   8.734   1.478   5.659
29012WAT     H187278   8.639   1.457   5.683
29012WAT     H287279   8.741   1.495   5.561
29013WAT      O87280   2.477   7.958   7.107
29013WAT     H187281   2.443   8.022   7.038
29013WAT     H287282   2.404   7.938   7.173
29014WAT      O87283   7.294   5.676   7.595
29014WAT     H187284   7.244   5.674   7.682
29014WAT     H287285   7.333   5.585   7.577
29015WAT      O87286   0.363   9.517   2.633
29015WAT     H187287   0.391   9.598   2.582
29015WAT     H287288   0.358   9.540   2.730
29016WAT      O87289   7.284   1.507   4.414
29016WAT     H187290   7.205   1.459   4.452
29016WAT     H287291   7.279   1.505   4.314
29017WAT      O87292   1.980   2.706   4.727
29017WAT     H187293   1.942   2.616   4.706
29017WAT     H287294   1.944   2.737   4.815
29018WAT      O87295   5.919   7.691   6.783
29018WAT     H187296   5.956   7.635   6.857
29018WAT     H287297   5.826   7.719   6.806
29019WAT      O87298   1.638   0.599   3.024
29019WAT     H187299   1.649   0.696   3.046
29019WAT     H287300   1.668   0.582   2.930
29020WAT      O87301   1.882   1.053   4.863
29020WAT     H187302   1.788   1.083   4.876
29020WAT     H287303   1.937   1.130   4.830
29021WAT      O87304   5.212   3.252   1.495
29021WAT     H187305   5.213   3.317   1.419
29021WAT     H287306   5.141   3.183   1.480
29022WAT      O87307   3.080   6.906   9.006
29022WAT     H187308   3.035   6.994   8.997
29022WAT     H287309   3.073   6.874   9.101
29023WAT      O87310   8.179   0.652   2.814
29023WAT     H187311   8.279   0.657   2.818
29023WAT     H287312   8.140   0.723   2.873
29024WAT      O87313   0.315   9.225   0.536
29024WAT     H187314   0.270   9.255   0.452
29024WAT     H287315   0.353   9.134   0.523
29025WAT      O87316   5.349   6.622   3.063
29025WAT     H187317   5.442   6.660   3.063
29025WAT     H287318   5.321   6.601   2.970
29026WAT      O87319   1.097   1.581   1.746
29026WAT     H187320   1.070   1.662   1.694
29026WAT     H287321   1.122   1.607   1.839
29027WAT      O87322   8.287   1.960   9.594
29027WAT     H187323   8.247   1.982   9.505
29027WAT     H287324   8.295   2.043   9.649
29028WAT      O87325   7.529   7.157   3.111
29028WAT     H187326   7.609   7.211   3.083
29028WAT     H287327   7.546   7.118   3.201
29029WAT      O87328   3.705   3.321   8.935
29029WAT     H187329   3.670   3.398   8.988
29029WAT     H287330   3.695   3.342   8.837
29030WAT      O87331   8.091   1.594   6.069
29030WAT     H187332   8.114   1.662   6.138
29030WAT     H287333   7.996   1.565   6.082
29031WAT      O87334   2.515   6.494   8.409
29031WAT     H187335   2.425   6.463   8.440
29031WAT     H287336   2.565   6.534   8.486
29032WAT      O87337   9.156   6.524   0.249
29032WAT     H187338   9.082   6.494   0.309
29032WAT     H287339   9.186   6.448   0.192
29033WAT      O87340   0.376   8.770   8.564
29033WAT     H187341   0.341   8.712   8.638
29033WAT     H287342   0.324   8.855   8.560
29034WAT      O87343   0.675   3.781   7.306
29034WAT     H187344   0.621   3.846   7.253
29034WAT     H287345   0.683   3.695   7.256
29035WAT      O87346   5.437   0.648   4.727
29035WAT     H187347   5.394   0.700   4.654
29035WAT     H287348   5.520   0.694   4.756
29036WAT      O87349   2.414   1.741   1.826
29036WAT     H187350   2.441   1.646   1.842
29036WAT     H287351   2.341   1.766   1.890
29037WAT      O87352   4.539   2.166   1.596
29037WAT     H187353   4.555   2.259   1.629
29037WAT     H287354   4.495   2.169   1.507
29038WAT      O87355   9.513   3.490   6.081
29038WAT     H187356   9.542   3.398   6.108
29038WAT     H287357   9.445   3.524   6.146
29039WAT      O87358   5.913   9.602   0.638
29039WAT     H187359   5.852   9.529   0.608
29039WAT     H287360   5.928   9.667   0.563
29040WAT      O87361   7.305   9.232   0.890
29040WAT     H187362   7.401   9.219   0.866
29040WAT     H287363   7.277   9.324   0.866
29041WAT      O87364   0.403   0.666   8.379
29041WAT     H187365   0.345   0.686   8.458
29041WAT     H287366   0.399   0.568   8.359
29042WAT      O87367   6.375   9.471   9.887
29042WAT     H187368   6.282   9.454   9.920
29042WAT     H287369   6.441   9.423   9.946
29043WAT      O87370   1.116   1.041   8.075
29043WAT     H187371   1.070   0.987   8.145
29043WAT     H287372   1.075   1.132   8.071
29044WAT      O87373   7.531   7.923   5.446
29044WAT     H187374   7.550   7.865   5.367
29044WAT     H287375   7.516   7.866   5.526
29045WAT      O87376   4.945   8.730   3.165
29045WAT     H187377   4.944   8.824   3.198
29045WAT     H287378   4.943   8.729   3.065
29046WAT      O87379   9.124   7.550   9.361
29046WAT     H187380   9.046   7.604   9.392
29046WAT     H287381   9.102   7.505   9.275
29047WAT      O87382   1.021   6.378   0.719
29047WAT     H187383   1.032   6.323   0.801
29047WAT     H287384   1.011   6.474   0.744
29048WAT      O87385   9.630   6.478   7.824
29048WAT     H187386   9.638   6.577   7.833
29048WAT     H287387   9.645   6.452   7.728
29049WAT      O87388   4.116   0.116   5.749
29049WAT     H187389   4.067   0.033   5.722
29049WAT     H287390   4.214   0.096   5.754
29050WAT      O87391   3.431   5.352   4.881
29050WAT     H187392   3.347   5.390   4.919
29050WAT     H287393   3.448   5.261   4.920
29051WAT      O87394   9.865   7.293   5.387
29051WAT     H187395   9.799   7.218   5.395
29051WAT     H287396   9.816   7.379   5.375
29052WAT      O87397   3.418   9.537   7.647
29052WAT     H187398   3.402   9.633   7.627
29052WAT     H287399   3.357   9.480   7.592
29053WAT      O87400   6.509   7.198   7.165
29053WAT     H187401   6.596   7.216   7.120
29053WAT     H287402   6.443   7.165   7.096
29054WAT      O87403   6.550   4.953   7.195
29054WAT     H187404   6.457   4.920   7.214
29054WAT     H287405   6.549   5.053   7.189
29055WAT      O87406   4.604   3.430   8.770
29055WAT     H187407   4.515   3.438   8.815
29055WAT     H287408   4.615   3.337   8.735
29056WAT      O87409   0.150   7.548   8.337
29056WAT     H187410   0.119   7.452   8.333
29056WAT     H287411   0.088   7.604   8.283
29057WAT      O87412   4.952   2.067   1.633
29057WAT     H187413   4.993   2.134   1.695
29057WAT     H287414   4.862   2.041   1.667
29058WAT      O87415   5.702   2.941   8.395
29058WAT     H187416   5.606   2.958   8.373
29058WAT     H287417   5.748   3.029   8.411
29059WAT      O87418   7.274   9.015   4.229
29059WAT     H187419   7.237   8.940   4.174
29059WAT     H287420   7.374   9.008   4.232
29060WAT      O87421   5.663   9.804   2.789
29060WAT     H187422   5.590   9.857   2.831
29060WAT     H287423   5.633   9.772   2.699
29061WAT      O87424   8.312   5.371   3.322
29061WAT     H187425   8.335   5.381   3.225
29061WAT     H287426   8.301   5.462   3.362
29062WAT      O87427   3.112   7.104   4.650
29062WAT     H187428   3.170   7.097   4.732
29062WAT     H287429   3.073   7.195   4.644
29063WAT      O87430   9.626   5.739   5.274
29063WAT     H187431   9.662   5.756   5.182
29063WAT     H287432   9.600   5.826   5.316
29064WAT      O87433   0.981   5.270   5.577
29064WAT     H187434   1.024   5.256   5.666
29064WAT     H287435   1.024   5.348   5.531
29065WAT      O87436   9.245   1.088   7.529
29065WAT     H187437   9.180   1.164   7.531
29065WAT     H287438   9.196   1.002   7.543
29066WAT      O87439   3.111   5.589   2.166
29066WAT     H187440   3.051   5.666   2.149
29066WAT     H287441   3.154   5.560   2.081
29067WAT      O87442   0.913   5.969   1.826
29067WAT     H187443   0.924   6.033   1.902
29067WAT     H287444   0.977   5.993   1.753
29068WAT      O87445   8.363   2.713   6.583
29068WAT     H187446   8.437   2.747   6.642
29068WAT     H287447   8.314   2.639   6.630
29069WAT      O87448   2.021   2.280   6.053
29069WAT     H187449   1.938   2.279   6.109
29069WAT     H287450   2.045   2.374   6.030
29070WAT      O87451   4.738   7.261   7.107
29070WAT     H187452   4.775   7.178   7.146
29070WAT     H287453   4.812   7.326   7.088
29071WAT      O87454   1.544   2.031   7.467
29071WAT     H187455   1.477   1.968   7.507
29071WAT     H287456   1.512   2.125   7.480
29072WAT      O87457   7.017   4.600   3.590
29072WAT     H187458   6.957   4.592   3.509
29072WAT     H287459   7.082   4.674   3.576
29073WAT      O87460   6.417   1.075   0.144
29073WAT     H187461   6.448   1.055   0.237
29073WAT     H287462   6.440   0.998   0.084
29074WAT      O87463   7.630   0.987   3.016
29074WAT     H187464   7.726   0.967   2.997
29074WAT     H287465   7.610   0.968   3.112
29075WAT      O87466   8.296   8.395   0.024
29075WAT     H187467   8.208   8.416  -0.018
29075WAT     H287468   8.297   8.300   0.055
29076WAT      O87469   8.971   3.541   8.088
29076WAT     H187470   9.029   3.476   8.136
29076WAT     H287471   9.005   3.552   7.994
29077WAT      O87472   0.089   4.531   8.460
29077WAT     H187473   0.128   4.457   8.515
29077WAT     H287474   0.163   4.580   8.413
29078WAT      O87475   2.174   7.773   2.713
29078WAT     H187476   2.270   7.797   2.729
29078WAT     H287477   2.122   7.857   2.699
29079WAT      O87478   2.591   5.903   5.561
29079WAT     H187479   2.510   5.911   5.503
29079WAT     H287480   2.672   5.890   5.503
29080WAT      O87481   7.250   9.044   4.506
29080WAT     H187482   7.247   9.058   4.407
29080WAT     H287483   7.299   9.121   4.549
29081WAT      O87484   2.798   3.165   5.350
29081WAT     H187485   2.896   3.158   5.367
29081WAT     H287486   2.776   3.256   5.316
29082WAT      O87487   9.254   6.867   1.099
29082WAT     H187488   9.271   6.962   1.126
29082WAT     H287489   9.283   6.853   1.004
29083WAT      O87490   0.520   4.600   4.856
29083WAT     H187491   0.575   4.679   4.833
29083WAT     H287492   0.552   4.560   4.942
29084WAT      O87493   0.976   0.197   4.227
29084WAT     H187494   0.903   0.206   4.295
29084WAT     H287495   0.953   0.251   4.146
29085WAT      O87496   1.043   4.331   4.625
29085WAT     H187497   1.003   4.412   4.669
29085WAT     H287498   0.998   4.249   4.660
29086WAT      O87499   0.556   8.722   8.323
29086WAT     H187500   0.497   8.736   8.402
29086WAT     H287501   0.556   8.625   8.299
29087WAT      O87502   9.499   5.509   5.009
29087WAT     H187503   9.439   5.448   4.958
29087WAT     H287504   9.476   5.604   4.986
29088WAT      O87505   0.975   8.832   4.358
29088WAT     H187506   0.921   8.916   4.361
29088WAT     H287507   1.032   8.826   4.440
29089WAT      O87508   7.389   4.139   7.604
29089WAT     H187509   7.483   4.148   7.637
29089WAT     H287510   7.366   4.221   7.551
29090WAT      O87511   1.988   0.737   3.341
29090WAT     H187512   1.935   0.740   3.426
29090WAT     H287513   1.958   0.810   3.280
29091WAT      O87514   7.177   2.697   6.567
29091WAT     H187515   7.100   2.741   6.614
29091WAT     H287516   7.143   2.643   6.491
29092WAT      O87517   7.591   6.807   2.458
29092WAT     H187518   7.525   6.748   2.412
29092WAT     H287519   7.646   6.753   2.522
29093WAT      O87520   3.078   7.918   2.098
29093WAT     H187521   3.034   7.849   2.156
29093WAT     H287522   3.177   7.904   2.099
29094WAT      O87523   5.369   4.521   8.552
29094WAT     H187524   5.371   4.588   8.626
29094WAT     H287525   5.275   4.496   8.532
29095WAT      O87526   0.371   3.832   3.451
29095WAT     H187527   0.441   3.903   3.454
29095WAT     H287528   0.384   3.769   3.528
29096WAT      O87529   5.639   4.957   4.539
29096WAT     H187530   5.640   4.857   4.538
29096WAT     H287531   5.596   4.991   4.455
29097WAT      O87532   1.642   0.755   5.385
29097WAT     H187533   1.647   0.733   5.482
29097WAT     H287534   1.547   0.746   5.354
29098WAT      O87535   1.515   2.272   0.654
29098WAT     H187536   1.467   2.185   0.669
29098WAT     H287537   1.530   2.285   0.557
29099WAT      O87538   5.247   1.967   2.196
29099WAT     H187539   5.286   2.011   2.277
29099WAT     H287540   5.273   1.871   2.195
29100WAT      O87541   2.304   7.744   4.662
29100WAT     H187542   2.296   7.757   4.564
29100WAT     H287543   2.322   7.648   4.682
29101WAT      O87544   7.247   3.587   7.986
29101WAT     H187545   7.177   3.526   8.024
29101WAT     H287546   7.331   3.578   8.039
29102WAT      O87547   7.733   0.573   3.861
29102WAT     H187548   7.639   0.596   3.835
29102WAT     H287549   7.732   0.489   3.916
29103WAT      O87550   4.603   6.259   5.089
29103WAT     H187551   4.526   6.285   5.030
29103WAT     H287552   4.606   6.320   5.168
29104WAT      O87553   8.441   5.675   0.010
29104WAT     H187554   8.404   5.603  -0.048
29104WAT     H287555   8.395   5.762  -0.010
29105WAT      O87556   8.824   3.343   5.661
29105WAT     H187557   8.817   3.328   5.562
29105WAT     H287558   8.739   3.384   5.694
29106WAT      O87559   6.343   8.266   4.974
29106WAT     H187560   6.328   8.347   5.030
29106WAT     H287561   6.431   8.225   4.998
29107WAT      O87562   3.374   9.260   7.981
29107WAT     H187563   3.405   9.198   7.910
29107WAT     H287564   3.319   9.210   8.048
29108WAT      O87565   6.802   1.931   0.956
29108WAT     H187566   6.845   1.989   0.887
29108WAT     H287567   6.703   1.929   0.941
29109WAT      O87568   6.239   7.954   2.470
29109WAT     H187569   6.338   7.937   2.465
29109WAT     H287570   6.201   7.901   2.546
29110WAT      O87571   5.458   9.578   0.483
29110WAT     H187572   5.501   9.623   0.404
29110WAT     H287573   5.434   9.484   0.459
29111WAT      O87574   5.936   6.241   0.093
29111WAT     H187575   6.005   6.240   0.165
29111WAT     H287576   5.935   6.330   0.048
29112WAT      O87577   1.971   3.502   2.587
29112WAT     H187578   2.029   3.427   2.556
29112WAT     H287579   1.876   3.471   2.591
29113WAT      O87580   1.206   0.600   3.689
29113WAT     H187581   1.264   0.670   3.649
29113WAT     H287582   1.127   0.584   3.630
29114WAT      O87583   3.048   9.823   6.656
29114WAT     H187584   3.052   9.762   6.577
29114WAT     H287585   2.957   9.863   6.662
29115WAT      O87586   7.942   3.109   7.556
29115WAT     H187587   7.883   3.037   7.592
29115WAT     H287588   7.993   3.152   7.631
29116WAT      O87589   7.588   5.933   3.351
29116WAT     H187590   7.657   5.926   3.279
29116WAT     H287591   7.615   6.005   3.416
29117WAT      O87592   2.863   8.860   8.185
29117WAT     H187593   2.898   8.938   8.237
29117WAT     H287594   2.781   8.825   8.230
29118WAT      O87595   8.732   3.344   2.504
29118WAT     H187596   8.686   3.339   2.415
29118WAT     H287597   8.794   3.266   2.514
29119WAT      O87598   3.950   4.235   8.998
29119WAT     H187599   4.010   4.175   8.946
29119WAT     H287600   3.928   4.315   8.943
29120WAT      O87601   1.541   4.598   0.184
29120WAT     H187602   1.566   4.628   0.276
29120WAT     H287603   1.520   4.678   0.127
29121WAT      O87604   4.503   0.896   8.658
29121WAT     H187605   4.551   0.809   8.646
29121WAT     H287606   4.407   0.879   8.680
29122WAT      O87607   8.038   5.330   0.578
29122WAT     H187608   7.941   5.334   0.600
29122WAT     H287609   8.089   5.294   0.656
29123WAT      O87610   8.920   0.740   8.279
29123WAT     H187611   8.867   0.660   8.307
29123WAT     H287612   8.973   0.773   8.356
29124WAT      O87613   9.143   2.038   1.781
29124WAT     H187614   9.116   1.956   1.730
29124WAT     H287615   9.180   2.106   1.718
29125WAT      O87616   8.915   2.806   4.867
29125WAT     H187617   8.825   2.790   4.827
29125WAT     H287618   8.957   2.718   4.891
29126WAT      O87619   4.078   0.060   3.656
29126WAT     H187620   4.147   0.130   3.640
29126WAT     H287621   4.047   0.022   3.569
29127WAT      O87622   1.414   2.763   7.780
29127WAT     H187623   1.479   2.687   7.775
29127WAT     H287624   1.454   2.838   7.832
29128WAT      O87625   9.808   1.445   0.049
29128WAT     H187626   9.817   1.371   0.115
29128WAT     H287627   9.755   1.414  -0.030
29129WAT      O87628   6.043   2.305   9.364
29129WAT     H187629   6.014   2.251   9.443
29129WAT     H287630   6.039   2.402   9.388
29130WAT      O87631   1.510   2.509   2.620
29130WAT     H187632   1.425   2.561   2.632
29130WAT     H287633   1.536   2.467   2.707
29131WAT      O87634   0.839   1.005   7.630
29131WAT     H187635   0.742   1.027   7.617
29131WAT     H287636   0.867   0.937   7.561
29132WAT      O87637   3.887   3.326   0.344
29132WAT     H187638   3.940   3.260   0.292
29132WAT     H287639   3.920   3.419   0.324
29133WAT      O87640   3.721   6.422   6.494
29133WAT     H187641   3.702   6.471   6.409
29133WAT     H287642   3.635   6.391   6.535
29134WAT      O87643   5.784   2.447   4.140
29134WAT     H187644   5.774   2.381   4.066
29134WAT     H287645   5.809   2.537   4.102
29135WAT      O87646   2.548   2.965   1.728
29135WAT     H187647   2.616   2.894   1.747
29135WAT     H287648   2.543   2.980   1.629
29136WAT      O87649   2.054   3.955   0.749
29136WAT     H187650   2.147   3.992   0.755
29136WAT     H287651   1.994   4.021   0.703
29137WAT      O87652   1.085   0.643   5.241
29137WAT     H187653   1.100   0.566   5.179
29137WAT     H287654   1.070   0.727   5.188
29138WAT      O87655   5.780   8.658   2.588
29138WAT     H187656   5.861   8.699   2.547
29138WAT     H287657   5.807   8.599   2.664
29139WAT      O87658   0.174   0.692   3.972
29139WAT     H187659   0.079   0.711   3.949
29139WAT     H287660   0.233   0.715   3.894
29140WAT      O87661   4.671   8.022   8.730
29140WAT     H187662   4.662   8.066   8.640
29140WAT     H287663   4.676   7.923   8.719
29141WAT      O87664   7.571   6.467   2.210
29141WAT     H187665   7.528   6.463   2.120
29141WAT     H287666   7.517   6.526   2.270
29142WAT      O87667   4.795   7.699   3.105
29142WAT     H187668   4.721   7.645   3.146
29142WAT     H287669   4.756   7.770   3.048
29143WAT      O87670   1.605   1.847   8.188
29143WAT     H187671   1.539   1.910   8.227
29143WAT     H287672   1.557   1.767   8.150
29144WAT      O87673   7.940   8.859   9.835
29144WAT     H187674   7.885   8.802   9.897
29144WAT     H287675   7.967   8.806   9.756
29145WAT      O87676   6.956   8.601   8.094
29145WAT     H187677   6.936   8.562   8.184
29145WAT     H287678   6.965   8.527   8.027
29146WAT      O87679   7.675   9.386   8.242
29146WAT     H187680   7.760   9.335   8.229
29146WAT     H287681   7.604   9.324   8.274
29147WAT      O87682   0.982   6.658   5.282
29147WAT     H187683   0.967   6.608   5.367
29147WAT     H287684   0.984   6.594   5.205
29148WAT      O87685   8.348   0.342   9.830
29148WAT     H187686   8.354   0.289   9.914
29148WAT     H287687   8.260   0.389   9.827
29149WAT      O87688   4.279   1.857   5.294
29149WAT     H187689   4.209   1.926   5.313
29149WAT     H287690   4.273   1.784   5.362
29150WAT      O87691   3.857   9.395   4.009
29150WAT     H187692   3.783   9.388   3.942
29150WAT     H287693   3.940   9.356   3.970
29151WAT      O87694   7.195   2.791   7.612
29151WAT     H187695   7.244   2.703   7.608
29151WAT     H287696   7.097   2.774   7.621
29152WAT      O87697   5.036   7.602   6.179
29152WAT     H187698   5.069   7.663   6.251
29152WAT     H287699   4.940   7.579   6.195
29153WAT      O87700   2.503   7.949   4.724
29153WAT     H187701   2.540   7.994   4.643
29153WAT     H287702   2.432   7.884   4.697
29154WAT      O87703   7.660   8.006   5.859
29154WAT     H187704   7.569   8.044   5.875
29154WAT     H287705   7.706   8.059   5.787
29155WAT      O87706   4.701   6.130   8.376
29155WAT     H187707   4.752   6.045   8.386
29155WAT     H287708   4.765   6.206   8.363
29156WAT      O87709   8.767   0.456   5.739
29156WAT     H187710   8.794   0.431   5.832
29156WAT     H287711   8.677   0.416   5.719
29157WAT      O87712   1.571   1.639   5.498
29157WAT     H187713   1.621   1.691   5.567
29157WAT     H287714   1.575   1.687   5.411
29158WAT      O87715   0.370   9.260   8.207
29158WAT     H187716   0.372   9.241   8.305
29158WAT     H287717   0.321   9.186   8.160
29159WAT      O87718   3.996   5.473   5.299
29159WAT     H187719   4.047   5.412   5.360
29159WAT     H287720   4.060   5.534   5.252
29160WAT      O87721   0.732   4.665   4.401
29160WAT     H187722   0.731   4.707   4.310
29160WAT     H287723   0.640   4.634   4.424
29161WAT      O87724   8.892   4.515   3.240
29161WAT     H187725   8.963   4.460   3.284
29161WAT     H287726   8.830   4.454   3.189
29162WAT      O87727   9.710   2.074   1.080
29162WAT     H187728   9.633   2.086   1.142
29162WAT     H287729   9.761   1.992   1.105
29163WAT      O87730   6.661   8.600   5.948
29163WAT     H187731   6.659   8.696   5.923
29163WAT     H287732   6.628   8.588   6.042
29164WAT      O87733   9.743   4.002   0.498
29164WAT     H187734   9.799   3.956   0.428
29164WAT     H287735   9.664   3.945   0.520
29165WAT      O87736   3.975   8.359   7.915
29165WAT     H187737   3.964   8.419   7.994
29165WAT     H287738   4.004   8.413   7.836
29166WAT      O87739   9.387   4.662   1.261
29166WAT     H187740   9.364   4.687   1.355
29166WAT     H287741   9.418   4.567   1.258
29167WAT      O87742   0.551   6.264   0.599
29167WAT     H187743   0.648   6.265   0.576
29167WAT     H287744   0.502   6.332   0.544
29168WAT      O87745   7.759   5.799   0.666
29168WAT     H187746   7.663   5.771   0.655
29168WAT     H287747   7.814   5.756   0.595
29169WAT      O87748   9.336   7.206   7.634
29169WAT     H187749   9.361   7.227   7.728
29169WAT     H287750   9.240   7.230   7.619
29170WAT      O87751   0.469   3.651   7.846
29170WAT     H187752   0.383   3.670   7.798
29170WAT     H287753   0.458   3.668   7.943
29171WAT      O87754   2.043   2.409   0.488
29171WAT     H187755   1.956   2.458   0.484
29171WAT     H287756   2.025   2.310   0.483
29172WAT      O87757   7.708   9.532   4.871
29172WAT     H187758   7.721   9.574   4.961
29172WAT     H287759   7.615   9.494   4.865
29173WAT      O87760   4.112   9.419   7.322
29173WAT     H187761   4.029   9.371   7.351
29173WAT     H287762   4.165   9.446   7.403
29174WAT      O87763   4.988   5.111   7.519
29174WAT     H187764   4.930   5.039   7.556
29174WAT     H287765   5.078   5.073   7.496
29175WAT      O87766   2.070   5.737   2.192
29175WAT     H187767   2.124   5.740   2.108
29175WAT     H287768   1.990   5.679   2.178
29176WAT      O87769   9.682   5.529   1.476
29176WAT     H187770   9.738   5.494   1.551
29176WAT     H287771   9.703   5.625   1.461
29177WAT      O87772   4.277   5.288   6.549
29177WAT     H187773   4.216   5.209   6.559
29177WAT     H287774   4.226   5.372   6.566
29178WAT      O87775   3.781   6.542   5.776
29178WAT     H187776   3.707   6.477   5.759
29178WAT     H287777   3.742   6.628   5.811
29179WAT      O87778   3.303   3.528   6.991
29179WAT     H187779   3.295   3.593   6.915
29179WAT     H287780   3.291   3.435   6.957
29180WAT      O87781   1.464   8.034   4.057
29180WAT     H187782   1.454   7.959   3.992
29180WAT     H287783   1.512   8.001   4.138
29181WAT      O87784   9.498   7.964   7.292
29181WAT     H187785   9.597   7.972   7.297
29181WAT     H287786   9.464   7.919   7.375
29182WAT      O87787   2.013   3.520   2.187
29182WAT     H187788   2.069   3.478   2.116
29182WAT     H287789   1.935   3.461   2.208
29183WAT      O87790   1.801   2.552   2.206
29183WAT     H187791   1.889   2.593   2.230
29183WAT     H287792   1.754   2.525   2.290
29184WAT      O87793   8.696   4.764   8.569
29184WAT     H187794   8.761   4.698   8.532
29184WAT     H287795   8.650   4.812   8.495
29185WAT      O87796   0.602   1.375   9.870
29185WAT     H187797   0.698   1.354   9.852
29185WAT     H287798   0.582   1.469   9.843
29186WAT      O87799   9.088   5.404   1.131
29186WAT     H187800   9.142   5.322   1.114
29186WAT     H287801   9.095   5.465   1.052
29187WAT      O87802   2.856   3.415   8.738
29187WAT     H187803   2.826   3.472   8.814
29187WAT     H287804   2.799   3.333   8.733
29188WAT      O87805   6.600   4.743   1.944
29188WAT     H187806   6.557   4.666   1.897
29188WAT     H287807   6.531   4.791   1.998
29189WAT      O87808   5.300   8.776   0.573
29189WAT     H187809   5.226   8.808   0.515
29189WAT     H287810   5.387   8.813   0.540
29190WAT      O87811   0.726   3.004   9.133
29190WAT     H187812   0.717   2.990   9.034
29190WAT     H287813   0.684   2.928   9.182
29191WAT      O87814   8.449   3.549   9.034
29191WAT     H187815   8.444   3.463   9.084
29191WAT     H287816   8.356   3.582   9.016
29192WAT      O87817   2.803   3.490   6.236
29192WAT     H187818   2.844   3.507   6.146
29192WAT     H287819   2.765   3.576   6.272
29193WAT      O87820   1.038   4.633   3.706
29193WAT     H187821   0.987   4.688   3.641
29193WAT     H287822   0.975   4.588   3.769
29194WAT      O87823   6.929   2.149   3.275
29194WAT     H187824   6.977   2.222   3.324
29194WAT     H287825   6.889   2.186   3.191
29195WAT      O87826   3.421   5.705   4.787
29195WAT     H187827   3.375   5.625   4.749
29195WAT     H287828   3.386   5.723   4.879
29196WAT      O87829   4.216   9.240   7.762
29196WAT     H187830   4.166   9.233   7.848
29196WAT     H287831   4.314   9.241   7.781
29197WAT      O87832   6.353   6.359   9.107
29197WAT     H187833   6.267   6.374   9.059
29197WAT     H287834   6.360   6.264   9.137
29198WAT      O87835   0.029   7.351   8.203
29198WAT     H187836  -0.067   7.337   8.178
29198WAT     H287837   0.073   7.411   8.135
29199WAT      O87838   6.474   2.213   2.306
29199WAT     H187839   6.525   2.241   2.225
29199WAT     H287840   6.428   2.293   2.345
29200WAT      O87841   4.086   8.161   9.691
29200WAT     H187842   3.987   8.159   9.680
29200WAT     H287843   4.122   8.068   9.684
29201WAT      O87844   9.116   2.625   9.884
29201WAT     H187845   9.050   2.696   9.906
29201WAT     H287846   9.111   2.552   9.951
29202WAT      O87847   9.802   2.413   3.803
29202WAT     H187848   9.845   2.387   3.889
29202WAT     H287849   9.816   2.341   3.735
29203WAT      O87850   3.333   8.768   2.394
29203WAT     H187851   3.279   8.694   2.352
29203WAT     H287852   3.396   8.729   2.461
29204WAT      O87853   0.049   9.694   8.298
29204WAT     H187854  -0.046   9.672   8.319
29204WAT     H287855   0.086   9.624   8.237
29205WAT      O87856   2.218   2.164   5.075
29205WAT     H187857   2.176   2.107   5.146
29205WAT     H287858   2.284   2.109   5.024
29206WAT      O87859   1.911   0.268   0.323
29206WAT     H187860   1.882   0.353   0.280
29206WAT     H287861   1.965   0.289   0.405
29207WAT      O87862   9.160   1.950   8.335
29207WAT     H187863   9.142   2.023   8.399
29207WAT     H287864   9.114   1.968   8.248
29208WAT      O87865   2.004   7.842   0.256
29208WAT     H187866   2.074   7.844   0.184
29208WAT     H287867   1.945   7.922   0.247
29209WAT      O87868   3.859   0.732   8.209
29209WAT     H187869   3.906   0.792   8.274
29209WAT     H287870   3.786   0.683   8.256
29210WAT      O87871   7.130   1.155   9.113
29210WAT     H187872   7.213   1.128   9.064
29210WAT     H287873   7.155   1.212   9.191
29211WAT      O87874   7.769   5.899   3.096
29211WAT     H187875   7.848   5.856   3.052
29211WAT     H287876   7.687   5.848   3.072
29212WAT      O87877   2.769   4.856   4.702
29212WAT     H187878   2.791   4.796   4.779
29212WAT     H287879   2.672   4.880   4.705
29213WAT      O87880   7.843   2.110   3.089
29213WAT     H187881   7.844   2.134   2.992
29213WAT     H287882   7.866   2.013   3.099
29214WAT      O87883   1.417   2.576   3.900
29214WAT     H187884   1.370   2.554   3.986
29214WAT     H287885   1.426   2.492   3.845
29215WAT      O87886   0.117   4.875   8.658
29215WAT     H187887   0.102   4.815   8.737
29215WAT     H287888   0.181   4.831   8.595
29216WAT      O87889   9.764   1.716   9.369
29216WAT     H187890   9.821   1.798   9.367
29216WAT     H287891   9.795   1.656   9.443
29217WAT      O87892   0.375   2.616   5.546
29217WAT     H187893   0.428   2.649   5.467
29217WAT     H287894   0.286   2.583   5.514
29218WAT      O87895   1.287   1.862   2.887
29218WAT     H187896   1.363   1.809   2.925
29218WAT     H287897   1.201   1.830   2.927
29219WAT      O87898   0.261   1.081   4.260
29219WAT     H187899   0.201   1.151   4.300
29219WAT     H287900   0.212   1.032   4.188
29220WAT      O87901   3.247   2.483   4.381
29220WAT     H187902   3.157   2.448   4.353
29220WAT     H287903   3.237   2.537   4.464
29221WAT      O87904   0.607   3.907   4.559
29221WAT     H187905   0.536   3.868   4.501
29221WAT     H287906   0.565   3.965   4.629
29222WAT      O87907   9.030   4.420   1.133
29222WAT     H187908   9.097   4.468   1.077
29222WAT     H287909   9.033   4.456   1.226
29223WAT      O87910   7.853   9.782   5.455
29223WAT     H187911   7.916   9.784   5.533
29223WAT     H287912   7.791   9.704   5.465
29224WAT      O87913   3.853   6.228   2.997
29224WAT     H187914   3.802   6.314   2.988
29224WAT     H287915   3.789   6.153   3.008
29225WAT      O87916   5.772   8.136   0.085
29225WAT     H187917   5.836   8.101   0.154
29225WAT     H287918   5.687   8.082   0.088
29226WAT      O87919   6.951   1.806   4.160
29226WAT     H187920   6.986   1.845   4.075
29226WAT     H287921   6.922   1.880   4.221
29227WAT      O87922   4.792   4.051   7.090
29227WAT     H187923   4.806   3.981   7.019
29227WAT     H287924   4.810   4.011   7.180
29228WAT      O87925   4.983   4.636   0.361
29228WAT     H187926   4.986   4.539   0.339
29228WAT     H287927   5.071   4.678   0.340
29229WAT      O87928   3.625   8.084   3.821
29229WAT     H187929   3.625   8.058   3.724
29229WAT     H287930   3.587   8.009   3.875
29230WAT      O87931   5.247   2.318   8.679
29230WAT     H187932   5.263   2.303   8.777
29230WAT     H287933   5.157   2.283   8.655
29231WAT      O87934   3.559   8.853   9.583
29231WAT     H187935   3.564   8.771   9.525
29231WAT     H287936   3.466   8.862   9.620
29232WAT      O87937   6.122   4.280   3.647
29232WAT     H187938   6.061   4.345   3.601
29232WAT     H287939   6.156   4.321   3.732
29233WAT      O87940   2.301   1.158   7.859
29233WAT     H187941   2.347   1.239   7.821
29233WAT     H287942   2.368   1.103   7.909
29234WAT      O87943   3.148   0.623   2.463
29234WAT     H187944   3.089   0.563   2.517
29234WAT     H287945   3.123   0.617   2.366
29235WAT      O87946   8.897   6.316   1.970
29235WAT     H187947   8.904   6.285   1.875
29235WAT     H287948   8.923   6.412   1.975
29236WAT      O87949   7.071   1.421   2.411
29236WAT     H187950   6.984   1.409   2.363
29236WAT     H287951   7.054   1.461   2.501
29237WAT      O87952   5.691   1.743   0.487
29237WAT     H187953   5.784   1.780   0.485
29237WAT     H287954   5.694   1.644   0.485
29238WAT      O87955   3.142   0.290   7.860
29238WAT     H187956   3.082   0.215   7.830
29238WAT     H287957   3.237   0.259   7.856
29239WAT      O87958   4.401   8.458   2.515
29239WAT     H187959   4.313   8.429   2.478
29239WAT     H287960   4.401   8.558   2.526
29240WAT      O87961   3.899   5.991   5.930
29240WAT     H187962   3.830   6.016   5.998
29240WAT     H287963   3.926   6.072   5.879
29241WAT      O87964   9.566   1.344   7.746
29241WAT     H187965   9.557   1.306   7.838
29241WAT     H287966   9.657   1.383   7.734
29242WAT      O87967   2.355   6.177   4.349
29242WAT     H187968   2.275   6.203   4.295
29242WAT     H287969   2.438   6.214   4.307
29243WAT      O87970   3.136   3.983   7.558
29243WAT     H187971   3.206   3.913   7.545
29243WAT     H287972   3.064   3.947   7.617
29244WAT      O87973   4.130   9.066   5.991
29244WAT     H187974   4.201   9.016   5.941
29244WAT     H287975   4.171   9.116   6.066
29245WAT      O87976   3.625   8.166   7.062
29245WAT     H187977   3.645   8.198   7.155
29245WAT     H287978   3.694   8.098   7.035
29246WAT      O87979   4.199   4.453   7.421
29246WAT     H187980   4.181   4.355   7.430
29246WAT     H287981   4.288   4.474   7.461
29247WAT      O87982   6.084   8.123   6.409
29247WAT     H187983   6.021   8.192   6.373
29247WAT     H287984   6.053   8.032   6.382
29248WAT      O87985   4.679   3.848   6.720
29248WAT     H187986   4.642   3.759   6.692
29248WAT     H287987   4.690   3.906   6.640
29249WAT      O87988   5.166   0.207   0.855
29249WAT     H187989   5.166   0.183   0.758
29249WAT     H287990   5.072   0.204   0.891
29250WAT      O87991   9.887   3.570   4.656
29250WAT     H187992   9.803   3.608   4.695
29250WAT     H287993   9.924   3.633   4.589
29251WAT      O87994   8.325   3.706   4.988
29251WAT     H187995   8.317   3.726   4.890
29251WAT     H287996   8.421   3.711   5.015
29252WAT      O87997   2.154   8.359   4.162
29252WAT     H187998   2.205   8.276   4.182
29252WAT     H287999   2.120   8.399   4.247
29253WAT      O88000   8.346   7.422   0.379
29253WAT     H188001   8.318   7.503   0.430
29253WAT     H288002   8.304   7.341   0.420
29254WAT      O88003   8.213   6.255   0.278
29254WAT     H188004   8.254   6.167   0.301
29254WAT     H288005   8.115   6.244   0.267
29255WAT      O88006   0.078   4.646   1.423
29255WAT     H188007   0.073   4.682   1.329
29255WAT     H288008   0.145   4.698   1.475
29256WAT      O88009   3.538   3.766   1.850
29256WAT     H188010   3.576   3.674   1.855
29256WAT     H288011   3.441   3.764   1.876
29257WAT      O88012   3.086   2.852   5.567
29257WAT     H188013   3.103   2.921   5.638
29257WAT     H288014   3.139   2.770   5.586
29258WAT      O88015   0.175   8.600   4.686
29258WAT     H188016   0.257   8.656   4.686
29258WAT     H288017   0.195   8.510   4.647
29259WAT      O88018   3.372   0.963   7.080
29259WAT     H188019   3.387   0.895   7.008
29259WAT     H288020   3.289   0.939   7.131
29260WAT      O88021   8.195   4.745   3.301
29260WAT     H188022   8.100   4.744   3.268
29260WAT     H288023   8.243   4.665   3.265
29261WAT      O88024   0.570   6.312   1.485
29261WAT     H188025   0.582   6.382   1.555
29261WAT     H288026   0.649   6.312   1.424
29262WAT      O88027   6.941   4.578   8.474
29262WAT     H188028   7.013   4.645   8.491
29262WAT     H288029   6.882   4.571   8.554
29263WAT      O88030   4.326   0.898   3.397
29263WAT     H188031   4.265   0.974   3.372
29263WAT     H288032   4.327   0.831   3.322
29264WAT      O88033   7.847   5.600   5.767
29264WAT     H188034   7.877   5.635   5.678
29264WAT     H288035   7.923   5.553   5.812
29265WAT      O88036   8.812   5.394   1.099
29265WAT     H188037   8.911   5.394   1.111
29265WAT     H288038   8.768   5.421   1.185
29266WAT      O88039   7.497   3.679   8.388
29266WAT     H188040   7.551   3.638   8.461
29266WAT     H288041   7.405   3.640   8.389
29267WAT      O88042   6.744   2.833   2.605
29267WAT     H188043   6.819   2.824   2.540
29267WAT     H288044   6.663   2.868   2.558
29268WAT      O88045   1.908   3.145   0.371
29268WAT     H188046   1.970   3.075   0.407
29268WAT     H288047   1.823   3.101   0.340
29269WAT      O88048   3.712   7.925   0.299
29269WAT     H188049   3.757   7.844   0.337
29269WAT     H288050   3.782   7.987   0.261
29270WAT      O88051   8.151   9.817   9.547
29270WAT     H188052   8.121   9.738   9.601
29270WAT     H288053   8.118   9.901   9.589
29271WAT      O88054   4.852   2.379   0.174
29271WAT     H188055   4.815   2.305   0.230
29271WAT     H288056   4.904   2.442   0.231
29272WAT      O88057   2.865   7.343   0.847
29272WAT     H188058   2.943   7.324   0.788
29272WAT     H288059   2.781   7.311   0.803
29273WAT      O88060   5.641   0.426   9.884
29273WAT     H188061   5.655   0.327   9.885
29273WAT     H288062   5.682   0.466   9.967
29274WAT      O88063   9.591   0.469   8.106
29274WAT     H188064   9.633   0.537   8.046
29274WAT     H288065   9.519   0.421   8.056
29275WAT      O88066   5.119   0.491   6.353
29275WAT     H188067   5.087   0.548   6.429
29275WAT     H288068   5.209   0.523   6.323
29276WAT      O88069   2.438   3.113   0.055
29276WAT     H188070   2.452   3.140  -0.040
29276WAT     H288071   2.344   3.082   0.068
29277WAT      O88072   7.164   5.855   6.671
29277WAT     H188073   7.143   5.878   6.576
29277WAT     H288074   7.181   5.756   6.677
29278WAT      O88075   8.836   4.067   8.367
29278WAT     H188076   8.760   4.032   8.311
29278WAT     H288077   8.868   4.154   8.329
29279WAT      O88078   7.826   1.081   6.096
29279WAT     H188079   7.894   1.103   6.166
29279WAT     H288080   7.739   1.059   6.140
29280WAT      O88081   2.585   8.315   3.180
29280WAT     H188082   2.562   8.386   3.247
29280WAT     H288083   2.645   8.247   3.224
29281WAT      O88084   7.116   3.259   4.701
29281WAT     H188085   7.157   3.276   4.791
29281WAT     H288086   7.032   3.313   4.693
29282WAT      O88087   8.936   5.212   3.856
29282WAT     H188088   9.010   5.155   3.891
29282WAT     H288089   8.958   5.244   3.765
29283WAT      O88090   5.914   4.828   0.765
29283WAT     H188091   5.868   4.790   0.684
29283WAT     H288092   5.886   4.776   0.846
29284WAT      O88093   1.747   7.825   3.969
29284WAT     H188094   1.795   7.759   4.026
29284WAT     H288095   1.649   7.809   3.975
29285WAT      O88096   4.869   4.504   8.294
29285WAT     H188097   4.849   4.601   8.308
29285WAT     H288098   4.955   4.481   8.339
29286WAT      O88099   4.789   0.693   6.025
29286WAT     H188100   4.733   0.707   6.107
29286WAT     H288101   4.838   0.778   6.004
29287WAT      O88102   1.821   1.635   7.754
29287WAT     H188103   1.742   1.693   7.739
29287WAT     H288104   1.791   1.547   7.791
29288WAT      O88105   5.528   5.861   8.996
29288WAT     H188106   5.432   5.875   8.969
29288WAT     H288107   5.540   5.886   9.092
29289WAT      O88108   6.650   9.033   2.865
29289WAT     H188109   6.578   9.098   2.838
29289WAT     H288110   6.631   8.944   2.824
29290WAT      O88111   5.772   2.646  -0.002
29290WAT     H188112   5.673   2.646   0.011
29290WAT     H288113   5.814   2.580   0.060
29291WAT      O88114   2.563   0.471   1.452
29291WAT     H188115   2.627   0.457   1.377
29291WAT     H288116   2.614   0.473   1.539
29292WAT      O88117   7.089   1.299   5.223
29292WAT     H188118   7.078   1.200   5.218
29292WAT     H288119   7.183   1.324   5.200
29293WAT      O88120   6.380   7.897   3.307
29293WAT     H188121   6.453   7.939   3.362
29293WAT     H288122   6.295   7.948   3.320
29294WAT      O88123   8.071   1.418   2.285
29294WAT     H188124   8.015   1.454   2.360
29294WAT     H288125   8.106   1.493   2.230
29295WAT      O88126   9.218   4.460   7.028
29295WAT     H188127   9.171   4.512   7.099
29295WAT     H288128   9.313   4.490   7.022
29296WAT      O88129   6.590   0.801   6.157
29296WAT     H188130   6.663   0.815   6.090
29296WAT     H288131   6.631   0.787   6.248
29297WAT      O88132   4.445   9.206   9.202
29297WAT     H188133   4.462   9.114   9.238
29297WAT     H288134   4.405   9.199   9.110
29298WAT      O88135   0.245   8.998   2.822
29298WAT     H188136   0.275   9.070   2.759
29298WAT     H288137   0.151   9.016   2.851
29299WAT      O88138   1.486   4.590   8.313
29299WAT     H188139   1.557   4.659   8.322
29299WAT     H288140   1.501   4.537   8.230
29300WAT      O88141   4.693   5.305   8.029
29300WAT     H188142   4.767   5.344   8.083
29300WAT     H288143   4.722   5.296   7.933
29301WAT      O88144   9.752   1.573   8.069
29301WAT     H188145   9.720   1.601   7.978
29301WAT     H288146   9.789   1.480   8.063
29302WAT      O88147   7.340   6.661   1.384
29302WAT     H188148   7.298   6.651   1.294
29302WAT     H288149   7.280   6.716   1.442
29303WAT      O88150   2.558   6.134   9.069
29303WAT     H188151   2.481   6.198   9.076
29303WAT     H288152   2.569   6.086   9.156
29304WAT      O88153   6.230   8.491   2.182
29304WAT     H188154   6.280   8.577   2.193
29304WAT     H288155   6.168   8.498   2.104
29305WAT      O88156   2.943   7.723   4.887
29305WAT     H188157   2.969   7.637   4.929
29305WAT     H288158   2.852   7.715   4.847
29306WAT      O88159   8.013   1.865   6.636
29306WAT     H188160   8.059   1.952   6.626
29306WAT     H288161   8.043   1.802   6.565
29307WAT      O88162   1.665   7.539   4.967
29307WAT     H188163   1.747   7.487   4.994
29307WAT     H288164   1.652   7.532   4.868
29308WAT      O88165   2.295   7.531   1.297
29308WAT     H188166   2.251   7.451   1.256
29308WAT     H288167   2.341   7.504   1.381
29309WAT      O88168   1.512   3.621   3.283
29309WAT     H188169   1.586   3.568   3.241
29309WAT     H288170   1.521   3.619   3.382
29310WAT      O88171   7.105   0.824   1.181
29310WAT     H188172   7.019   0.793   1.222
29310WAT     H288173   7.090   0.846   1.085
29311WAT      O88174   2.763   3.136   1.745
29311WAT     H188175   2.809   3.184   1.821
29311WAT     H288176   2.676   3.100   1.776
29312WAT      O88177   9.575   4.832   2.904
29312WAT     H188178   9.670   4.850   2.878
29312WAT     H288179   9.552   4.887   2.985
29313WAT      O88180   2.945   2.663   3.057
29313WAT     H188181   2.936   2.585   2.994
29313WAT     H288182   2.917   2.635   3.148
29314WAT      O88183   7.091   7.507   9.714
29314WAT     H188184   7.001   7.530   9.676
29314WAT     H288185   7.133   7.590   9.752
29315WAT      O88186   1.059   3.950   2.726
29315WAT     H188187   1.032   3.904   2.641
29315WAT     H288188   1.158   3.942   2.738
29316WAT      O88189   2.087   1.485   9.326
29316WAT     H188190   2.183   1.495   9.301
29316WAT     H288191   2.055   1.569   9.369
29317WAT      O88192   5.671   7.579   3.107
29317WAT     H188193   5.668   7.588   3.008
29317WAT     H288194   5.673   7.483   3.132
29318WAT      O88195   6.602   4.765   6.990
29318WAT     H188196   6.591   4.845   7.049
29318WAT     H288197   6.595   4.792   6.894
29319WAT      O88198   4.213   9.118   8.446
29319WAT     H188199   4.306   9.155   8.442
29319WAT     H288200   4.204   9.042   8.381
29320WAT      O88201   8.749   1.453   9.449
29320WAT     H188202   8.714   1.539   9.412
29320WAT     H288203   8.673   1.398   9.484
29321WAT      O88204   7.822   3.246   5.712
29321WAT     H188205   7.734   3.270   5.669
29321WAT     H288206   7.848   3.318   5.777
29322WAT      O88207   7.776   5.449   0.996
29322WAT     H188208   7.786   5.444   1.095
29322WAT     H288209   7.862   5.477   0.955
29323WAT      O88210   1.988   1.599   3.177
29323WAT     H188211   2.069   1.627   3.126
29323WAT     H288212   1.907   1.642   3.139
29324WAT      O88213   2.467   0.355   7.975
29324WAT     H188214   2.456   0.283   8.043
29324WAT     H288215   2.530   0.425   8.011
29325WAT      O88216   0.032   0.399   9.830
29325WAT     H188217   0.021   0.339   9.909
29325WAT     H288218  -0.006   0.490   9.852
29326WAT      O88219   0.293   6.958   1.857
29326WAT     H188220   0.304   6.950   1.758
29326WAT     H288221   0.328   6.876   1.902
29327WAT      O88222   1.080   7.220   3.894
29327WAT     H188223   1.152   7.270   3.943
29327WAT     H288224   1.121   7.146   3.841
29328WAT      O88225   0.173   7.139   5.827
29328WAT     H188226   0.259   7.121   5.780
29328WAT     H288227   0.157   7.238   5.829
29329WAT      O88228   6.358   8.408   7.341
29329WAT     H188229   6.287   8.404   7.411
29329WAT     H288230   6.374   8.317   7.304
29330WAT      O88231   8.002   0.339   1.290
29330WAT     H188232   7.931   0.302   1.350
29330WAT     H288233   8.074   0.271   1.278
29331WAT      O88234   7.078   2.106   1.490
29331WAT     H188235   7.145   2.096   1.563
29331WAT     H288236   7.080   2.025   1.431
29332WAT      O88237   1.203   7.602   8.670
29332WAT     H188238   1.263   7.569   8.596
29332WAT     H288239   1.188   7.701   8.659
29333WAT      O88240   0.680   7.954   3.969
29333WAT     H188241   0.668   8.019   3.894
29333WAT     H288242   0.721   7.870   3.933
29334WAT      O88243   5.474   0.476   0.692
29334WAT     H188244   5.467   0.380   0.662
29334WAT     H288245   5.571   0.499   0.706
29335WAT      O88246   3.689   5.288   7.335
29335WAT     H188247   3.765   5.315   7.276
29335WAT     H288248   3.699   5.333   7.424
29336WAT      O88249   4.463   1.788   9.680
29336WAT     H188250   4.546   1.804   9.733
29336WAT     H288251   4.488   1.771   9.584
29337WAT      O88252   8.933   2.519   5.561
29337WAT     H188253   8.940   2.485   5.467
29337WAT     H288254   8.873   2.598   5.564
29338WAT      O88255   4.995   2.173   3.754
29338WAT     H188256   4.981   2.265   3.793
29338WAT     H288257   5.093   2.152   3.754
29339WAT      O88258   5.166   8.952   9.262
29339WAT     H188259   5.084   8.966   9.207
29339WAT     H288260   5.205   9.041   9.286
29340WAT      O88261   8.050   1.779   5.015
29340WAT     H188262   8.017   1.699   4.965
29340WAT     H288263   8.146   1.794   4.994
29341WAT      O88264   0.047   9.493   2.538
29341WAT     H188265  -0.027   9.448   2.488
29341WAT     H288266   0.131   9.489   2.484
29342WAT      O88267   2.800   2.615   8.445
29342WAT     H188268   2.790   2.602   8.346
29342WAT     H288269   2.714   2.590   8.490
29343WAT      O88270   6.091   0.185   7.042
29343WAT     H188271   6.009   0.209   6.990
29343WAT     H288272   6.122   0.264   7.095
29344WAT      O88273   4.327   5.711   0.855
29344WAT     H188274   4.242   5.749   0.817
29344WAT     H288275   4.375   5.662   0.783
29345WAT      O88276   1.288   6.928   5.720
29345WAT     H188277   1.317   6.983   5.798
29345WAT     H288278   1.328   6.836   5.727
29346WAT      O88279   2.172   9.181   6.280
29346WAT     H188280   2.121   9.099   6.254
29346WAT     H288281   2.144   9.258   6.223
29347WAT      O88282   8.015   5.480   7.206
29347WAT     H188283   8.064   5.421   7.270
29347WAT     H288284   7.921   5.448   7.195
29348WAT      O88285   4.945   2.276   5.261
29348WAT     H188286   4.920   2.287   5.165
29348WAT     H288287   4.875   2.222   5.308
29349WAT      O88288   8.257   4.963   4.628
29349WAT     H188289   8.204   4.886   4.664
29349WAT     H288290   8.292   5.017   4.705
29350WAT      O88291   3.452   8.309   1.677
29350WAT     H188292   3.478   8.388   1.732
29350WAT     H288293   3.369   8.331   1.625
29351WAT      O88294   3.681   4.024   6.968
29351WAT     H188295   3.734   3.994   7.047
29351WAT     H288296   3.668   4.123   6.972
29352WAT      O88297   4.935   8.570   9.545
29352WAT     H188298   4.988   8.538   9.623
29352WAT     H288299   4.979   8.649   9.504
29353WAT      O88300   1.214   6.445   5.073
29353WAT     H188301   1.204   6.406   5.164
29353WAT     H288302   1.252   6.538   5.081
29354WAT      O88303   5.298   0.121   1.874
29354WAT     H188304   5.199   0.111   1.858
29354WAT     H288305   5.331   0.203   1.827
29355WAT      O88306   7.583   8.448   5.170
29355WAT     H188307   7.518   8.516   5.137
29355WAT     H288308   7.551   8.411   5.257
29356WAT      O88309   6.254   4.632   0.431
29356WAT     H188310   6.189   4.633   0.354
29356WAT     H288311   6.203   4.624   0.517
29357WAT      O88312   2.216   5.632   6.606
29357WAT     H188313   2.216   5.567   6.530
29357WAT     H288314   2.215   5.582   6.693
29358WAT      O88315   5.668   9.727   1.192
29358WAT     H188316   5.681   9.627   1.191
29358WAT     H288317   5.590   9.749   1.251
29359WAT      O88318   6.948   2.187   9.263
29359WAT     H188319   6.918   2.280   9.282
29359WAT     H288320   6.882   2.142   9.203
29360WAT      O88321   8.377   1.175   0.968
29360WAT     H188322   8.386   1.219   1.057
29360WAT     H288323   8.468   1.168   0.926
29361WAT      O88324   4.124   8.948   5.444
29361WAT     H188325   4.172   8.998   5.372
29361WAT     H288326   4.058   8.884   5.402
29362WAT      O88327   5.048   6.993   3.724
29362WAT     H188328   5.073   6.934   3.801
29362WAT     H288329   4.951   6.978   3.702
29363WAT      O88330   4.209   6.961   5.856
29363WAT     H188331   4.152   6.900   5.800
29363WAT     H288332   4.305   6.933   5.848
29364WAT      O88333   8.492   8.994   0.239
29364WAT     H188334   8.422   8.929   0.270
29364WAT     H288335   8.485   9.006   0.140
29365WAT      O88336   8.795   8.150   5.541
29365WAT     H188337   8.874   8.132   5.484
29365WAT     H288338   8.796   8.089   5.621
29366WAT      O88339   3.342   4.609   5.314
29366WAT     H188340   3.425   4.656   5.284
29366WAT     H288341   3.366   4.517   5.347
29367WAT      O88342   4.182   2.675   8.889
29367WAT     H188343   4.112   2.745   8.875
29367WAT     H288344   4.140   2.595   8.934
29368WAT      O88345   6.403   2.341   9.841
29368WAT     H188346   6.450   2.426   9.863
29368WAT     H288347   6.330   2.325   9.908
29369WAT      O88348   1.207   9.770   4.281
29369WAT     H188349   1.227   9.704   4.353
29369WAT     H288350   1.167   9.852   4.320
29370WAT      O88351   6.351   4.913   2.028
29370WAT     H188352   6.387   4.999   1.992
29370WAT     H288353   6.372   4.906   2.125
29371WAT      O88354   8.402   1.879   3.145
29371WAT     H188355   8.429   1.855   3.051
29371WAT     H288356   8.484   1.888   3.202
29372WAT      O88357   5.046   8.978   5.797
29372WAT     H188358   5.000   8.937   5.875
29372WAT     H288359   5.029   8.923   5.715
29373WAT      O88360   1.259   5.591   0.684
29373WAT     H188361   1.317   5.665   0.648
29373WAT     H288362   1.312   5.507   0.689
29374WAT      O88363   6.734   5.277   6.044
29374WAT     H188364   6.739   5.187   6.088
29374WAT     H288365   6.803   5.282   5.971
29375WAT      O88366   0.274   5.249   3.546
29375WAT     H188367   0.191   5.203   3.517
29375WAT     H288368   0.283   5.242   3.646
29376WAT      O88369   4.015   4.662   2.003
29376WAT     H188370   4.008   4.760   2.026
29376WAT     H288371   4.020   4.652   1.903
29377WAT      O88372   7.868   6.400   7.986
29377WAT     H188373   7.871   6.458   8.067
29377WAT     H288374   7.951   6.414   7.932
29378WAT      O88375   3.414   2.437   8.446
29378WAT     H188376   3.499   2.407   8.490
29378WAT     H288377   3.380   2.520   8.491
29379WAT      O88378   7.728   0.791   5.865
29379WAT     H188379   7.652   0.856   5.873
29379WAT     H288380   7.789   0.819   5.791
29380WAT      O88381   6.459   7.625   4.847
29380WAT     H188382   6.390   7.596   4.914
29380WAT     H288383   6.548   7.590   4.874
29381WAT      O88384   3.084   5.820   6.188
29381WAT     H188385   3.020   5.798   6.114
29381WAT     H288386   3.167   5.860   6.150
29382WAT      O88387   7.387   6.307   9.681
29382WAT     H188388   7.400   6.210   9.704
29382WAT     H288389   7.299   6.319   9.636
29383WAT      O88390   9.204   3.977   1.266
29383WAT     H188391   9.147   4.044   1.218
29383WAT     H288392   9.297   4.012   1.275
29384WAT      O88393   8.521   5.053   7.146
29384WAT     H188394   8.605   5.094   7.182
29384WAT     H288395   8.542   5.001   7.063
29385WAT      O88396   4.888   6.542   2.232
29385WAT     H188397   4.877   6.642   2.230
29385WAT     H288398   4.802   6.500   2.263
29386WAT      O88399   2.686   6.773   1.060
29386WAT     H188400   2.736   6.692   1.093
29386WAT     H288401   2.743   6.854   1.073
29387WAT      O88402   4.529   9.651   2.096
29387WAT     H188403   4.465   9.689   2.030
29387WAT     H288404   4.620   9.691   2.081
29388WAT      O88405   9.039   9.432   7.393
29388WAT     H188406   9.085   9.345   7.377
29388WAT     H288407   9.003   9.434   7.486
29389WAT      O88408   1.702   5.490   5.232
29389WAT     H188409   1.645   5.464   5.155
29389WAT     H288410   1.676   5.438   5.313
29390WAT      O88411   3.148   7.967   4.454
29390WAT     H188412   3.107   7.931   4.538
29390WAT     H288413   3.137   7.900   4.381
29391WAT      O88414   4.531   0.780   9.276
29391WAT     H188415   4.602   0.804   9.210
29391WAT     H288416   4.574   0.754   9.363
29392WAT      O88417   1.233   1.104   1.463
29392WAT     H188418   1.305   1.107   1.394
29392WAT     H288419   1.156   1.160   1.432
29393WAT      O88420   2.225   5.964   0.907
29393WAT     H188421   2.185   6.001   0.991
29393WAT     H288422   2.325   5.974   0.910
29394WAT      O88423   3.608   5.140   1.246
29394WAT     H188424   3.704   5.113   1.240
29394WAT     H288425   3.601   5.228   1.294
29395WAT      O88426   6.205   1.380   0.077
29395WAT     H188427   6.198   1.281   0.084
29395WAT     H288428   6.294   1.410   0.112
29396WAT      O88429   9.740   9.180   4.986
29396WAT     H188430   9.641   9.191   4.993
29396WAT     H288431   9.761   9.107   4.920
29397WAT      O88432   5.516   3.094   6.016
29397WAT     H188433   5.490   3.190   6.007
29397WAT     H288434   5.460   3.051   6.087
29398WAT      O88435   8.723   9.375   3.211
29398WAT     H188436   8.807   9.418   3.242
29398WAT     H288437   8.644   9.427   3.245
29399WAT      O88438   5.365   8.277   6.376
29399WAT     H188439   5.374   8.269   6.475
29399WAT     H288440   5.431   8.343   6.341
29400WAT      O88441   6.273   0.956   5.262
29400WAT     H188442   6.357   1.006   5.240
29400WAT     H288443   6.194   1.006   5.224
29401WAT      O88444   6.727   3.667   2.369
29401WAT     H188445   6.656   3.686   2.437
29401WAT     H288446   6.797   3.738   2.372
29402WAT      O88447   4.633   8.412   7.397
29402WAT     H188448   4.559   8.439   7.335
29402WAT     H288449   4.652   8.486   7.462
29403WAT      O88450   2.379   2.396   4.356
29403WAT     H188451   2.411   2.354   4.442
29403WAT     H288452   2.279   2.396   4.355
29404WAT      O88453   5.806   6.051   9.145
29404WAT     H188454   5.889   6.070   9.093
29404WAT     H288455   5.731   6.109   9.111
29405WAT      O88456   8.108   5.043   9.316
29405WAT     H188457   8.061   5.124   9.352
29405WAT     H288458   8.153   5.066   9.230
29406WAT      O88459   4.286   6.004   8.089
29406WAT     H188460   4.273   5.922   8.034
29406WAT     H288461   4.250   5.989   8.181
29407WAT      O88462   1.796   7.449   2.990
29407WAT     H188463   1.768   7.424   3.083
29407WAT     H288464   1.823   7.367   2.940
29408WAT      O88465   9.556   3.919   5.898
29408WAT     H188466   9.618   3.968   5.836
29408WAT     H288467   9.591   3.827   5.915
29409WAT      O88468   6.488   3.095   3.568
29409WAT     H188469   6.504   3.194   3.563
29409WAT     H288470   6.405   3.072   3.517
29410WAT      O88471   6.704   3.639   8.699
29410WAT     H188472   6.626   3.653   8.760
29410WAT     H288473   6.788   3.667   8.745
29411WAT      O88474   5.507   3.402   6.015
29411WAT     H188475   5.581   3.409   6.083
29411WAT     H288476   5.458   3.489   6.011
29412WAT      O88477   4.403   0.796   7.588
29412WAT     H188478   4.468   0.863   7.622
29412WAT     H288479   4.391   0.723   7.657
29413WAT      O88480   1.581   9.776   6.124
29413WAT     H188481   1.672   9.775   6.167
29413WAT     H288482   1.520   9.714   6.174
29414WAT      O88483   5.555   8.487   1.326
29414WAT     H188484   5.632   8.426   1.342
29414WAT     H288485   5.532   8.487   1.228
29415WAT      O88486   7.016   4.979   7.443
29415WAT     H188487   6.949   5.051   7.428
29415WAT     H288488   7.023   4.960   7.541
29416WAT      O88489   6.648   2.927   0.897
29416WAT     H188490   6.748   2.926   0.898
29416WAT     H288491   6.614   2.858   0.960
29417WAT      O88492   4.286   5.835   3.942
29417WAT     H188493   4.277   5.799   3.849
29417WAT     H288494   4.212   5.800   3.999
29418WAT      O88495   6.025   6.359   1.303
29418WAT     H188496   5.995   6.382   1.210
29418WAT     H288497   5.991   6.268   1.327
29419WAT      O88498   0.952   6.504   2.357
29419WAT     H188499   0.908   6.590   2.381
29419WAT     H288500   1.046   6.502   2.393
29420WAT      O88501   1.989   6.567   5.391
29420WAT     H188502   2.036   6.600   5.473
29420WAT     H288503   1.891   6.586   5.398
29421WAT      O88504   1.198   3.038   8.158
29421WAT     H188505   1.234   3.111   8.101
29421WAT     H288506   1.099   3.031   8.144
29422WAT      O88507   3.286   2.763   2.190
29422WAT     H188508   3.329   2.832   2.248
29422WAT     H288509   3.216   2.715   2.242
29423WAT      O88510   0.328   8.605   2.607
29423WAT     H188511   0.372   8.566   2.526
29423WAT     H288512   0.281   8.689   2.582
29424WAT      O88513   6.401   9.234   1.696
29424WAT     H188514   6.304   9.224   1.714
29424WAT     H288515   6.448   9.259   1.781
29425WAT      O88516   0.965   3.697   7.459
29425WAT     H188517   1.016   3.634   7.402
29425WAT     H288518   0.881   3.725   7.411
29426WAT      O88519   9.219   7.574   8.035
29426WAT     H188520   9.125   7.547   8.058
29426WAT     H288521   9.218   7.667   8.000
29427WAT      O88522   9.111   4.653   3.149
29427WAT     H188523   9.093   4.722   3.219
29427WAT     H288524   9.033   4.591   3.143
29428WAT      O88525   1.291   5.547   8.689
29428WAT     H188526   1.384   5.542   8.654
29428WAT     H288527   1.250   5.635   8.666
29429WAT      O88528   0.352   5.011   6.745
29429WAT     H188529   0.259   4.992   6.775
29429WAT     H288530   0.391   5.086   6.800
29430WAT      O88531   9.308   4.772   6.130
29430WAT     H188532   9.323   4.701   6.061
29430WAT     H288533   9.394   4.790   6.179
29431WAT      O88534   0.022   8.867   5.560
29431WAT     H188535   0.105   8.907   5.521
29431WAT     H288536   0.011   8.773   5.526
29432WAT      O88537   5.247   1.372   0.585
29432WAT     H188538   5.313   1.327   0.524
29432WAT     H288539   5.157   1.372   0.542
29433WAT      O88540   6.091   4.218   1.408
29433WAT     H188541   6.121   4.285   1.340
29433WAT     H288542   6.039   4.146   1.364
29434WAT      O88543   6.686   5.209   7.806
29434WAT     H188544   6.666   5.302   7.836
29434WAT     H288545   6.641   5.144   7.868
29435WAT      O88546   6.187   0.386   8.634
29435WAT     H188547   6.117   0.350   8.695
29435WAT     H288548   6.170   0.482   8.615
29436WAT      O88549   9.093   6.828   5.403
29436WAT     H188550   9.131   6.916   5.376
29436WAT     H288551   9.076   6.828   5.502
29437WAT      O88552   3.290   7.973   0.541
29437WAT     H188553   3.321   7.922   0.460
29437WAT     H288554   3.217   7.922   0.585
29438WAT      O88555   2.718   5.557   1.200
29438WAT     H188556   2.757   5.635   1.151
29438WAT     H288557   2.738   5.473   1.149
29439WAT      O88558   0.722   8.899   2.392
29439WAT     H188559   0.622   8.905   2.392
29439WAT     H288560   0.758   8.941   2.308
29440WAT      O88561   9.239   1.600   8.787
29440WAT     H188562   9.221   1.555   8.874
29440WAT     H288563   9.206   1.694   8.789
29441WAT      O88564   3.913   3.047   3.396
29441WAT     H188565   3.984   2.979   3.413
29441WAT     H288566   3.895   3.099   3.480
29442WAT      O88567   5.364   9.461   2.888
29442WAT     H188568   5.448   9.419   2.923
29442WAT     H288569   5.329   9.526   2.955
29443WAT      O88570   3.021   7.571   3.139
29443WAT     H188571   3.022   7.536   3.233
29443WAT     H288572   3.068   7.506   3.079
29444WAT      O88573   0.101   8.669   1.079
29444WAT     H188574   0.150   8.748   1.116
29444WAT     H288575   0.083   8.604   1.152
29445WAT      O88576   3.016   2.199   7.455
29445WAT     H188577   3.015   2.192   7.555
29445WAT     H288578   3.107   2.177   7.420
29446WAT      O88579   1.115   3.310   3.822
29446WAT     H188580   1.167   3.227   3.840
29446WAT     H288581   1.174   3.390   3.832
29447WAT      O88582   2.797   0.414   6.544
29447WAT     H188583   2.869   0.422   6.475
29447WAT     H288584   2.709   0.400   6.499
29448WAT      O88585   5.131   4.084   5.082
29448WAT     H188586   5.188   4.092   5.164
29448WAT     H288587   5.159   4.154   5.016
29449WAT      O88588   8.824   1.786   2.462
29449WAT     H188589   8.908   1.752   2.505
29449WAT     H288590   8.801   1.730   2.383
29450WAT      O88591   9.161   6.602   6.679
29450WAT     H188592   9.259   6.604   6.662
29450WAT     H288593   9.131   6.508   6.692
29451WAT      O88594   0.971   1.960   0.619
29451WAT     H188595   0.979   1.948   0.718
29451WAT     H288596   1.039   2.026   0.588
29452WAT      O88597   1.719   7.166   1.950
29452WAT     H188598   1.673   7.218   1.878
29452WAT     H288599   1.797   7.219   1.984
29453WAT      O88600   1.372   4.749   6.514
29453WAT     H188601   1.440   4.816   6.542
29453WAT     H288602   1.294   4.751   6.577
29454WAT      O88603   4.544   2.646   7.292
29454WAT     H188604   4.450   2.613   7.279
29454WAT     H288605   4.602   2.610   7.219
29455WAT      O88606   3.094   7.028   4.198
29455WAT     H188607   3.003   6.993   4.222
29455WAT     H288608   3.154   7.024   4.278
29456WAT      O88609   3.021   5.932   3.436
29456WAT     H188610   2.968   6.001   3.485
29456WAT     H288611   3.108   5.919   3.483
29457WAT      O88612   6.134   8.184   7.928
29457WAT     H188613   6.217   8.192   7.984
29457WAT     H288614   6.118   8.088   7.906
29458WAT      O88615   4.815   2.721   1.757
29458WAT     H188616   4.722   2.744   1.729
29458WAT     H288617   4.836   2.627   1.732
29459WAT      O88618   7.780   5.135   9.521
29459WAT     H188619   7.741   5.091   9.440
29459WAT     H288620   7.856   5.194   9.493
29460WAT      O88621   9.794   8.874   1.042
29460WAT     H188622   9.857   8.799   1.059
29460WAT     H288623   9.774   8.879   0.945
29461WAT      O88624   7.839   9.457   7.021
29461WAT     H188625   7.807   9.538   6.970
29461WAT     H288626   7.770   9.432   7.089
29462WAT      O88627   4.728   1.613   5.519
29462WAT     H188628   4.819   1.644   5.492
29462WAT     H288629   4.694   1.548   5.451
29463WAT      O88630   1.546   3.779   4.543
29463WAT     H188631   1.632   3.830   4.535
29463WAT     H288632   1.528   3.760   4.640
29464WAT      O88633   4.264   7.461   0.114
29464WAT     H188634   4.229   7.370   0.093
29464WAT     H288635   4.329   7.455   0.190
29465WAT      O88636   6.228   8.860   4.836
29465WAT     H188637   6.249   8.955   4.810
29465WAT     H288638   6.307   8.802   4.817
29466WAT      O88639   3.028   5.979   1.295
29466WAT     H188640   3.035   6.004   1.391
29466WAT     H288641   3.113   5.935   1.265
29467WAT      O88642   0.970   5.682   2.849
29467WAT     H188643   0.942   5.765   2.897
29467WAT     H288644   0.906   5.608   2.870
29468WAT      O88645   6.173   2.170   1.390
29468WAT     H188646   6.184   2.263   1.423
29468WAT     H288647   6.182   2.168   1.291
29469WAT      O88648   9.120   2.716   6.978
29469WAT     H188649   9.066   2.744   7.058
29469WAT     H288650   9.107   2.618   6.962
29470WAT      O88651   5.397   5.616   1.115
29470WAT     H188652   5.308   5.639   1.076
29470WAT     H288653   5.389   5.532   1.169
29471WAT      O88654   5.513   6.040   2.576
29471WAT     H188655   5.511   6.016   2.673
29471WAT     H288656   5.581   5.983   2.529
29472WAT      O88657   6.432   9.069   8.029
29472WAT     H188658   6.336   9.058   8.052
29472WAT     H288659   6.485   8.995   8.069
29473WAT      O88660   4.995   6.145   8.866
29473WAT     H188661   5.021   6.216   8.931
29473WAT     H288662   4.946   6.185   8.790
29474WAT      O88663   5.599   3.817   2.711
29474WAT     H188664   5.586   3.718   2.700
29474WAT     H288665   5.689   3.834   2.753
29475WAT      O88666   4.032   0.042   9.561
29475WAT     H188667   4.085   0.102   9.501
29475WAT     H288668   4.083   0.026   9.646
29476WAT      O88669   7.525   0.441   4.843
29476WAT     H188670   7.438   0.486   4.822
29476WAT     H288671   7.552   0.463   4.937
29477WAT      O88672   3.919   1.661   7.281
29477WAT     H188673   3.970   1.603   7.218
29477WAT     H288674   3.828   1.679   7.244
29478WAT      O88675   5.570   0.028   5.445
29478WAT     H188676   5.666   0.017   5.472
29478WAT     H288677   5.565   0.084   5.362
29479WAT      O88678   4.061   7.281   8.472
29479WAT     H188679   4.062   7.378   8.494
29479WAT     H288680   4.008   7.266   8.389
29480WAT      O88681   2.585   3.491   7.040
29480WAT     H188682   2.630   3.497   7.129
29480WAT     H288683   2.502   3.548   7.041
29481WAT      O88684   5.878   1.271   9.535
29481WAT     H188685   5.948   1.341   9.550
29481WAT     H288686   5.812   1.272   9.610
29482WAT      O88687   2.564   0.921   0.639
29482WAT     H188688   2.663   0.924   0.628
29482WAT     H288689   2.522   0.995   0.586
29483WAT      O88690   8.775   3.986   6.494
29483WAT     H188691   8.773   4.004   6.592
29483WAT     H288692   8.795   4.071   6.445
29484WAT      O88693   9.761   5.109   2.682
29484WAT     H188694   9.706   5.193   2.687
29484WAT     H288695   9.858   5.133   2.684
29485WAT      O88696   2.752   5.690   2.879
29485WAT     H188697   2.849   5.699   2.900
29485WAT     H288698   2.717   5.777   2.842
29486WAT      O88699   6.789   1.988   2.548
29486WAT     H188700   6.884   2.008   2.524
29486WAT     H288701   6.736   2.073   2.548
29487WAT      O88702   0.849   2.435   3.607
29487WAT     H188703   0.868   2.407   3.513
29487WAT     H288704   0.752   2.421   3.628
29488WAT      O88705   2.312   4.388   3.044
29488WAT     H188706   2.294   4.373   3.141
29488WAT     H288707   2.237   4.441   3.003
29489WAT      O88708   6.511   9.791   1.621
29489WAT     H188709   6.463   9.706   1.599
29489WAT     H288710   6.499   9.856   1.546
29490WAT      O88711   0.750   4.669   8.752
29490WAT     H188712   0.723   4.634   8.842
29490WAT     H288713   0.713   4.761   8.741
29491WAT      O88714   0.045   7.767   9.662
29491WAT     H188715  -0.028   7.746   9.727
29491WAT     H288716   0.100   7.686   9.644
29492WAT      O88717   4.706   0.868   4.662
29492WAT     H188718   4.778   0.926   4.700
29492WAT     H288719   4.724   0.773   4.685
29493WAT      O88720   8.509   8.092   5.139
29493WAT     H188721   8.474   8.069   5.049
29493WAT     H288722   8.601   8.056   5.149
29494WAT      O88723   8.886   5.821   0.356
29494WAT     H188724   8.826   5.875   0.297
29494WAT     H288725   8.831   5.770   0.423
29495WAT      O88726   8.412   2.404   3.249
29495WAT     H188727   8.353   2.389   3.170
29495WAT     H288728   8.495   2.452   3.219
29496WAT      O88729   1.363   6.501   0.965
29496WAT     H188730   1.456   6.480   0.935
29496WAT     H288731   1.344   6.598   0.950
29497WAT      O88732   0.920   8.475   0.594
29497WAT     H188733   0.869   8.556   0.565
29497WAT     H288734   0.855   8.406   0.627
29498WAT      O88735   6.078   0.701   4.849
29498WAT     H188736   6.009   0.668   4.784
29498WAT     H288737   6.097   0.630   4.917
29499WAT      O88738   9.447   4.827   6.591
29499WAT     H188739   9.488   4.754   6.537
29499WAT     H288740   9.495   4.913   6.573
29500WAT      O88741   0.720   9.177   5.375
29500WAT     H188742   0.751   9.186   5.470
29500WAT     H288743   0.783   9.224   5.314
29501WAT      O88744   2.235   7.476   9.197
29501WAT     H188745   2.231   7.550   9.264
29501WAT     H288746   2.302   7.408   9.226
29502WAT      O88747   1.007   3.539   8.946
29502WAT     H188748   0.978   3.573   9.036
29502WAT     H288749   1.097   3.575   8.924
29503WAT      O88750   0.229   8.354   2.786
29503WAT     H188751   0.285   8.271   2.782
29503WAT     H288752   0.272   8.427   2.733
29504WAT      O88753   3.401   6.272   7.430
29504WAT     H188754   3.413   6.321   7.516
29504WAT     H288755   3.356   6.184   7.447
29505WAT      O88756   2.990   6.363   2.656
29505WAT     H188757   2.935   6.286   2.626
29505WAT     H288758   2.997   6.431   2.582
29506WAT      O88759   1.885   8.389   8.880
29506WAT     H188760   1.971   8.349   8.914
29506WAT     H288761   1.854   8.459   8.945
29507WAT      O88762   9.212   3.247   6.497
29507WAT     H188763   9.219   3.168   6.558
29507WAT     H288764   9.141   3.308   6.530
29508WAT      O88765   1.974   5.227   0.373
29508WAT     H188766   1.919   5.265   0.299
29508WAT     H288767   2.065   5.203   0.338
29509WAT      O88768   9.122   5.282   0.523
29509WAT     H188769   9.056   5.336   0.574
29509WAT     H288770   9.125   5.314   0.428
29510WAT      O88771   6.965   0.345   2.423
29510WAT     H188772   7.035   0.275   2.433
29510WAT     H288773   6.908   0.326   2.344
29511WAT      O88774   5.537   8.344   9.510
29511WAT     H188775   5.558   8.263   9.565
29511WAT     H288776   5.582   8.337   9.422
29512WAT      O88777   0.492   7.907   4.326
29512WAT     H188778   0.494   7.971   4.249
29512WAT     H288779   0.508   7.956   4.411
29513WAT      O88780   0.069   2.849   6.535
29513WAT     H188781  -0.020   2.876   6.499
29513WAT     H288782   0.059   2.814   6.628
29514WAT      O88783   0.402   8.596   5.864
29514WAT     H188784   0.373   8.541   5.786
29514WAT     H288785   0.462   8.670   5.832
29515WAT      O88786   7.516   3.212   6.365
29515WAT     H188787   7.441   3.147   6.381
29515WAT     H288788   7.530   3.267   6.448
29516WAT      O88789   6.551   9.100   0.032
29516WAT     H188790   6.556   9.196   0.061
29516WAT     H288791   6.635   9.053   0.058
29517WAT      O88792   5.516   1.707   7.330
29517WAT     H188793   5.572   1.627   7.310
29517WAT     H288794   5.446   1.683   7.397
29518WAT      O88795   3.717   0.303   8.339
29518WAT     H188796   3.633   0.337   8.297
29518WAT     H288797   3.786   0.289   8.268
29519WAT      O88798   4.286   5.012   6.943
29519WAT     H188799   4.337   4.927   6.931
29519WAT     H288800   4.281   5.035   7.041
29520WAT      O88801   3.193   1.163   0.930
29520WAT     H188802   3.191   1.186   1.027
29520WAT     H288803   3.253   1.084   0.916
29521WAT      O88804   3.224   9.067   4.833
29521WAT     H188805   3.171   9.137   4.880
29521WAT     H288806   3.279   9.109   4.761
29522WAT      O88807   5.284   8.941   7.269
29522WAT     H188808   5.306   8.843   7.270
29522WAT     H288809   5.185   8.953   7.263
29523WAT      O88810   6.116   7.161   5.818
29523WAT     H188811   6.035   7.149   5.760
29523WAT     H288812   6.092   7.143   5.914
29524WAT      O88813   4.675   4.518   9.336
29524WAT     H188814   4.659   4.516   9.237
29524WAT     H288815   4.621   4.593   9.376
29525WAT      O88816   6.501   4.584   6.018
29525WAT     H188817   6.443   4.585   6.100
29525WAT     H288818   6.593   4.612   6.043
29526WAT      O88819   0.892   1.706   5.924
29526WAT     H188820   0.899   1.783   5.861
29526WAT     H288821   0.890   1.739   6.018
29527WAT      O88822   7.532   1.284   7.802
29527WAT     H188823   7.522   1.185   7.810
29527WAT     H288824   7.463   1.319   7.739
29528WAT      O88825   1.530   7.082   6.819
29528WAT     H188826   1.602   7.134   6.864
29528WAT     H288827   1.461   7.055   6.886
29529WAT      O88828   6.242   4.814   5.887
29529WAT     H188829   6.244   4.715   5.900
29529WAT     H288830   6.256   4.835   5.790
29530WAT      O88831   7.899   1.608   6.481
29530WAT     H188832   7.987   1.641   6.448
29530WAT     H288833   7.904   1.509   6.495
29531WAT      O88834   1.743   9.752   7.748
29531WAT     H188835   1.766   9.655   7.759
29531WAT     H288836   1.772   9.783   7.658
29532WAT      O88837   3.653   2.193   9.831
29532WAT     H188838   3.641   2.293   9.829
29532WAT     H288839   3.637   2.157   9.739
29533WAT      O88840   3.978   6.445   4.729
29533WAT     H188841   4.064   6.395   4.729
29533WAT     H288842   3.919   6.408   4.801
29534WAT      O88843   0.548   4.328   6.455
29534WAT     H188844   0.532   4.421   6.490
29534WAT     H288845   0.566   4.333   6.357
29535WAT      O88846   4.205   6.578   2.979
29535WAT     H188847   4.114   6.543   2.954
29535WAT     H288848   4.203   6.612   3.073
29536WAT      O88849   3.175   8.881   7.223
29536WAT     H188850   3.178   8.798   7.278
29536WAT     H288851   3.230   8.869   7.140
29537WAT      O88852   2.806   3.315   3.379
29537WAT     H188853   2.766   3.402   3.409
29537WAT     H288854   2.776   3.241   3.440
29538WAT      O88855   2.614   1.142   8.218
29538WAT     H188856   2.699   1.090   8.217
29538WAT     H288857   2.607   1.198   8.136
29539WAT      O88858   6.345   1.768   6.982
29539WAT     H188859   6.286   1.828   6.928
29539WAT     H288860   6.338   1.675   6.947
29540WAT      O88861   3.447   1.375   5.522
29540WAT     H188862   3.425   1.412   5.431
29540WAT     H288863   3.430   1.277   5.522
29541WAT      O88864   3.173   0.178   0.828
29541WAT     H188865   3.171   0.087   0.787
29541WAT     H288866   3.253   0.228   0.794
29542WAT      O88867   7.575   7.976   0.121
29542WAT     H188868   7.484   7.997   0.157
29542WAT     H288869   7.630   7.933   0.192
29543WAT      O88870   7.832   9.713   6.570
29543WAT     H188871   7.740   9.723   6.531
29543WAT     H288872   7.898   9.696   6.496
29544WAT      O88873   0.799   1.455   5.637
29544WAT     H188874   0.890   1.493   5.652
29544WAT     H288875   0.807   1.361   5.604
29545WAT      O88876   8.820   4.995   6.364
29545WAT     H188877   8.894   5.061   6.348
29545WAT     H288878   8.859   4.908   6.394
29546WAT      O88879   9.616   4.009   2.379
29546WAT     H188880   9.711   4.010   2.348
29546WAT     H288881   9.580   4.102   2.379
29547WAT      O88882   8.167   7.522   5.137
29547WAT     H188883   8.210   7.543   5.050
29547WAT     H288884   8.110   7.599   5.166
29548WAT      O88885   9.270   8.404   9.499
29548WAT     H188886   9.263   8.305   9.512
29548WAT     H288887   9.359   8.436   9.532
29549WAT      O88888   5.807   4.494   4.904
29549WAT     H188889   5.852   4.449   4.827
29549WAT     H288890   5.798   4.430   4.980
29550WAT      O88891   3.184   2.012   1.321
29550WAT     H188892   3.149   2.072   1.392
29550WAT     H288893   3.283   2.024   1.312
29551WAT      O88894   5.914   3.729   5.221
29551WAT     H188895   5.922   3.631   5.201
29551WAT     H288896   5.956   3.781   5.147
29552WAT      O88897   4.593   6.860   4.794
29552WAT     H188898   4.549   6.776   4.824
29552WAT     H288899   4.615   6.917   4.873
29553WAT      O88900   3.578   0.176   1.038
29553WAT     H188901   3.601   0.095   1.091
29553WAT     H288902   3.633   0.254   1.069
29554WAT      O88903   8.730   9.338   2.385
29554WAT     H188904   8.673   9.263   2.353
29554WAT     H288905   8.677   9.399   2.443
29555WAT      O88906   2.999   0.105   3.694
29555WAT     H188907   2.994   0.201   3.723
29555WAT     H288908   2.931   0.052   3.744
29556WAT      O88909   2.371   0.428   5.834
29556WAT     H188910   2.444   0.369   5.799
29556WAT     H288911   2.400   0.524   5.829
29557WAT      O88912   7.680   1.675   5.953
29557WAT     H188913   7.706   1.764   5.990
29557WAT     H288914   7.756   1.638   5.900
29558WAT      O88915   1.249   3.036   5.487
29558WAT     H188916   1.244   3.014   5.584
29558WAT     H288917   1.221   3.131   5.472
29559WAT      O88918   8.488   9.651   6.188
29559WAT     H188919   8.535   9.709   6.254
29559WAT     H288920   8.521   9.557   6.196
29560WAT      O88921   6.849   5.512   4.107
29560WAT     H188922   6.811   5.449   4.040
29560WAT     H288923   6.871   5.462   4.191
29561WAT      O88924   7.795   0.295   0.084
29561WAT     H188925   7.808   0.245   0.169
29561WAT     H288926   7.831   0.388   0.094
29562WAT      O88927   4.124   6.661   3.860
29562WAT     H188928   4.025   6.648   3.866
29562WAT     H288929   4.159   6.694   3.948
29563WAT      O88930   4.661   7.415   8.102
29563WAT     H188931   4.702   7.504   8.083
29563WAT     H288932   4.700   7.346   8.041
29564WAT      O88933   6.348   1.204   3.239
29564WAT     H188934   6.306   1.206   3.330
29564WAT     H288935   6.335   1.113   3.198
29565WAT      O88936   9.482   2.637   2.476
29565WAT     H188937   9.463   2.610   2.571
29565WAT     H288938   9.464   2.735   2.465
29566WAT      O88939   0.373   6.423   9.086
29566WAT     H188940   0.470   6.412   9.065
29566WAT     H288941   0.340   6.510   9.050
29567WAT      O88942   9.272   3.277   3.992
29567WAT     H188943   9.206   3.329   4.046
29567WAT     H288944   9.343   3.240   4.052
29568WAT      O88945   5.556   4.512   1.038
29568WAT     H188946   5.475   4.500   1.095
29568WAT     H288947   5.625   4.562   1.090
29569WAT      O88948   1.852   6.619   1.476
29569WAT     H188949   1.869   6.717   1.463
29569WAT     H288950   1.758   6.606   1.509
29570WAT      O88951   1.889   0.060   4.423
29570WAT     H188952   1.946   0.030   4.346
29570WAT     H288953   1.793   0.045   4.401
29571WAT      O88954   2.026   9.388   6.836
29571WAT     H188955   1.931   9.419   6.837
29571WAT     H288956   2.035   9.309   6.775
29572WAT      O88957   9.493   1.921   0.745
29572WAT     H188958   9.528   1.855   0.811
29572WAT     H288959   9.443   1.873   0.672
29573WAT      O88960   4.368   8.620   5.974
29573WAT     H188961   4.401   8.671   6.053
29573WAT     H288962   4.395   8.667   5.890
29574WAT      O88963   0.759   5.770   7.808
29574WAT     H188964   0.706   5.766   7.724
29574WAT     H288965   0.808   5.857   7.813
29575WAT      O88966   6.537   9.505   8.831
29575WAT     H188967   6.504   9.420   8.871
29575WAT     H288968   6.517   9.507   8.733
29576WAT      O88969   2.882   4.296   2.924
29576WAT     H188970   2.933   4.214   2.897
29576WAT     H288971   2.810   4.270   2.989
29577WAT      O88972   0.334   3.727   4.647
29577WAT     H188973   0.406   3.729   4.715
29577WAT     H288974   0.245   3.728   4.692
29578WAT      O88975   5.924   8.383   5.045
29578WAT     H188976   6.006   8.437   5.066
29578WAT     H288977   5.871   8.429   4.974
29579WAT      O88978   9.692   0.275   4.894
29579WAT     H188979   9.720   0.361   4.937
29579WAT     H288980   9.730   0.198   4.946
29580WAT      O88981   3.344   2.933   3.238
29580WAT     H188982   3.333   2.949   3.336
29580WAT     H288983   3.258   2.901   3.199
29581WAT      O88984   6.737   2.084   7.411
29581WAT     H188985   6.826   2.129   7.406
29581WAT     H288986   6.685   2.122   7.487
29582WAT      O88987   5.942   4.051   3.035
29582WAT     H188988   5.959   4.088   3.127
29582WAT     H288989   6.016   4.078   2.974
29583WAT      O88990   6.418   3.884   8.084
29583WAT     H188991   6.365   3.818   8.032
29583WAT     H288992   6.514   3.854   8.088
29584WAT      O88993   1.956   7.500   4.700
29584WAT     H188994   1.989   7.594   4.691
29584WAT     H288995   2.014   7.439   4.646
29585WAT      O88996   2.370   7.796   1.840
29585WAT     H188997   2.418   7.879   1.868
29585WAT     H288998   2.345   7.802   1.744
29586WAT      O88999   2.420   7.820   0.742
29586WAT     H189000   2.464   7.848   0.828
29586WAT     H289001   2.475   7.853   0.665
29587WAT      O89002   3.820   2.639   2.650
29587WAT     H189003   3.910   2.618   2.688
29587WAT     H289004   3.756   2.657   2.724
29588WAT      O89005   6.430   8.865   0.366
29588WAT     H189006   6.422   8.793   0.435
29588WAT     H289007   6.525   8.876   0.339
29589WAT      O89008   7.250   0.096   7.398
29589WAT     H189009   7.247   0.161   7.474
29589WAT     H289010   7.345   0.085   7.367
29590WAT      O89011   5.878   0.918   9.671
29590WAT     H189012   5.926   0.983   9.612
29590WAT     H289013   5.910   0.825   9.653
29591WAT      O89014   7.824   7.439   0.165
29591WAT     H189015   7.760   7.484   0.102
29591WAT     H289016   7.912   7.486   0.161
29592WAT      O89017   8.082   4.801   9.844
29592WAT     H189018   8.005   4.741   9.867
29592WAT     H289019   8.057   4.896   9.863
29593WAT      O89020   4.062   7.143   5.969
29593WAT     H189021   3.991   7.161   5.901
29593WAT     H289022   4.119   7.066   5.938
29594WAT      O89023   0.422   2.950   3.020
29594WAT     H189024   0.445   2.860   3.057
29594WAT     H289025   0.498   2.984   2.966
29595WAT      O89026   6.464   7.182   4.809
29595WAT     H189027   6.369   7.190   4.840
29595WAT     H289028   6.490   7.086   4.804
29596WAT      O89029   8.859   6.594   9.879
29596WAT     H189030   8.890   6.500   9.862
29596WAT     H289031   8.915   6.634   9.952
29597WAT      O89032   4.539   5.065   0.128
29597WAT     H189033   4.629   5.058   0.171
29597WAT     H289034   4.472   5.094   0.196
29598WAT      O89035   9.857   6.027   9.705
29598WAT     H189036   9.917   5.957   9.742
29598WAT     H289037   9.783   5.983   9.653
29599WAT      O89038   0.150   1.260   5.835
29599WAT     H189039   0.064   1.209   5.837
29599WAT     H289040   0.208   1.230   5.911
29600WAT      O89041   7.492   7.475   1.360
29600WAT     H189042   7.522   7.495   1.267
29600WAT     H289043   7.400   7.437   1.358
29601WAT      O89044   4.327   1.636   5.899
29601WAT     H189045   4.337   1.708   5.830
29601WAT     H289046   4.330   1.676   5.990
29602WAT      O89047   1.527   0.717   7.257
29602WAT     H189048   1.600   0.691   7.320
29602WAT     H289049   1.561   0.712   7.163
29603WAT      O89050   5.382   8.240   1.673
29603WAT     H189051   5.471   8.215   1.634
29603WAT     H289052   5.317   8.166   1.658
29604WAT      O89053   1.261   0.711   7.268
29604WAT     H189054   1.202   0.632   7.248
29604WAT     H289055   1.356   0.687   7.250
29605WAT      O89056   2.856   8.608   4.333
29605WAT     H189057   2.774   8.552   4.344
29605WAT     H289058   2.830   8.701   4.306
29606WAT      O89059   5.833   2.655   5.318
29606WAT     H189060   5.826   2.557   5.300
29606WAT     H289061   5.745   2.691   5.346
29607WAT      O89062   5.419   2.369   2.283
29607WAT     H189063   5.444   2.465   2.299
29607WAT     H289064   5.321   2.357   2.298
29608WAT      O89065   4.850   8.610   4.899
29608WAT     H189066   4.920   8.654   4.956
29608WAT     H289067   4.884   8.522   4.867
29609WAT      O89068   3.165   3.131   4.521
29609WAT     H189069   3.139   3.179   4.438
29609WAT     H289070   3.088   3.075   4.553
29610WAT      O89071   1.140   3.945   4.004
29610WAT     H189072   1.119   4.033   3.962
29610WAT     H289073   1.239   3.936   4.016
29611WAT      O89074   4.278   1.205   0.999
29611WAT     H189075   4.284   1.116   1.043
29611WAT     H289076   4.278   1.193   0.899
29612WAT      O89077   1.967   1.812   7.046
29612WAT     H189078   1.883   1.866   7.051
29612WAT     H289079   2.014   1.831   6.959
29613WAT      O89080   4.552   8.475   6.869
29613WAT     H189081   4.584   8.506   6.780
29613WAT     H289082   4.522   8.380   6.863
29614WAT      O89083   6.859   0.409   9.097
29614WAT     H189084   6.782   0.450   9.049
29614WAT     H289085   6.896   0.334   9.042
29615WAT      O89086   8.798   1.125   2.337
29615WAT     H189087   8.867   1.086   2.398
29615WAT     H289088   8.715   1.070   2.343
29616WAT      O89089   1.572   8.312   1.189
29616WAT     H189090   1.529   8.225   1.167
29616WAT     H289091   1.573   8.370   1.108
29617WAT      O89092   9.124   5.532   4.735
29617WAT     H189093   9.090   5.581   4.655
29617WAT     H289094   9.110   5.588   4.817
29618WAT      O89095   6.567   8.618   9.217
29618WAT     H189096   6.650   8.653   9.259
29618WAT     H289097   6.506   8.694   9.194
29619WAT      O89098   5.344   7.992   7.252
29619WAT     H189099   5.373   8.085   7.229
29619WAT     H289100   5.354   7.976   7.350
29620WAT      O89101   3.374   8.321   4.610
29620WAT     H189102   3.358   8.362   4.520
29620WAT     H289103   3.459   8.357   4.649
29621WAT      O89104   0.592   1.355   5.472
29621WAT     H189105   0.632   1.432   5.522
29621WAT     H289106   0.616   1.363   5.375
29622WAT      O89107   2.390   2.766   2.488
29622WAT     H189108   2.363   2.846   2.434
29622WAT     H289109   2.377   2.785   2.585
29623WAT      O89110   4.565   0.751   1.005
29623WAT     H189111   4.494   0.820   1.000
29623WAT     H289112   4.649   0.791   1.041
29624WAT      O89113   3.212   1.856   4.491
29624WAT     H189114   3.221   1.815   4.400
29624WAT     H289115   3.269   1.938   4.496
29625WAT      O89116   8.007   4.506   3.495
29625WAT     H189117   8.103   4.508   3.469
29625WAT     H289118   7.999   4.480   3.591
29626WAT      O89119   2.780   1.746   0.188
29626WAT     H189120   2.852   1.685   0.219
29626WAT     H289121   2.820   1.820   0.133
29627WAT      O89122   7.960   6.785   6.173
29627WAT     H189123   7.954   6.842   6.091
29627WAT     H289124   7.929   6.692   6.152
29628WAT      O89125   3.837   7.681   0.300
29628WAT     H189126   3.795   7.590   0.298
29628WAT     H289127   3.936   7.672   0.291
29629WAT      O89128   2.342   7.403   4.181
29629WAT     H189129   2.310   7.401   4.086
29629WAT     H289130   2.425   7.347   4.189
29630WAT      O89131   2.310   2.789   7.951
29630WAT     H189132   2.320   2.777   7.852
29630WAT     H289133   2.304   2.699   7.995
29631WAT      O89134   1.043   2.593   9.135
29631WAT     H189135   1.124   2.652   9.139
29631WAT     H289136   0.980   2.629   9.066
29632WAT      O89137   3.695   6.959   0.832
29632WAT     H189138   3.762   6.914   0.890
29632WAT     H289139   3.689   6.913   0.744
29633WAT      O89140   5.957   2.748   5.802
29633WAT     H189141   5.956   2.848   5.808
29633WAT     H289142   5.864   2.715   5.789
29634WAT      O89143   6.883   2.992   8.608
29634WAT     H189144   6.864   2.987   8.510
29634WAT     H289145   6.982   2.989   8.623
29635WAT      O89146   7.623   4.220   8.418
29635WAT     H189147   7.628   4.126   8.384
29635WAT     H289148   7.685   4.231   8.495
29636WAT      O89149   0.679   3.114   7.467
29636WAT     H189150   0.704   3.208   7.446
29636WAT     H289151   0.756   3.053   7.444
29637WAT      O89152   0.165   2.338   6.551
29637WAT     H189153   0.196   2.359   6.458
29637WAT     H289154   0.151   2.240   6.559
29638WAT      O89155   5.576   5.920   1.455
29638WAT     H189156   5.504   5.871   1.405
29638WAT     H289157   5.645   5.855   1.485
29639WAT      O89158   6.190   4.496   6.915
29639WAT     H189159   6.191   4.553   6.832
29639WAT     H289160   6.270   4.518   6.971
29640WAT      O89161   4.256   6.111   6.461
29640WAT     H189162   4.191   6.175   6.419
29640WAT     H289163   4.343   6.116   6.413
29641WAT      O89164   1.388   1.756   1.512
29641WAT     H189165   1.394   1.746   1.412
29641WAT     H289166   1.479   1.742   1.552
29642WAT      O89167   1.775   8.583   3.643
29642WAT     H189168   1.793   8.597   3.741
29642WAT     H289169   1.709   8.651   3.612
29643WAT      O89170   1.682   3.873   7.656
29643WAT     H189171   1.635   3.795   7.614
29643WAT     H289172   1.633   3.901   7.738
29644WAT      O89173   8.509   4.241   8.562
29644WAT     H189174   8.491   4.339   8.559
29644WAT     H289175   8.510   4.205   8.468
29645WAT      O89176   6.092   5.956   4.441
29645WAT     H189177   6.180   5.985   4.403
29645WAT     H289178   6.025   5.947   4.367
29646WAT      O89179   1.479   3.122   4.833
29646WAT     H189180   1.393   3.081   4.803
29646WAT     H289181   1.483   3.218   4.804
29647WAT      O89182   7.413   5.370   4.166
29647WAT     H189183   7.389   5.332   4.077
29647WAT     H289184   7.464   5.455   4.154
29648WAT      O89185   6.287   0.557   2.153
29648WAT     H189186   6.295   0.614   2.235
29648WAT     H289187   6.366   0.573   2.094
29649WAT      O89188   3.870   4.838   6.151
29649WAT     H189189   3.956   4.821   6.199
29649WAT     H289190   3.874   4.799   6.059
29650WAT      O89191   2.103   5.477   5.895
29650WAT     H189192   2.107   5.489   5.796
29650WAT     H289193   2.166   5.540   5.939
29651WAT      O89194   2.129   6.153   8.466
29651WAT     H189195   2.096   6.088   8.399
29651WAT     H289196   2.058   6.168   8.536
29652WAT      O89197   8.672   0.194   6.163
29652WAT     H189198   8.674   0.186   6.262
29652WAT     H289199   8.743   0.258   6.133
29653WAT      O89200   5.694   1.316   5.439
29653WAT     H189201   5.765   1.385   5.454
29653WAT     H289202   5.686   1.258   5.520
29654WAT      O89203   1.579   7.427   2.145
29654WAT     H189204   1.553   7.331   2.154
29654WAT     H289205   1.607   7.445   2.050
29655WAT      O89206   6.047   6.224   8.231
29655WAT     H189207   6.117   6.296   8.240
29655WAT     H289208   6.027   6.211   8.134
29656WAT      O89209   9.886   7.363   4.356
29656WAT     H189210   9.899   7.406   4.267
29656WAT     H289211   9.854   7.269   4.344
29657WAT      O89212   7.851   8.343   7.103
29657WAT     H189213   7.832   8.364   7.199
29657WAT     H289214   7.914   8.411   7.066
29658WAT      O89215   5.743   0.580   5.909
29658WAT     H189216   5.691   0.612   5.830
29658WAT     H289217   5.824   0.531   5.877
29659WAT      O89218   9.685   2.092   0.794
29659WAT     H189219   9.607   2.032   0.774
29659WAT     H289220   9.705   2.089   0.891
29660WAT      O89221   6.823   4.721   3.750
29660WAT     H189222   6.864   4.797   3.801
29660WAT     H289223   6.885   4.692   3.677
29661WAT      O89224   0.686   7.077   5.108
29661WAT     H189225   0.618   7.122   5.051
29661WAT     H289226   0.729   7.144   5.168
29662WAT      O89227   9.150   4.806   8.700
29662WAT     H189228   9.056   4.798   8.733
29662WAT     H289229   9.200   4.871   8.757
29663WAT      O89230   1.828   1.006   7.858
29663WAT     H189231   1.787   1.085   7.814
29663WAT     H289232   1.762   0.931   7.860
29664WAT      O89233   2.098   8.532   3.936
29664WAT     H189234   2.016   8.587   3.950
29664WAT     H289235   2.115   8.476   4.016
29665WAT      O89236   5.126   2.504   7.886
29665WAT     H189237   5.152   2.432   7.950
29665WAT     H289238   5.034   2.488   7.852
29666WAT      O89239   1.816   0.246   7.498
29666WAT     H189240   1.868   0.297   7.567
29666WAT     H289241   1.814   0.149   7.523
29667WAT      O89242   7.052   8.768   7.150
29667WAT     H189243   7.104   8.797   7.230
29667WAT     H289244   6.955   8.761   7.174
29668WAT      O89245   9.505   0.042   7.033
29668WAT     H189246   9.573   0.067   6.964
29668WAT     H289247   9.534   0.076   7.123
29669WAT      O89248   8.494   5.733   1.171
29669WAT     H189249   8.402   5.696   1.153
29669WAT     H289250   8.493   5.832   1.156
29670WAT      O89251   9.472   3.331   0.937
29670WAT     H189252   9.559   3.348   0.891
29670WAT     H289253   9.479   3.249   0.993
29671WAT      O89254   2.705   6.480   3.828
29671WAT     H189255   2.687   6.572   3.793
29671WAT     H289256   2.725   6.484   3.925
29672WAT      O89257   5.843   6.244   3.210
29672WAT     H189258   5.895   6.310   3.156
29672WAT     H289259   5.903   6.169   3.239
29673WAT      O89260   4.066   3.727   5.676
29673WAT     H189261   4.075   3.804   5.613
29673WAT     H289262   4.006   3.658   5.636
29674WAT      O89263   8.670   5.222   6.060
29674WAT     H189264   8.683   5.313   6.099
29674WAT     H289265   8.759   5.179   6.048
29675WAT      O89266   6.021   1.941   4.919
29675WAT     H189267   6.054   1.984   5.002
29675WAT     H289268   6.073   1.857   4.901
29676WAT      O89269   3.117   2.560   2.276
29676WAT     H189270   3.056   2.502   2.222
29676WAT     H289271   3.161   2.506   2.347
29677WAT      O89272   1.624   2.702   5.362
29677WAT     H189273   1.687   2.635   5.403
29677WAT     H289274   1.648   2.716   5.266
29678WAT      O89275   3.467   1.884   6.194
29678WAT     H189276   3.377   1.845   6.175
29678WAT     H289277   3.459   1.983   6.203
29679WAT      O89278   5.692   6.409   2.965
29679WAT     H189279   5.697   6.450   2.874
29679WAT     H289280   5.783   6.408   3.007
29680WAT      O89281   9.656   8.446   8.537
29680WAT     H189282   9.603   8.506   8.597
29680WAT     H289283   9.667   8.357   8.580
29681WAT      O89284   6.247   8.300   8.541
29681WAT     H189285   6.272   8.379   8.596
29681WAT     H289286   6.147   8.295   8.533
29682WAT      O89287   7.536   5.344   2.811
29682WAT     H189288   7.517   5.429   2.763
29682WAT     H289289   7.608   5.294   2.763
29683WAT      O89290   0.030   6.383   6.282
29683WAT     H189291  -0.052   6.437   6.302
29683WAT     H289292   0.101   6.405   6.349
29684WAT      O89293   7.356   2.336   3.773
29684WAT     H189294   7.449   2.346   3.740
29684WAT     H289295   7.349   2.374   3.865
29685WAT      O89296   1.935   6.549   0.165
29685WAT     H189297   1.898   6.549   0.072
29685WAT     H289298   2.012   6.485   0.170
29686WAT      O89299   5.741   7.964   6.171
29686WAT     H189300   5.666   7.962   6.105
29686WAT     H289301   5.822   8.004   6.130
29687WAT      O89302   4.145   3.889   3.208
29687WAT     H189303   4.096   3.870   3.293
29687WAT     H289304   4.203   3.810   3.185
29688WAT      O89305   5.553   0.440   3.526
29688WAT     H189306   5.454   0.453   3.528
29688WAT     H289307   5.576   0.374   3.454
29689WAT      O89308   2.443   1.493   2.785
29689WAT     H189309   2.349   1.460   2.784
29689WAT     H289310   2.494   1.453   2.708
29690WAT      O89311   2.565   5.473   1.544
29690WAT     H189312   2.550   5.456   1.641
29690WAT     H289313   2.637   5.541   1.533
29691WAT      O89314   6.508   8.675   2.609
29691WAT     H189315   6.460   8.738   2.670
29691WAT     H289316   6.590   8.639   2.656
29692WAT      O89317   2.455   0.520   0.404
29692WAT     H189318   2.480   0.582   0.479
29692WAT     H289319   2.361   0.540   0.375
29693WAT      O89320   5.094   6.817   4.229
29693WAT     H189321   5.033   6.808   4.308
29693WAT     H289322   5.160   6.741   4.230
29694WAT      O89323   7.149   8.736   3.069
29694WAT     H189324   7.183   8.726   2.975
29694WAT     H289325   7.104   8.652   3.097
29695WAT      O89326   2.432   1.490   1.902
29695WAT     H189327   2.487   1.412   1.871
29695WAT     H289328   2.340   1.459   1.925
29696WAT      O89329   0.313   2.350   6.317
29696WAT     H189330   0.264   2.293   6.251
29696WAT     H289331   0.400   2.307   6.340
29697WAT      O89332   7.808   2.152   7.252
29697WAT     H189333   7.726   2.098   7.271
29697WAT     H289334   7.864   2.105   7.184
29698WAT      O89335   6.678   9.596   1.472
29698WAT     H189336   6.689   9.679   1.527
29698WAT     H289337   6.745   9.596   1.398
29699WAT      O89338   2.998   1.782   8.127
29699WAT     H189339   2.985   1.746   8.035
29699WAT     H289340   2.992   1.882   8.124
29700WAT      O89341   4.760   5.079   0.300
29700WAT     H189342   4.843   5.122   0.264
29700WAT     H289343   4.781   4.985   0.328
29701WAT      O89344   6.424   8.924   3.078
29701WAT     H189345   6.381   8.910   3.167
29701WAT     H289346   6.451   9.020   3.070
29702WAT      O89347   1.717   6.635   8.367
29702WAT     H189348   1.701   6.673   8.458
29702WAT     H289349   1.770   6.699   8.312
29703WAT      O89350   8.051   5.994   4.564
29703WAT     H189351   8.103   6.006   4.649
29703WAT     H289352   8.023   6.084   4.530
29704WAT      O89353   0.764   6.946   0.597
29704WAT     H189354   0.758   6.847   0.589
29704WAT     H289355   0.818   6.970   0.679
29705WAT      O89356   5.974   0.822   7.446
29705WAT     H189357   5.928   0.813   7.534
29705WAT     H289358   6.063   0.864   7.458
29706WAT      O89359   6.400   0.888   2.526
29706WAT     H189360   6.440   0.960   2.469
29706WAT     H289361   6.456   0.876   2.608
29707WAT      O89362   1.886   7.724   0.443
29707WAT     H189363   1.944   7.648   0.471
29707WAT     H289364   1.939   7.786   0.384
29708WAT      O89365   9.736   7.778   5.511
29708WAT     H189366   9.708   7.729   5.594
29708WAT     H289367   9.769   7.712   5.443
29709WAT      O89368   4.571   2.223   1.302
29709WAT     H189369   4.648   2.170   1.267
29709WAT     H289370   4.506   2.240   1.227
29710WAT      O89371   5.525   2.960   0.043
29710WAT     H189372   5.510   2.992  -0.051
29710WAT     H289373   5.492   2.866   0.052
29711WAT      O89374   9.216   5.815   2.509
29711WAT     H189375   9.205   5.913   2.527
29711WAT     H289376   9.313   5.790   2.512
29712WAT      O89377   1.566   2.348   7.212
29712WAT     H189378   1.545   2.445   7.196
29712WAT     H289379   1.484   2.300   7.243
29713WAT      O89380   6.072   2.411   2.218
29713WAT     H189381   5.999   2.437   2.155
29713WAT     H289382   6.141   2.484   2.220
29714WAT      O89383   1.604   0.134   1.957
29714WAT     H189384   1.678   0.078   1.994
29714WAT     H289385   1.535   0.149   2.028
29715WAT      O89386   1.096   8.099   9.775
29715WAT     H189387   1.004   8.138   9.771
29715WAT     H289388   1.108   8.051   9.863
29716WAT      O89389   5.274   9.221   8.029
29716WAT     H189390   5.182   9.260   8.027
29716WAT     H289391   5.287   9.159   7.951
29717WAT      O89392   4.914   6.552   6.116
29717WAT     H189393   4.966   6.635   6.100
29717WAT     H289394   4.883   6.549   6.212
29718WAT      O89395   5.788   3.833   4.096
29718WAT     H189396   5.866   3.855   4.036
29718WAT     H289397   5.738   3.916   4.119
29719WAT      O89398   1.445   0.721   3.239
29719WAT     H189399   1.488   0.688   3.155
29719WAT     H289400   1.409   0.644   3.290
29720WAT      O89401   1.413   5.202   5.465
29720WAT     H189402   1.358   5.120   5.479
29720WAT     H289403   1.389   5.244   5.377
29721WAT      O89404   8.486   8.180   4.691
29721WAT     H189405   8.484   8.090   4.649
29721WAT     H289406   8.579   8.217   4.688
29722WAT      O89407   4.523   4.560   0.802
29722WAT     H189408   4.615   4.576   0.765
29722WAT     H289409   4.473   4.498   0.741
29723WAT      O89410   1.672   8.240   8.868
29723WAT     H189411   1.752   8.298   8.855
29723WAT     H289412   1.599   8.269   8.806
29724WAT      O89413   7.469   1.783   1.333
29724WAT     H189414   7.397   1.714   1.328
29724WAT     H289415   7.490   1.803   1.429
29725WAT      O89416   6.146   7.766   5.439
29725WAT     H189417   6.233   7.813   5.446
29725WAT     H289418   6.158   7.668   5.459
29726WAT      O89419   9.318   0.544   6.911
29726WAT     H189420   9.344   0.531   7.007
29726WAT     H289421   9.372   0.483   6.853
29727WAT      O89422   9.866   5.910   1.233
29727WAT     H189423   9.940   5.977   1.227
29727WAT     H289424   9.896   5.823   1.195
29728WAT      O89425   7.664   9.613   2.036
29728WAT     H189426   7.730   9.681   2.066
29728WAT     H289427   7.646   9.549   2.112
29729WAT      O89428   5.764   5.640   0.167
29729WAT     H189429   5.846   5.641   0.109
29729WAT     H289430   5.784   5.591   0.252
29730WAT      O89431   3.133   2.073   2.254
29730WAT     H189432   3.180   2.003   2.308
29730WAT     H289433   3.096   2.142   2.316
29731WAT      O89434   7.628   8.569   6.245
29731WAT     H189435   7.599   8.521   6.328
29731WAT     H289436   7.563   8.641   6.224
29732WAT      O89437   4.195   1.118   9.135
29732WAT     H189438   4.156   1.177   9.206
29732WAT     H289439   4.294   1.130   9.133
29733WAT      O89440   8.481   2.464   9.460
29733WAT     H189441   8.559   2.435   9.404
29733WAT     H289442   8.507   2.458   9.557
29734WAT      O89443   0.914   0.278   0.431
29734WAT     H189444   0.917   0.180   0.451
29734WAT     H289445   0.980   0.326   0.490
29735WAT      O89446   6.317   2.573   8.005
29735WAT     H189447   6.389   2.615   8.061
29735WAT     H289448   6.252   2.644   7.977
29736WAT      O89449   3.401   1.762   5.558
29736WAT     H189450   3.379   1.690   5.492
29736WAT     H289451   3.378   1.851   5.518
29737WAT      O89452   8.513   7.892   8.219
29737WAT     H189453   8.526   7.941   8.305
29737WAT     H289454   8.554   7.801   8.226
29738WAT      O89455   9.014   1.397   7.262
29738WAT     H189456   8.915   1.401   7.247
29738WAT     H289457   9.047   1.488   7.287
29739WAT      O89458   4.844   2.328   5.006
29739WAT     H189459   4.748   2.320   4.977
29739WAT     H289460   4.903   2.286   4.938
29740WAT      O89461   8.103   0.744   0.521
29740WAT     H189462   8.139   0.671   0.464
29740WAT     H289463   8.080   0.708   0.611
29741WAT      O89464   2.713   7.368   4.627
29741WAT     H189465   2.807   7.393   4.652
29741WAT     H289466   2.664   7.449   4.597
29742WAT      O89467   5.076   9.712   1.127
29742WAT     H189468   5.004   9.710   1.058
29742WAT     H289469   5.103   9.618   1.149
29743WAT      O89470   9.270   1.068   4.392
29743WAT     H189471   9.354   1.021   4.419
29743WAT     H289472   9.269   1.080   4.293
29744WAT      O89473   8.880   1.394   6.109
29744WAT     H189474   8.905   1.297   6.103
29744WAT     H289475   8.922   1.444   6.033
29745WAT      O89476   8.533   0.360   4.147
29745WAT     H189477   8.490   0.280   4.106
29745WAT     H289478   8.465   0.432   4.158
29746WAT      O89479   5.468   2.255   2.904
29746WAT     H189480   5.552   2.218   2.944
29746WAT     H289481   5.476   2.354   2.897
29747WAT      O89482   1.767   1.123   7.425
29747WAT     H189483   1.788   1.115   7.328
29747WAT     H289484   1.691   1.062   7.448
29748WAT      O89485   9.780   9.320   0.909
29748WAT     H189486   9.701   9.269   0.941
29748WAT     H289487   9.861   9.293   0.962
29749WAT      O89488   6.628   6.209   9.646
29749WAT     H189489   6.652   6.188   9.741
29749WAT     H289490   6.599   6.125   9.599
29750WAT      O89491   8.818   3.258   2.785
29750WAT     H189492   8.762   3.181   2.756
29750WAT     H289493   8.889   3.275   2.716
29751WAT      O89494   8.862   0.852   7.972
29751WAT     H189495   8.806   0.795   8.033
29751WAT     H289496   8.951   0.868   8.015
29752WAT      O89497   3.052   0.732   5.162
29752WAT     H189498   2.959   0.714   5.130
29752WAT     H289499   3.050   0.805   5.231
29753WAT      O89500   8.035   2.550   8.996
29753WAT     H189501   8.111   2.577   8.937
29753WAT     H289502   7.994   2.466   8.961
29754WAT      O89503   9.692   1.192   0.140
29754WAT     H189504   9.726   1.099   0.125
29754WAT     H289505   9.699   1.214   0.238
29755WAT      O89506   4.263   0.671   0.715
29755WAT     H189507   4.315   0.637   0.637
29755WAT     H289508   4.305   0.638   0.800
29756WAT      O89509   9.307   8.629   7.230
29756WAT     H189510   9.329   8.607   7.325
29756WAT     H289511   9.219   8.588   7.206
29757WAT      O89512   9.371   8.507   4.823
29757WAT     H189513   9.434   8.456   4.882
29757WAT     H289514   9.422   8.578   4.775
29758WAT      O89515   6.014   1.267   5.465
29758WAT     H189516   5.992   1.207   5.389
29758WAT     H289517   5.930   1.298   5.508
29759WAT      O89518   0.598   0.220   0.303
29759WAT     H189519   0.510   0.184   0.336
29759WAT     H289520   0.634   0.284   0.370
29760WAT      O89521   0.276   7.508   5.638
29760WAT     H189522   0.345   7.572   5.670
29760WAT     H289523   0.236   7.459   5.715
29761WAT      O89524   3.441   1.879   7.112
29761WAT     H189525   3.379   1.821   7.059
29761WAT     H289526   3.450   1.968   7.068
29762WAT      O89527   8.501   6.138   9.849
29762WAT     H189528   8.580   6.090   9.889
29762WAT     H289529   8.476   6.215   9.908
29763WAT      O89530   5.831   3.674   9.199
29763WAT     H189531   5.834   3.660   9.100
29763WAT     H289532   5.898   3.615   9.242
29764WAT      O89533   4.488   7.045   1.569
29764WAT     H189534   4.423   7.119   1.587
29764WAT     H289535   4.444   6.975   1.513
29765WAT      O89536   3.836   3.169   3.610
29765WAT     H189537   3.918   3.191   3.663
29765WAT     H289538   3.794   3.087   3.648
29766WAT      O89539   7.802   6.534   1.171
29766WAT     H189540   7.806   6.617   1.115
29766WAT     H289541   7.707   6.504   1.178
29767WAT      O89542   5.302   5.860   5.366
29767WAT     H189543   5.202   5.861   5.369
29767WAT     H289544   5.337   5.951   5.386
29768WAT      O89545   2.742   6.659   1.927
29768WAT     H189546   2.805   6.606   1.871
29768WAT     H289547   2.756   6.637   2.024
29769WAT      O89548   0.184   5.439   2.338
29769WAT     H189549   0.116   5.508   2.363
29769WAT     H289550   0.276   5.478   2.347
29770WAT      O89551   5.768   1.112   2.957
29770WAT     H189552   5.791   1.116   2.859
29770WAT     H289553   5.852   1.101   3.010
29771WAT      O89554   5.833   0.241   5.594
29771WAT     H189555   5.760   0.304   5.620
29771WAT     H289556   5.922   0.282   5.615
29772WAT      O89557   4.926   7.207   1.179
29772WAT     H189558   4.837   7.251   1.193
29772WAT     H289559   4.920   7.143   1.102
29773WAT      O89560   6.175   2.217   1.113
29773WAT     H189561   6.160   2.157   1.034
29773WAT     H289562   6.130   2.305   1.096
29774WAT      O89563   2.148   6.561   6.061
29774WAT     H189564   2.101   6.567   5.973
29774WAT     H289565   2.243   6.533   6.047
29775WAT      O89566   2.102   8.673   1.181
29775WAT     H189567   2.026   8.729   1.148
29775WAT     H289568   2.185   8.729   1.183
29776WAT      O89569   0.379   3.882   5.421
29776WAT     H189570   0.325   3.936   5.485
29776WAT     H289571   0.318   3.824   5.367
29777WAT      O89572   7.694   4.072   4.551
29777WAT     H189573   7.690   4.108   4.457
29777WAT     H289574   7.715   3.974   4.548
29778WAT      O89575   6.538   6.651   5.650
29778WAT     H189576   6.515   6.563   5.693
29778WAT     H289577   6.454   6.701   5.628
29779WAT      O89578   7.529   5.284   6.575
29779WAT     H189579   7.616   5.324   6.604
29779WAT     H289580   7.535   5.253   6.480
29780WAT      O89581   2.367   2.775   3.210
29780WAT     H189582   2.332   2.764   3.303
29780WAT     H289583   2.405   2.866   3.199
29781WAT      O89584   2.005   9.165   3.660
29781WAT     H189585   2.005   9.185   3.562
29781WAT     H289586   1.998   9.067   3.675
29782WAT      O89587   4.502   8.055   0.084
29782WAT     H189588   4.552   8.113   0.148
29782WAT     H289589   4.404   8.070   0.095
29783WAT      O89590   7.531   2.661   4.090
29783WAT     H189591   7.617   2.628   4.129
29783WAT     H289592   7.528   2.761   4.095
29784WAT      O89593   5.002   6.662   0.126
29784WAT     H189594   5.069   6.601   0.083
29784WAT     H289595   4.946   6.610   0.191
29785WAT      O89596   7.246   7.636   0.830
29785WAT     H189597   7.247   7.709   0.899
29785WAT     H289598   7.152   7.611   0.809
29786WAT      O89599   1.926   7.143   4.911
29786WAT     H189600   1.924   7.055   4.958
29786WAT     H289601   1.994   7.140   4.837
29787WAT      O89602   7.206   1.899   7.068
29787WAT     H189603   7.187   1.815   7.016
29787WAT     H289604   7.282   1.948   7.025
29788WAT      O89605   0.386   6.465   0.519
29788WAT     H189606   0.303   6.410   0.517
29788WAT     H289607   0.379   6.540   0.453
29789WAT      O89608   2.667   9.433   5.709
29789WAT     H189609   2.698   9.528   5.700
29789WAT     H289610   2.588   9.430   5.771
29790WAT      O89611   9.886   4.547   9.570
29790WAT     H189612   9.947   4.551   9.649
29790WAT     H289613   9.798   4.589   9.594
29791WAT      O89614   1.031   6.881   8.290
29791WAT     H189615   1.028   6.895   8.389
29791WAT     H289616   1.032   6.783   8.271
29792WAT      O89617   3.323   3.943   2.113
29792WAT     H189618   3.420   3.920   2.121
29792WAT     H289619   3.284   3.895   2.035
29793WAT      O89620   3.412   9.005   7.357
29793WAT     H189621   3.369   9.089   7.323
29793WAT     H289622   3.512   9.015   7.351
29794WAT      O89623   2.127   4.448   7.533
29794WAT     H189624   2.044   4.439   7.588
29794WAT     H289625   2.123   4.383   7.457
29795WAT      O89626   4.074   6.086   3.250
29795WAT     H189627   4.152   6.104   3.309
29795WAT     H289628   4.086   6.134   3.163
29796WAT      O89629   0.793   3.867   8.007
29796WAT     H189630   0.779   3.919   7.923
29796WAT     H289631   0.885   3.885   8.043
29797WAT      O89632   0.866   5.850   4.336
29797WAT     H189633   0.958   5.824   4.308
29797WAT     H289634   0.870   5.935   4.389
29798WAT      O89635   6.406   2.944   2.068
29798WAT     H189636   6.401   3.044   2.066
29798WAT     H289637   6.318   2.906   2.040
29799WAT      O89638   8.091   8.124   5.288
29799WAT     H189639   8.076   8.075   5.202
29799WAT     H289640   8.054   8.070   5.363
29800WAT      O89641   4.526   6.934   7.116
29800WAT     H189642   4.545   6.847   7.160
29800WAT     H289643   4.598   7.000   7.139
29801WAT      O89644   9.056   5.320   2.787
29801WAT     H189645   9.076   5.405   2.738
29801WAT     H289646   9.140   5.284   2.827
29802WAT      O89647   3.480   3.551   0.552
29802WAT     H189648   3.432   3.579   0.636
29802WAT     H289649   3.523   3.462   0.567
29803WAT      O89650   4.282   2.626   5.670
29803WAT     H189651   4.348   2.557   5.639
29803WAT     H289652   4.316   2.717   5.647
29804WAT      O89653   7.268   5.493   3.341
29804WAT     H189654   7.321   5.575   3.364
29804WAT     H289655   7.174   5.505   3.372
29805WAT      O89656   8.589   9.118   9.147
29805WAT     H189657   8.576   9.022   9.172
29805WAT     H289658   8.500   9.159   9.126
29806WAT      O89659   0.028   3.097   5.246
29806WAT     H189660  -0.012   3.154   5.318
29806WAT     H289661   0.092   3.032   5.286
29807WAT      O89662   8.980   2.458   1.035
29807WAT     H189663   8.931   2.506   0.962
29807WAT     H289664   9.003   2.366   1.005
29808WAT      O89665   5.996   6.583   5.885
29808WAT     H189666   6.042   6.569   5.973
29808WAT     H289667   5.988   6.496   5.837
29809WAT      O89668   5.958   9.159   7.966
29809WAT     H189669   5.983   9.243   7.918
29809WAT     H289670   5.859   9.156   7.979
29810WAT      O89671   4.222   0.929   6.439
29810WAT     H189672   4.148   0.986   6.403
29810WAT     H289673   4.218   0.928   6.539
29811WAT      O89674   8.345   0.394   7.174
29811WAT     H189675   8.428   0.340   7.186
29811WAT     H289676   8.266   0.333   7.171
29812WAT      O89677   8.299   4.705   0.102
29812WAT     H189678   8.260   4.671   0.187
29812WAT     H289679   8.226   4.727   0.038
29813WAT      O89680   3.303   2.423   0.530
29813WAT     H189681   3.319   2.413   0.628
29813WAT     H289682   3.206   2.405   0.509
29814WAT      O89683   1.781   2.494   5.063
29814WAT     H189684   1.827   2.576   5.029
29814WAT     H289685   1.683   2.502   5.048
29815WAT      O89686   8.759   5.022   9.791
29815WAT     H189687   8.797   5.039   9.700
29815WAT     H289688   8.696   4.944   9.787
29816WAT      O89689   5.296   6.629   4.205
29816WAT     H189690   5.339   6.539   4.211
29816WAT     H289691   5.350   6.688   4.145
29817WAT      O89692   3.360   1.558   4.375
29817WAT     H189693   3.408   1.575   4.461
29817WAT     H289694   3.400   1.477   4.330
29818WAT      O89695   4.378   3.485   8.904
29818WAT     H189696   4.288   3.462   8.942
29818WAT     H289697   4.384   3.584   8.891
29819WAT      O89698   7.968   6.099   5.059
29819WAT     H189699   7.883   6.149   5.073
29819WAT     H289700   8.027   6.110   5.139
29820WAT      O89701   1.905   7.264   1.599
29820WAT     H189702   1.988   7.312   1.572
29820WAT     H289703   1.826   7.322   1.580
29821WAT      O89704   9.775   8.573   3.247
29821WAT     H189705   9.873   8.556   3.254
29821WAT     H289706   9.740   8.603   3.336
29822WAT      O89707   9.811   7.663   6.840
29822WAT     H189708   9.790   7.570   6.870
29822WAT     H289709   9.887   7.660   6.775
29823WAT      O89710   6.492   8.051   2.902
29823WAT     H189711   6.435   8.001   2.966
29823WAT     H289712   6.453   8.141   2.886
29824WAT      O89713   4.747   5.424   5.832
29824WAT     H189714   4.772   5.406   5.737
29824WAT     H289715   4.738   5.523   5.845
29825WAT      O89716   1.282   8.365   7.168
29825WAT     H189717   1.185   8.347   7.154
29825WAT     H289718   1.295   8.412   7.255
29826WAT      O89719   8.065   7.533   3.843
29826WAT     H189720   8.136   7.463   3.837
29826WAT     H289721   8.103   7.614   3.888
29827WAT      O89722   5.335   6.301   2.858
29827WAT     H189723   5.368   6.332   2.947
29827WAT     H289724   5.408   6.312   2.790
29828WAT      O89725   4.173   9.311   4.295
29828WAT     H189726   4.080   9.280   4.276
29828WAT     H289727   4.180   9.409   4.276
29829WAT      O89728   9.232   4.754   9.402
29829WAT     H189729   9.149   4.711   9.437
29829WAT     H289730   9.300   4.683   9.383
29830WAT      O89731   7.548   3.120   1.399
29830WAT     H189732   7.513   3.121   1.306
29830WAT     H289733   7.648   3.109   1.397
29831WAT      O89734   2.125   5.005   8.801
29831WAT     H189735   2.218   5.018   8.767
29831WAT     H289736   2.073   4.950   8.736
29832WAT      O89737   8.765   3.249   0.480
29832WAT     H189738   8.788   3.220   0.573
29832WAT     H289739   8.715   3.336   0.484
29833WAT      O89740   1.842   5.726   4.393
29833WAT     H189741   1.862   5.706   4.298
29833WAT     H289742   1.788   5.810   4.399
29834WAT      O89743   4.924   6.157   3.867
29834WAT     H189744   4.878   6.075   3.833
29834WAT     H289745   5.008   6.131   3.915
29835WAT      O89746   0.465   4.213   4.991
29835WAT     H189747   0.499   4.292   5.041
29835WAT     H289748   0.399   4.164   5.048
29836WAT      O89749   5.231   8.375   7.999
29836WAT     H189750   5.132   8.360   8.011
29836WAT     H289751   5.281   8.315   8.060
29837WAT      O89752   9.336   1.284   7.953
29837WAT     H189753   9.393   1.207   7.981
29837WAT     H289754   9.287   1.320   8.032
29838WAT      O89755   7.333   2.717   9.848
29838WAT     H189756   7.429   2.709   9.876
29838WAT     H289757   7.278   2.747   9.925
29839WAT      O89758   7.881   3.222   4.284
29839WAT     H189759   7.794   3.173   4.281
29839WAT     H289760   7.936   3.197   4.204
29840WAT      O89761   1.778   6.833   5.632
29840WAT     H189762   1.859   6.799   5.680
29840WAT     H289763   1.697   6.782   5.661
29841WAT      O89764   9.638   8.000   9.523
29841WAT     H189765   9.636   8.087   9.572
29841WAT     H289766   9.728   7.986   9.482
29842WAT      O89767   5.533   7.387   3.574
29842WAT     H189768   5.573   7.323   3.509
29842WAT     H289769   5.488   7.337   3.647
29843WAT      O89770   7.880   9.581   5.128
29843WAT     H189771   7.922   9.562   5.217
29843WAT     H289772   7.780   9.580   5.138
29844WAT      O89773   3.521   3.798   2.742
29844WAT     H189774   3.525   3.879   2.801
29844WAT     H289775   3.581   3.811   2.663
29845WAT      O89776   0.492   2.314   5.718
29845WAT     H189777   0.554   2.390   5.738
29845WAT     H289778   0.398   2.348   5.715
29846WAT      O89779   3.131   4.153   6.862
29846WAT     H189780   3.169   4.245   6.868
29846WAT     H289781   3.197   4.088   6.899
29847WAT      O89782   6.962   3.858   8.155
29847WAT     H189783   6.981   3.759   8.154
29847WAT     H289784   7.004   3.899   8.236
29848WAT      O89785   3.185   1.012   1.289
29848WAT     H189786   3.175   1.111   1.277
29848WAT     H289787   3.274   0.983   1.251
29849WAT      O89788   8.898   8.517   0.066
29849WAT     H189789   8.905   8.459  -0.014
29849WAT     H289790   8.841   8.597   0.045
29850WAT      O89791   9.058   9.618   1.577
29850WAT     H189792   9.083   9.536   1.628
29850WAT     H289793   9.007   9.679   1.638
29851WAT      O89794   8.618   0.539   1.439
29851WAT     H189795   8.565   0.458   1.463
29851WAT     H289796   8.690   0.514   1.375
29852WAT      O89797   6.196   0.590   8.328
29852WAT     H189798   6.234   0.596   8.235
29852WAT     H289799   6.256   0.639   8.391
29853WAT      O89800   0.090   8.781   6.401
29853WAT     H189801   0.003   8.747   6.436
29853WAT     H289802   0.075   8.838   6.321
29854WAT      O89803   6.275   0.623   8.892
29854WAT     H189804   6.342   0.674   8.945
29854WAT     H289805   6.223   0.686   8.834
29855WAT      O89806   8.306   7.358   8.454
29855WAT     H189807   8.346   7.379   8.364
29855WAT     H289808   8.377   7.323   8.514
29856WAT      O89809   2.984   1.663   9.794
29856WAT     H189810   2.966   1.662   9.696
29856WAT     H289811   3.050   1.591   9.817
29857WAT      O89812   2.139   5.006   4.695
29857WAT     H189813   2.205   4.930   4.689
29857WAT     H289814   2.157   5.058   4.779
29858WAT      O89815   1.824   1.527   4.793
29858WAT     H189816   1.811   1.503   4.697
29858WAT     H289817   1.790   1.619   4.810
29859WAT      O89818   3.562   9.130   5.796
29859WAT     H189819   3.657   9.100   5.792
29859WAT     H289820   3.517   9.111   5.709
29860WAT      O89821   0.432   1.968   6.806
29860WAT     H189822   0.332   1.968   6.801
29860WAT     H289823   0.468   2.024   6.732
29861WAT      O89824   9.538   8.836   1.615
29861WAT     H189825   9.531   8.761   1.681
29861WAT     H289826   9.481   8.816   1.535
29862WAT      O89827   2.506   4.375   5.393
29862WAT     H189828   2.506   4.355   5.295
29862WAT     H289829   2.506   4.474   5.406
29863WAT      O89830   8.148   1.209   8.482
29863WAT     H189831   8.122   1.114   8.462
29863WAT     H289832   8.239   1.211   8.522
29864WAT      O89833   3.981   4.722   2.600
29864WAT     H189834   3.954   4.807   2.555
29864WAT     H289835   3.900   4.678   2.638
29865WAT      O89836   7.956   4.909   7.380
29865WAT     H189837   7.988   4.819   7.352
29865WAT     H289838   8.035   4.970   7.392
29866WAT      O89839   1.141   1.818   1.619
29866WAT     H189840   1.226   1.785   1.577
29866WAT     H289841   1.093   1.877   1.554
29867WAT      O89842   7.271   1.518   8.349
29867WAT     H189843   7.313   1.477   8.430
29867WAT     H289844   7.213   1.451   8.303
29868WAT      O89845   7.287   6.031   1.204
29868WAT     H189846   7.229   6.109   1.231
29868WAT     H289847   7.382   6.061   1.198
29869WAT      O89848   8.628   2.646   5.779
29869WAT     H189849   8.657   2.550   5.770
29869WAT     H289850   8.648   2.677   5.872
29870WAT      O89851   3.105   0.546   6.665
29870WAT     H189852   3.008   0.569   6.676
29870WAT     H289853   3.129   0.549   6.567
29871WAT      O89854   2.063   4.267   7.318
29871WAT     H189855   2.005   4.336   7.275
29871WAT     H289856   2.130   4.233   7.252
29872WAT      O89857   1.468   2.399   3.664
29872WAT     H189858   1.441   2.329   3.730
29872WAT     H289859   1.386   2.444   3.627
29873WAT      O89860   6.004   5.538   2.930
29873WAT     H189861   5.976   5.588   3.012
29873WAT     H289862   5.927   5.483   2.896
29874WAT      O89863   5.180   5.497   8.674
29874WAT     H189864   5.124   5.524   8.596
29874WAT     H289865   5.276   5.516   8.654
29875WAT      O89866   7.314   5.621   6.980
29875WAT     H189867   7.236   5.592   7.035
29875WAT     H289868   7.297   5.598   6.884
29876WAT      O89869   5.286   9.566   4.804
29876WAT     H189870   5.229   9.599   4.729
29876WAT     H289871   5.270   9.622   4.885
29877WAT      O89872   0.932   1.111   6.184
29877WAT     H189873   0.974   1.183   6.240
29877WAT     H289874   0.944   1.022   6.230
29878WAT      O89875   6.377   8.238   0.688
29878WAT     H189876   6.311   8.299   0.645
29878WAT     H289877   6.337   8.201   0.772
29879WAT      O89878   0.063   3.806   4.824
29879WAT     H189879   0.034   3.894   4.862
29879WAT     H289880   0.040   3.733   4.889
29880WAT      O89881   6.511   5.862   6.840
29880WAT     H189882   6.428   5.807   6.827
29880WAT     H289883   6.557   5.876   6.753
29881WAT      O89884   3.173   8.431   1.879
29881WAT     H189885   3.185   8.382   1.965
29881WAT     H289886   3.181   8.529   1.895
29882WAT      O89887   1.036   5.876   1.538
29882WAT     H189888   1.046   5.848   1.442
29882WAT     H289889   1.090   5.959   1.554
29883WAT      O89890   1.677   3.002   5.590
29883WAT     H189891   1.742   3.078   5.586
29883WAT     H289892   1.619   3.004   5.509
29884WAT      O89893   7.258   1.448   1.551
29884WAT     H189894   7.271   1.349   1.552
29884WAT     H289895   7.160   1.469   1.554
29885WAT      O89896   5.091   4.272   5.683
29885WAT     H189897   5.053   4.241   5.596
29885WAT     H289898   5.099   4.195   5.745
29886WAT      O89899   4.928   8.974   9.128
29886WAT     H189900   4.947   8.877   9.112
29886WAT     H289901   4.862   8.983   9.202
29887WAT      O89902   4.237   0.228   2.623
29887WAT     H189903   4.143   0.262   2.627
29887WAT     H289904   4.258   0.179   2.708
29888WAT      O89905   3.139   4.712   0.442
29888WAT     H189906   3.205   4.722   0.517
29888WAT     H289907   3.114   4.802   0.407
29889WAT      O89908   5.883   4.849   5.778
29889WAT     H189909   5.851   4.943   5.774
29889WAT     H289910   5.865   4.811   5.869
29890WAT      O89911   3.833   8.148   9.589
29890WAT     H189912   3.881   8.123   9.504
29890WAT     H289913   3.743   8.105   9.590
29891WAT      O89914   5.561   3.220   7.699
29891WAT     H189915   5.514   3.166   7.628
29891WAT     H289916   5.493   3.273   7.750
29892WAT      O89917   1.880   0.802   7.582
29892WAT     H189918   1.790   0.825   7.544
29892WAT     H289919   1.898   0.860   7.661
29893WAT      O89920   6.819   1.764   0.186
29893WAT     H189921   6.798   1.811   0.272
29893WAT     H289922   6.896   1.702   0.200
29894WAT      O89923   6.374   2.072   4.598
29894WAT     H189924   6.318   2.139   4.551
29894WAT     H289925   6.418   2.114   4.678
29895WAT      O89926   7.169   9.438   6.771
29895WAT     H189927   7.160   9.537   6.759
29895WAT     H289928   7.224   9.400   6.697
29896WAT      O89929   4.215   4.447   8.367
29896WAT     H189930   4.251   4.427   8.458
29896WAT     H289931   4.197   4.361   8.319
29897WAT      O89932   4.504   6.356   8.635
29897WAT     H189933   4.603   6.350   8.646
29897WAT     H289934   4.480   6.446   8.598
29898WAT      O89935   4.986   5.371   9.327
29898WAT     H189936   5.051   5.377   9.403
29898WAT     H289937   4.926   5.451   9.328
29899WAT      O89938   8.666   2.843   8.724
29899WAT     H189939   8.742   2.900   8.753
29899WAT     H289940   8.624   2.882   8.641
29900WAT      O89941   1.205   0.380   2.281
29900WAT     H189942   1.240   0.471   2.262
29900WAT     H289943   1.229   0.353   2.374
29901WAT      O89944   4.566   8.119   8.943
29901WAT     H189945   4.479   8.075   8.964
29901WAT     H289946   4.613   8.068   8.871
29902WAT      O89947   1.665   2.689   6.151
29902WAT     H189948   1.625   2.781   6.149
29902WAT     H289949   1.765   2.696   6.151
29903WAT      O89950   4.757   4.747   7.345
29903WAT     H189951   4.663   4.726   7.373
29903WAT     H289952   4.765   4.733   7.246
29904WAT      O89953   2.472   8.214   5.095
29904WAT     H189954   2.518   8.130   5.065
29904WAT     H289955   2.380   8.218   5.055
29905WAT      O89956   5.721   2.458   8.531
29905WAT     H189957   5.671   2.395   8.473
29905WAT     H289958   5.718   2.426   8.626
29906WAT      O89959   1.264   7.148   3.404
29906WAT     H189960   1.218   7.083   3.344
29906WAT     H289961   1.356   7.168   3.369
29907WAT      O89962   0.996   3.205   2.745
29907WAT     H189963   0.959   3.147   2.818
29907WAT     H289964   0.949   3.293   2.745
29908WAT      O89965   4.008   8.838   8.675
29908WAT     H189966   3.997   8.812   8.579
29908WAT     H289967   4.100   8.876   8.689
29909WAT      O89968   6.090   0.681   6.898
29909WAT     H189969   6.011   0.656   6.842
29909WAT     H289970   6.058   0.718   6.985
29910WAT      O89971   7.129   4.344   5.472
29910WAT     H189972   7.203   4.374   5.412
29910WAT     H289973   7.158   4.353   5.567
29911WAT      O89974   1.940   6.932   6.093
29911WAT     H189975   1.933   6.980   6.180
29911WAT     H289976   2.032   6.895   6.082
29912WAT      O89977   2.831   8.481   0.637
29912WAT     H189978   2.893   8.547   0.680
29912WAT     H289979   2.849   8.478   0.539
29913WAT      O89980   5.404   8.879   5.952
29913WAT     H189981   5.347   8.945   6.001
29913WAT     H289982   5.496   8.878   5.991
29914WAT      O89983   3.954   5.842   2.249
29914WAT     H189984   3.988   5.778   2.318
29914WAT     H289985   3.929   5.928   2.294
29915WAT      O89986   6.360   2.059   0.153
29915WAT     H189987   6.325   2.153   0.157
29915WAT     H289988   6.318   2.005   0.225
29916WAT      O89989   4.124   6.239   3.023
29916WAT     H189990   4.029   6.241   2.993
29916WAT     H289991   4.173   6.317   2.984
29917WAT      O89992   3.604   7.984   9.597
29917WAT     H189993   3.580   7.953   9.688
29917WAT     H289994   3.523   7.985   9.539
29918WAT      O89995   7.496   1.073   7.028
29918WAT     H189996   7.491   0.974   7.011
29918WAT     H289997   7.526   1.089   7.122
29919WAT      O89998   8.970   4.928   6.697
29919WAT     H189999   8.929   4.854   6.751
29919WAT     H290000   8.909   5.007   6.699
29920WAT      O90001   8.313   8.299   3.530
29920WAT     H190002   8.396   8.311   3.584
29920WAT     H290003   8.247   8.244   3.582
29921WAT      O90004   7.037   3.408   4.032
29921WAT     H190005   7.005   3.317   4.002
29921WAT     H290006   7.102   3.444   3.965
29922WAT      O90007   7.266   7.813   3.695
29922WAT     H190008   7.255   7.858   3.607
29922WAT     H290009   7.178   7.778   3.726
29923WAT      O90010   8.537   6.661   9.817
29923WAT     H190011   8.617   6.667   9.758
29923WAT     H290012   8.556   6.599   9.893
29924WAT      O90013   7.841   6.329   5.557
29924WAT     H190014   7.851   6.370   5.467
29924WAT     H290015   7.785   6.389   5.615
29925WAT      O90016   1.363   0.059   5.772
29925WAT     H190017   1.452   0.014   5.788
29925WAT     H290018   1.308   0.001   5.712
29926WAT      O90019   7.347   0.499   6.200
29926WAT     H190020   7.386   0.423   6.147
29926WAT     H290021   7.413   0.528   6.270
29927WAT      O90022   7.429   5.293   5.554
29927WAT     H190023   7.393   5.279   5.646
29927WAT     H290024   7.457   5.205   5.515
29928WAT      O90025   1.674   6.286   6.859
29928WAT     H190026   1.747   6.262   6.795
29928WAT     H290027   1.658   6.385   6.856
29929WAT      O90028   8.624   8.318   1.313
29929WAT     H190029   8.632   8.406   1.267
29929WAT     H290030   8.533   8.280   1.296
29930WAT      O90031   2.324   2.954   0.380
29930WAT     H190032   2.321   2.937   0.479
29930WAT     H290033   2.359   2.873   0.333
29931WAT      O90034   7.648   0.882   9.840
29931WAT     H190035   7.712   0.839   9.777
29931WAT     H290036   7.694   0.900   9.927
29932WAT      O90037   8.666   7.854   2.046
29932WAT     H190038   8.765   7.861   2.039
29932WAT     H290039   8.626   7.945   2.061
29933WAT      O90040   6.372   3.608   6.682
29933WAT     H190041   6.325   3.526   6.649
29933WAT     H290042   6.430   3.644   6.609
29934WAT      O90043   1.344   0.362   6.033
29934WAT     H190044   1.373   0.444   5.984
29934WAT     H290045   1.424   0.307   6.058
29935WAT      O90046   1.996   3.148   3.303
29935WAT     H190047   1.995   3.217   3.375
29935WAT     H290048   2.055   3.072   3.330
29936WAT      O90049   2.194   8.076   9.485
29936WAT     H190050   2.110   8.033   9.518
29936WAT     H290051   2.250   8.105   9.562
29937WAT      O90052   9.267   4.463   1.769
29937WAT     H190053   9.304   4.555   1.778
29937WAT     H290054   9.253   4.424   1.860
29938WAT      O90055   8.657   1.908   3.207
29938WAT     H190056   8.689   1.937   3.297
29938WAT     H290057   8.638   1.987   3.150
29939WAT      O90058   5.212   9.832   3.751
29939WAT     H190059   5.283   9.762   3.747
29939WAT     H290060   5.147   9.818   3.677
29940WAT      O90061   6.792   2.547   2.030
29940WAT     H190062   6.696   2.524   2.049
29940WAT     H290063   6.802   2.646   2.026
29941WAT      O90064   7.133   5.332   6.803
29941WAT     H190065   7.171   5.295   6.888
29941WAT     H290066   7.165   5.277   6.726
29942WAT      O90067   5.320   8.800   0.094
29942WAT     H190068   5.234   8.843   0.068
29942WAT     H290069   5.390   8.820   0.025
29943WAT      O90070   6.821   9.696   4.481
29943WAT     H190071   6.800   9.617   4.538
29943WAT     H290072   6.788   9.780   4.526
29944WAT      O90073   0.356   8.318   5.115
29944WAT     H190074   0.285   8.291   5.180
29944WAT     H290075   0.399   8.237   5.077
29945WAT      O90076   5.364   5.914   0.769
29945WAT     H190077   5.272   5.884   0.743
29945WAT     H290078   5.411   5.839   0.817
29946WAT      O90079   8.763   3.041   8.147
29946WAT     H190080   8.706   2.965   8.116
29946WAT     H290081   8.857   3.027   8.115
29947WAT      O90082   0.864   4.230   8.919
29947WAT     H190083   0.895   4.194   9.007
29947WAT     H290084   0.926   4.303   8.889
29948WAT      O90085   8.945   5.592   6.398
29948WAT     H190086   8.903   5.572   6.487
29948WAT     H290087   9.011   5.520   6.376
29949WAT      O90088   2.473   6.837   9.134
29949WAT     H190089   2.446   6.930   9.109
29949WAT     H290090   2.411   6.771   9.091
29950WAT      O90091   4.814   8.019   0.819
29950WAT     H190092   4.756   7.979   0.889
29950WAT     H290093   4.849   7.947   0.759
29951WAT      O90094   1.679   1.942   4.562
29951WAT     H190095   1.601   1.912   4.507
29951WAT     H290096   1.672   2.041   4.578
29952WAT      O90097   0.778   9.311   2.588
29952WAT     H190098   0.735   9.328   2.677
29952WAT     H290099   0.717   9.344   2.516
29953WAT      O90100   5.144   1.149   5.995
29953WAT     H190101   5.086   1.082   6.042
29953WAT     H290102   5.229   1.104   5.967
29954WAT      O90103   4.823   6.741   1.426
29954WAT     H190104   4.776   6.780   1.347
29954WAT     H290105   4.756   6.719   1.497
29955WAT      O90106   4.316   9.008   1.620
29955WAT     H190107   4.276   8.972   1.536
29955WAT     H290108   4.340   9.104   1.606
29956WAT      O90109   0.346   1.806   8.611
29956WAT     H190110   0.382   1.854   8.691
29956WAT     H290111   0.409   1.815   8.535
29957WAT      O90112   0.384   6.518   0.141
29957WAT     H190113   0.436   6.596   0.176
29957WAT     H290114   0.399   6.511   0.042
29958WAT      O90115   4.986   1.710   4.122
29958WAT     H190116   4.921   1.642   4.089
29958WAT     H290117   5.001   1.699   4.220
29959WAT      O90118   6.507   0.142   2.398
29959WAT     H190119   6.486   0.147   2.496
29959WAT     H290120   6.425   0.165   2.345
29960WAT      O90121   7.870   1.265   8.507
29960WAT     H190122   7.966   1.242   8.491
29960WAT     H290123   7.854   1.359   8.480
29961WAT      O90124   8.936   6.176   5.924
29961WAT     H190125   8.956   6.217   6.014
29961WAT     H290126   8.862   6.228   5.881
29962WAT      O90127   9.850   6.019   4.289
29962WAT     H190128   9.796   6.103   4.287
29962WAT     H290129   9.938   6.037   4.332
29963WAT      O90130   7.468   4.403   8.555
29963WAT     H190131   7.534   4.349   8.503
29963WAT     H290132   7.417   4.343   8.616
29964WAT      O90133   5.175   5.319   3.183
29964WAT     H190134   5.158   5.250   3.112
29964WAT     H290135   5.251   5.289   3.241
29965WAT      O90136   5.978   8.535   1.384
29965WAT     H190137   5.973   8.614   1.444
29965WAT     H290138   6.068   8.491   1.395
29966WAT      O90139   6.129   7.346   7.990
29966WAT     H190140   6.045   7.330   8.043
29966WAT     H290141   6.174   7.258   7.974
29967WAT      O90142   2.357   0.686   0.104
29967WAT     H190143   2.408   0.600   0.112
29967WAT     H290144   2.259   0.666   0.101
29968WAT      O90145   4.775   4.360   5.893
29968WAT     H190146   4.787   4.269   5.853
29968WAT     H290147   4.764   4.352   5.992
29969WAT      O90148   0.005   2.576   1.011
29969WAT     H190149  -0.036   2.590   0.920
29969WAT     H290150   0.018   2.478   1.027
29970WAT      O90151   0.517   4.561   8.170
29970WAT     H190152   0.569   4.495   8.115
29970WAT     H290153   0.545   4.554   8.265
29971WAT      O90154   3.258   6.025   2.689
29971WAT     H190155   3.258   6.095   2.618
29971WAT     H290156   3.184   5.961   2.673
29972WAT      O90157   5.111   5.874   1.407
29972WAT     H190158   5.042   5.923   1.460
29972WAT     H290159   5.197   5.925   1.410
29973WAT      O90160   2.404   2.836   9.155
29973WAT     H190161   2.472   2.904   9.125
29973WAT     H290162   2.330   2.883   9.203
29974WAT      O90163   2.657   8.659   5.403
29974WAT     H190164   2.577   8.719   5.404
29974WAT     H290165   2.677   8.629   5.496
29975WAT      O90166   1.312   0.509   3.366
29975WAT     H190167   1.249   0.587   3.368
29975WAT     H290168   1.266   0.431   3.323
29976WAT      O90169   9.887   4.456   5.152
29976WAT     H190170   9.941   4.470   5.069
29976WAT     H290171   9.822   4.381   5.138
29977WAT      O90172   9.218   2.242   6.496
29977WAT     H190173   9.308   2.284   6.502
29977WAT     H290174   9.159   2.297   6.438
29978WAT      O90175   3.250   1.011   2.099
29978WAT     H190176   3.173   0.948   2.083
29978WAT     H290177   3.218   1.105   2.090
29979WAT      O90178   7.684   8.698   9.119
29979WAT     H190179   7.660   8.686   9.023
29979WAT     H290180   7.735   8.783   9.130
29980WAT      O90181   4.675   9.164   2.104
29980WAT     H190182   4.621   9.233   2.056
29980WAT     H290183   4.637   9.148   2.195
29981WAT      O90184   9.385   0.325   7.975
29981WAT     H190185   9.337   0.243   8.004
29981WAT     H290186   9.318   0.397   7.955
29982WAT      O90187   2.275   4.434   9.184
29982WAT     H190188   2.247   4.502   9.252
29982WAT     H290189   2.253   4.467   9.093
29983WAT      O90190   7.427   0.979   0.100
29983WAT     H190191   7.485   0.928   0.036
29983WAT     H290192   7.394   1.063   0.057
29984WAT      O90193   6.742   4.793   0.547
29984WAT     H190194   6.755   4.722   0.478
29984WAT     H290195   6.644   4.807   0.562
29985WAT      O90196   5.183   7.241   1.082
29985WAT     H190197   5.103   7.260   1.139
29985WAT     H290198   5.263   7.231   1.141
29986WAT      O90199   9.610   4.247   1.744
29986WAT     H190200   9.527   4.202   1.710
29986WAT     H290201   9.609   4.343   1.718
29987WAT      O90202   6.440   7.678   5.184
29987WAT     H190203   6.379   7.603   5.156
29987WAT     H290204   6.476   7.659   5.275
29988WAT      O90205   3.145   3.069   3.767
29988WAT     H190206   3.115   3.158   3.733
29988WAT     H290207   3.065   3.015   3.793
29989WAT      O90208   7.201   7.860   1.648
29989WAT     H190209   7.266   7.929   1.617
29989WAT     H290210   7.174   7.801   1.572
29990WAT      O90211   7.700   2.665   9.572
29990WAT     H190212   7.697   2.710   9.483
29990WAT     H290213   7.661   2.573   9.565
29991WAT      O90214   3.922   0.062   3.140
29991WAT     H190215   3.873   0.146   3.163
29991WAT     H290216   3.886   0.025   3.054
29992WAT      O90217   1.943   1.709   5.230
29992WAT     H190218   1.926   1.724   5.327
29992WAT     H290219   1.874   1.647   5.193
29993WAT      O90220   9.454   2.719   6.097
29993WAT     H190221   9.399   2.713   6.014
29993WAT     H290222   9.454   2.814   6.130
29994WAT      O90223   7.672   0.746   6.156
29994WAT     H190224   7.702   0.742   6.061
29994WAT     H290225   7.651   0.840   6.181
29995WAT      O90226   4.673   9.323   4.711
29995WAT     H190227   4.738   9.254   4.742
29995WAT     H290228   4.722   9.408   4.692
29996WAT      O90229   5.215   1.639   7.207
29996WAT     H190230   5.247   1.604   7.295
29996WAT     H290231   5.281   1.615   7.136
29997WAT      O90232   7.213   7.465   2.041
29997WAT     H190233   7.118   7.475   2.011
29997WAT     H290234   7.253   7.556   2.054
29998WAT      O90235   0.039   0.875   8.369
29998WAT     H190236   0.041   0.965   8.413
29998WAT     H290237  -0.052   0.859   8.330
29999WAT      O90238   3.967   1.609   7.570
29999WAT     H190239   3.938   1.644   7.480
29999WAT     H290240   4.009   1.683   7.622
30000WAT      O90241   4.501   7.915   8.461
30000WAT     H190242   4.550   7.850   8.519
30000WAT     H290243   4.405   7.917   8.487
30001WAT      O90244   2.850   0.953   0.633
30001WAT     H190245   2.895   0.864   0.647
30001WAT     H290246   2.889   0.997   0.553
30002WAT      O90247   1.011   1.181   7.732
30002WAT     H190248   0.955   1.099   7.715
30002WAT     H290249   0.984   1.221   7.819
30003WAT      O90250   1.120   1.332   9.416
30003WAT     H190251   1.050   1.285   9.363
30003WAT     H290252   1.209   1.289   9.399
30004WAT      O90253   2.971   2.997   1.469
30004WAT     H190254   3.020   2.996   1.556
30004WAT     H290255   2.899   3.067   1.473
30005WAT      O90256   2.672   4.191   3.093
30005WAT     H190257   2.705   4.105   3.132
30005WAT     H290258   2.599   4.172   3.028
30006WAT      O90259   1.085   8.489   8.834
30006WAT     H190260   1.095   8.405   8.780
30006WAT     H290261   1.151   8.488   8.909
30007WAT      O90262   0.586   5.547   1.133
30007WAT     H190263   0.663   5.610   1.138
30007WAT     H290264   0.501   5.598   1.147
30008WAT      O90265   0.986   2.619   4.873
30008WAT     H190266   1.065   2.623   4.934
30008WAT     H290267   0.953   2.524   4.867
30009WAT      O90268   2.475   3.321   3.598
30009WAT     H190269   2.394   3.263   3.596
30009WAT     H290270   2.557   3.263   3.601
30010WAT      O90271   1.980   9.144   4.577
30010WAT     H190272   1.907   9.213   4.572
30010WAT     H290273   2.052   9.169   4.513
30011WAT      O90274   0.528   2.721   0.839
30011WAT     H190275   0.497   2.748   0.747
30011WAT     H290276   0.449   2.719   0.900
30012WAT      O90277   0.485   1.514   2.792
30012WAT     H190278   0.440   1.435   2.834
30012WAT     H290279   0.500   1.496   2.695
30013WAT      O90280   1.192   4.226   1.623
30013WAT     H190281   1.281   4.180   1.625
30013WAT     H290282   1.180   4.272   1.535
30014WAT      O90283   3.339   5.228   4.116
30014WAT     H190284   3.262   5.169   4.094
30014WAT     H290285   3.348   5.235   4.216
30015WAT      O90286   3.781   3.251   5.680
30015WAT     H190287   3.854   3.240   5.613
30015WAT     H290288   3.693   3.233   5.637
30016WAT      O90289   8.042   7.106   0.898
30016WAT     H190290   8.056   7.111   0.997
30016WAT     H290291   8.117   7.054   0.856
30017WAT      O90292   3.490   7.377   1.103
30017WAT     H190293   3.458   7.444   1.170
30017WAT     H290294   3.468   7.285   1.134
30018WAT      O90295   3.505   2.212   2.092
30018WAT     H190296   3.449   2.140   2.051
30018WAT     H290297   3.447   2.284   2.128
30019WAT      O90298   0.731   7.906   1.821
30019WAT     H190299   0.801   7.947   1.762
30019WAT     H290300   0.765   7.899   1.914
30020WAT      O90301   2.662   8.663   7.791
30020WAT     H190302   2.698   8.754   7.771
30020WAT     H290303   2.676   8.603   7.711
30021WAT      O90304   3.591   9.382   8.055
30021WAT     H190305   3.497   9.352   8.042
30021WAT     H290306   3.597   9.481   8.040
30022WAT      O90307   1.487   3.770   6.543
30022WAT     H190308   1.548   3.817   6.478
30022WAT     H290309   1.433   3.701   6.494
30023WAT      O90310   9.473   3.276   6.909
30023WAT     H190311   9.561   3.239   6.877
30023WAT     H290312   9.482   3.374   6.924
30024WAT      O90313   2.799   5.649   0.237
30024WAT     H190314   2.738   5.626   0.313
30024WAT     H290315   2.879   5.589   0.241
30025WAT      O90316   3.087   4.495   4.466
30025WAT     H190317   3.086   4.513   4.564
30025WAT     H290318   3.015   4.549   4.422
30026WAT      O90319   4.424   5.924   9.441
30026WAT     H190320   4.424   5.999   9.508
30026WAT     H290321   4.491   5.855   9.469
30027WAT      O90322   4.292   5.175   6.205
30027WAT     H190323   4.296   5.135   6.297
30027WAT     H290324   4.197   5.175   6.173
30028WAT      O90325   3.514   5.703   3.221
30028WAT     H190326   3.496   5.743   3.131
30028WAT     H290327   3.477   5.610   3.225
30029WAT      O90328   6.074   2.686   0.245
30029WAT     H190329   6.036   2.635   0.322
30029WAT     H290330   6.040   2.649   0.159
30030WAT      O90331   0.143   4.013   7.135
30030WAT     H190332   0.088   3.931   7.121
30030WAT     H290333   0.110   4.086   7.075
30031WAT      O90334   5.825   5.439   8.255
30031WAT     H190335   5.773   5.424   8.171
30031WAT     H290336   5.886   5.361   8.271
30032WAT      O90337   3.122   5.226   7.879
30032WAT     H190338   3.063   5.152   7.912
30032WAT     H290339   3.075   5.314   7.890
30033WAT      O90340   4.029   8.292   1.325
30033WAT     H190341   4.034   8.193   1.337
30033WAT     H290342   3.935   8.319   1.308
30034WAT      O90343   7.395   5.098   2.877
30034WAT     H190344   7.454   5.178   2.875
30034WAT     H290345   7.330   5.106   2.953
30035WAT      O90346   0.601   9.504   6.033
30035WAT     H190347   0.581   9.546   5.944
30035WAT     H290348   0.663   9.427   6.019
30036WAT      O90349   6.976   9.461   2.346
30036WAT     H190350   7.006   9.405   2.422
30036WAT     H290351   7.048   9.525   2.321
30037WAT      O90352   9.475   1.978   6.318
30037WAT     H190353   9.468   2.072   6.286
30037WAT     H290354   9.570   1.958   6.342
30038WAT      O90355   4.422   6.908   4.391
30038WAT     H190356   4.437   6.907   4.292
30038WAT     H290357   4.503   6.944   4.437
30039WAT      O90358   0.383   9.768   8.956
30039WAT     H190359   0.435   9.685   8.979
30039WAT     H290360   0.401   9.793   8.861
30040WAT      O90361   5.675   2.083   6.700
30040WAT     H190362   5.703   2.118   6.610
30040WAT     H290363   5.752   2.034   6.741
30041WAT      O90364   4.348   6.391   1.028
30041WAT     H190365   4.430   6.439   1.058
30041WAT     H290366   4.271   6.455   1.026
30042WAT      O90367   5.810   0.915   5.766
30042WAT     H190368   5.776   0.842   5.707
30042WAT     H290369   5.909   0.904   5.779
30043WAT      O90370   9.499   9.163   4.381
30043WAT     H190371   9.599   9.174   4.378
30043WAT     H290372   9.456   9.253   4.378
30044WAT      O90373   3.151   2.547   8.770
30044WAT     H190374   3.171   2.473   8.706
30044WAT     H290375   3.086   2.516   8.839
30045WAT      O90376   2.640   0.416   0.771
30045WAT     H190377   2.639   0.490   0.704
30045WAT     H290378   2.731   0.412   0.814
30046WAT      O90379   9.311   4.439   7.525
30046WAT     H190380   9.236   4.489   7.481
30046WAT     H290381   9.329   4.479   7.615
30047WAT      O90382   1.585   8.480   6.032
30047WAT     H190383   1.526   8.542   6.084
30047WAT     H290384   1.530   8.427   5.967
30048WAT      O90385   8.587   2.912   7.608
30048WAT     H190386   8.502   2.887   7.654
30048WAT     H290387   8.567   2.969   7.528
30049WAT      O90388   7.001   6.399   2.589
30049WAT     H190389   7.061   6.385   2.667
30049WAT     H290390   6.982   6.311   2.544
30050WAT      O90391   9.855   9.628   4.714
30050WAT     H190392   9.792   9.704   4.733
30050WAT     H290393   9.920   9.619   4.789
30051WAT      O90394   2.858   6.194   5.049
30051WAT     H190395   2.798   6.244   4.986
30051WAT     H290396   2.865   6.245   5.135
30052WAT      O90397   7.230   9.432   2.656
30052WAT     H190398   7.282   9.381   2.724
30052WAT     H290399   7.163   9.372   2.612
30053WAT      O90400   0.255   9.285   2.669
30053WAT     H190401   0.273   9.378   2.638
30053WAT     H290402   0.341   9.234   2.671
30054WAT      O90403   6.838   9.555   9.638
30054WAT     H190404   6.934   9.581   9.630
30054WAT     H290405   6.785   9.599   9.565
30055WAT      O90406   0.109   2.630   7.548
30055WAT     H190407   0.132   2.723   7.519
30055WAT     H290408   0.017   2.629   7.587
30056WAT      O90409   1.493   7.854   2.340
30056WAT     H190410   1.519   7.832   2.246
30056WAT     H290411   1.491   7.770   2.395
30057WAT      O90412   6.336   2.762   4.473
30057WAT     H190413   6.426   2.722   4.486
30057WAT     H290414   6.303   2.741   4.381
30058WAT      O90415   6.204   5.513   4.313
30058WAT     H190416   6.139   5.437   4.309
30058WAT     H290417   6.158   5.597   4.285
30059WAT      O90418   2.254   8.374   6.218
30059WAT     H190419   2.266   8.470   6.242
30059WAT     H290420   2.340   8.325   6.231
30060WAT      O90421   4.563   0.507   3.961
30060WAT     H190422   4.541   0.569   4.037
30060WAT     H290423   4.485   0.446   3.944
30061WAT      O90424   6.229   6.683   2.676
30061WAT     H190425   6.215   6.709   2.581
30061WAT     H290426   6.165   6.610   2.700
30062WAT      O90427   6.237   5.394   8.169
30062WAT     H190428   6.308   5.429   8.231
30062WAT     H290429   6.167   5.464   8.155
30063WAT      O90430   3.776   4.153   6.711
30063WAT     H190431   3.755   4.210   6.791
30063WAT     H290432   3.777   4.057   6.737
30064WAT      O90433   3.972   7.587   3.741
30064WAT     H190434   4.050   7.650   3.747
30064WAT     H290435   3.930   7.578   3.832
30065WAT      O90436   0.238   6.779   8.493
30065WAT     H190437   0.301   6.718   8.542
30065WAT     H290438   0.281   6.868   8.479
30066WAT      O90439   5.730   7.374   0.824
30066WAT     H190440   5.787   7.353   0.745
30066WAT     H290441   5.660   7.440   0.798
30067WAT      O90442   9.264   7.363   5.658
30067WAT     H190443   9.336   7.430   5.639
30067WAT     H290444   9.219   7.387   5.744
30068WAT      O90445   6.707   0.552   4.086
30068WAT     H190446   6.647   0.614   4.034
30068WAT     H290447   6.659   0.521   4.168
30069WAT      O90448   5.539   4.256   9.641
30069WAT     H190449   5.503   4.212   9.558
30069WAT     H290450   5.507   4.350   9.646
30070WAT      O90451   2.261   1.651   6.068
30070WAT     H190452   2.231   1.564   6.030
30070WAT     H290453   2.270   1.718   5.994
30071WAT      O90454   5.547   2.544   5.790
30071WAT     H190455   5.543   2.445   5.775
30071WAT     H290456   5.528   2.591   5.704
30072WAT      O90457   2.465   4.017   8.727
30072WAT     H190458   2.493   4.003   8.632
30072WAT     H290459   2.454   4.115   8.743
30073WAT      O90460   4.122   9.534   9.194
30073WAT     H190461   4.095   9.591   9.271
30073WAT     H290462   4.082   9.570   9.110
30074WAT      O90463   3.345   3.366   5.383
30074WAT     H190464   3.374   3.295   5.319
30074WAT     H290465   3.249   3.390   5.365
30075WAT      O90466   1.308   0.539   9.383
30075WAT     H190467   1.239   0.488   9.332
30075WAT     H290468   1.353   0.605   9.323
30076WAT      O90469   6.216   5.863   2.966
30076WAT     H190470   6.219   5.771   2.927
30076WAT     H290471   6.210   5.930   2.893
30077WAT      O90472   4.667   0.042   4.976
30077WAT     H190473   4.594  -0.026   4.966
30077WAT     H290474   4.707   0.061   4.886
30078WAT      O90475   6.816   8.306   3.400
30078WAT     H190476   6.813   8.234   3.470
30078WAT     H290477   6.733   8.361   3.405
30079WAT      O90478   7.648   7.529   7.694
30079WAT     H190479   7.717   7.567   7.756
30079WAT     H290480   7.598   7.456   7.741
30080WAT      O90481   5.117   1.041   7.877
30080WAT     H190482   5.044   1.014   7.941
30080WAT     H290483   5.189   1.089   7.928
30081WAT      O90484   4.029   5.381   4.011
30081WAT     H190485   3.986   5.440   3.943
30081WAT     H290486   4.076   5.437   4.079
30082WAT      O90487   1.546   0.248   7.578
30082WAT     H190488   1.528   0.159   7.537
30082WAT     H290489   1.639   0.277   7.552
30083WAT      O90490   6.787   0.843   5.995
30083WAT     H190491   6.854   0.771   6.013
30083WAT     H290492   6.831   0.917   5.944
30084WAT      O90493   2.846   5.648   4.549
30084WAT     H190494   2.791   5.719   4.594
30084WAT     H290495   2.789   5.569   4.530
30085WAT      O90496   1.838   4.949   3.328
30085WAT     H190497   1.911   4.936   3.395
30085WAT     H290498   1.872   4.925   3.237
30086WAT      O90499   6.089   6.516   2.073
30086WAT     H190500   6.071   6.434   2.019
30086WAT     H290501   6.113   6.490   2.166
30087WAT      O90502   8.844   9.507   0.205
30087WAT     H190503   8.932   9.462   0.218
30087WAT     H290504   8.789   9.454   0.140
30088WAT      O90505   5.335   7.131   0.373
30088WAT     H190506   5.369   7.051   0.324
30088WAT     H290507   5.238   7.143   0.354
30089WAT      O90508   8.182   8.298   6.430
30089WAT     H190509   8.260   8.360   6.438
30089WAT     H290510   8.201   8.227   6.362
30090WAT      O90511   4.875   8.496   4.022
30090WAT     H190512   4.880   8.397   4.013
30090WAT     H290513   4.968   8.533   4.033
30091WAT      O90514   7.083   3.751   7.870
30091WAT     H190515   7.074   3.832   7.928
30091WAT     H290516   7.147   3.686   7.912
30092WAT      O90517   7.761   7.847   0.289
30092WAT     H190518   7.825   7.904   0.341
30092WAT     H290519   7.812   7.779   0.236
30093WAT      O90520   1.151   6.342   9.240
30093WAT     H190521   1.126   6.437   9.220
30093WAT     H290522   1.241   6.340   9.284
30094WAT      O90523   6.821   3.921   6.185
30094WAT     H190524   6.837   3.839   6.239
30094WAT     H290525   6.731   3.916   6.141
30095WAT      O90526   9.861   4.563   7.346
30095WAT     H190527   9.855   4.653   7.389
30095WAT     H290528   9.820   4.495   7.406
30096WAT      O90529   4.674   6.066   8.826
30096WAT     H190530   4.646   6.087   8.920
30096WAT     H290531   4.691   6.151   8.777
30097WAT      O90532   1.812   8.610   9.145
30097WAT     H190533   1.746   8.552   9.193
30097WAT     H290534   1.764   8.680   9.093
30098WAT      O90535   2.608   0.176   6.026
30098WAT     H190536   2.615   0.217   5.935
30098WAT     H290537   2.625   0.077   6.019
30099WAT      O90538   8.038   1.987   5.181
30099WAT     H190539   8.103   2.050   5.138
30099WAT     H290540   8.047   1.897   5.140
30100WAT      O90541   3.856   7.557   6.848
30100WAT     H190542   3.791   7.611   6.901
30100WAT     H290543   3.822   7.463   6.841
30101WAT      O90544   9.124   3.364   7.339
30101WAT     H190545   9.047   3.376   7.403
30101WAT     H290546   9.205   3.411   7.375
30102WAT      O90547   6.344   5.376   6.318
30102WAT     H190548   6.288   5.457   6.301
30102WAT     H290549   6.392   5.351   6.234
30103WAT      O90550   2.297   7.419   2.451
30103WAT     H190551   2.368   7.348   2.450
30103WAT     H290552   2.245   7.413   2.536
30104WAT      O90553   7.680   1.911   3.405
30104WAT     H190554   7.768   1.894   3.448
30104WAT     H290555   7.607   1.906   3.474
30105WAT      O90556   5.322   8.077   2.974
30105WAT     H190557   5.377   8.160   2.964
30105WAT     H290558   5.326   8.047   3.069
30106WAT      O90559   9.386   1.727   4.045
30106WAT     H190560   9.329   1.794   4.093
30106WAT     H290561   9.357   1.721   3.949
30107WAT      O90562   4.049   1.729   8.912
30107WAT     H190563   4.084   1.812   8.955
30107WAT     H290564   3.963   1.749   8.865
30108WAT      O90565   3.283   5.465   3.289
30108WAT     H190566   3.307   5.426   3.200
30108WAT     H290567   3.188   5.495   3.287
30109WAT      O90568   8.229   3.582   1.896
30109WAT     H190569   8.140   3.570   1.939
30109WAT     H290570   8.298   3.601   1.966
30110WAT      O90571   6.370   6.121   9.250
30110WAT     H190572   6.301   6.083   9.312
30110WAT     H290573   6.461   6.093   9.281
30111WAT      O90574   0.063   3.206   3.846
30111WAT     H190575  -0.034   3.204   3.868
30111WAT     H290576   0.082   3.285   3.787
30112WAT      O90577   5.197   9.482   7.127
30112WAT     H190578   5.168   9.531   7.209
30112WAT     H290579   5.130   9.411   7.106
30113WAT      O90580   5.032   7.102   7.912
30113WAT     H190581   5.088   7.025   7.942
30113WAT     H290582   5.073   7.187   7.945
30114WAT      O90583   7.110   6.087   8.796
30114WAT     H190584   7.148   6.002   8.760
30114WAT     H290585   7.090   6.149   8.721
30115WAT      O90586   4.893   6.418   6.828
30115WAT     H190587   4.929   6.338   6.780
30115WAT     H290588   4.965   6.487   6.838
30116WAT      O90589   6.500   0.013   3.349
30116WAT     H190590   6.515  -0.050   3.426
30116WAT     H290591   6.560   0.092   3.359
30117WAT      O90592   3.818   0.097   9.777
30117WAT     H190593   3.905   0.078   9.733
30117WAT     H290594   3.765   0.012   9.785
30118WAT      O90595   5.912   5.940   8.751
30118WAT     H190596   5.900   5.927   8.653
30118WAT     H290597   5.921   5.851   8.796
30119WAT      O90598   2.588   4.120   2.289
30119WAT     H190599   2.596   4.218   2.308
30119WAT     H290600   2.678   4.078   2.293
30120WAT      O90601   7.610   1.284   3.566
30120WAT     H190602   7.684   1.252   3.625
30120WAT     H290603   7.523   1.276   3.615
30121WAT      O90604   6.993   9.313   4.311
30121WAT     H190605   7.076   9.367   4.324
30121WAT     H290606   6.918   9.373   4.284
30122WAT      O90607   9.335   8.414   6.286
30122WAT     H190608   9.433   8.404   6.271
30122WAT     H290609   9.313   8.383   6.379
30123WAT      O90610   1.192   2.490   6.350
30123WAT     H190611   1.197   2.562   6.281
30123WAT     H290612   1.096   2.466   6.367
30124WAT      O90613   4.652   9.466   6.360
30124WAT     H190614   4.587   9.451   6.434
30124WAT     H290615   4.622   9.416   6.279
30125WAT      O90616   1.030   3.504   0.293
30125WAT     H190617   0.973   3.499   0.375
30125WAT     H290618   1.126   3.517   0.319
30126WAT      O90619   2.282   7.732   7.830
30126WAT     H190620   2.284   7.799   7.905
30126WAT     H290621   2.330   7.771   7.751
30127WAT      O90622   6.962   1.499   8.718
30127WAT     H190623   6.986   1.428   8.785
30127WAT     H290624   7.039   1.561   8.706
30128WAT      O90625   9.309   6.532   0.861
30128WAT     H190626   9.358   6.474   0.796
30128WAT     H290627   9.214   6.543   0.830
30129WAT      O90628   1.724   6.456   1.672
30129WAT     H190629   1.663   6.380   1.653
30129WAT     H290630   1.819   6.424   1.669
30130WAT      O90631   6.752   3.528   6.936
30130WAT     H190632   6.673   3.589   6.929
30130WAT     H290633   6.723   3.439   6.969
30131WAT      O90634   5.085   7.762   4.095
30131WAT     H190635   5.042   7.690   4.041
30131WAT     H290636   5.121   7.723   4.180
30132WAT      O90637   9.601   6.282   2.341
30132WAT     H190638   9.528   6.349   2.328
30132WAT     H290639   9.564   6.199   2.382
30133WAT      O90640   2.584   7.208   0.055
30133WAT     H190641   2.570   7.112   0.078
30133WAT     H290642   2.679   7.222   0.028
30134WAT      O90643   3.611   8.351   3.762
30134WAT     H190644   3.586   8.324   3.669
30134WAT     H290645   3.627   8.269   3.817
30135WAT      O90646   1.839   5.898   0.886
30135WAT     H190647   1.841   5.855   0.976
30135WAT     H290648   1.757   5.954   0.877
30136WAT      O90649   7.633   5.400   6.926
30136WAT     H190650   7.602   5.338   6.854
30136WAT     H290651   7.642   5.492   6.889
30137WAT      O90652   1.349   1.236   4.094
30137WAT     H190653   1.281   1.274   4.157
30137WAT     H290654   1.431   1.210   4.145
30138WAT      O90655   2.994   4.501   0.423
30138WAT     H190656   3.035   4.590   0.445
30138WAT     H290657   2.906   4.515   0.378
30139WAT      O90658   0.271   3.353   8.151
30139WAT     H190659   0.329   3.427   8.114
30139WAT     H290660   0.176   3.383   8.150
30140WAT      O90661   9.513   0.903   3.713
30140WAT     H190662   9.556   0.830   3.767
30140WAT     H290663   9.414   0.897   3.723
30141WAT      O90664   2.615   9.760   8.795
30141WAT     H190665   2.670   9.680   8.817
30141WAT     H290666   2.675   9.838   8.776
30142WAT      O90667   5.140   4.145   4.535
30142WAT     H190668   5.094   4.081   4.596
30142WAT     H290669   5.231   4.166   4.571
30143WAT      O90670   0.522   5.184   8.076
30143WAT     H190671   0.464   5.264   8.064
30143WAT     H290672   0.478   5.104   8.035
30144WAT      O90673   2.984   2.927   4.594
30144WAT     H190674   3.005   2.888   4.684
30144WAT     H290675   2.895   2.894   4.564
30145WAT      O90676   1.218   1.569   8.553
30145WAT     H190677   1.128   1.612   8.540
30145WAT     H290678   1.208   1.488   8.611
30146WAT      O90679   1.375   4.325   3.070
30146WAT     H190680   1.429   4.293   2.992
30146WAT     H290681   1.378   4.256   3.143
30147WAT      O90682   8.368   5.604   0.874
30147WAT     H190683   8.295   5.648   0.821
30147WAT     H290684   8.340   5.597   0.970
30148WAT      O90685   9.597   2.651   5.412
30148WAT     H190686   9.666   2.661   5.483
30148WAT     H290687   9.576   2.741   5.373
30149WAT      O90688   9.145   2.315   7.331
30149WAT     H190689   9.066   2.341   7.275
30149WAT     H290690   9.177   2.225   7.303
30150WAT      O90691   2.920   6.016   7.287
30150WAT     H190692   2.857   5.973   7.352
30150WAT     H290693   2.970   6.089   7.332
30151WAT      O90694   8.715   8.613   4.000
30151WAT     H190695   8.669   8.685   3.948
30151WAT     H290696   8.788   8.573   3.944
30152WAT      O90697   2.133   1.330   6.384
30152WAT     H190698   2.037   1.347   6.360
30152WAT     H290699   2.169   1.410   6.433
30153WAT      O90700   6.431   9.797   8.474
30153WAT     H190701   6.392   9.776   8.385
30153WAT     H290702   6.374   9.864   8.521
30154WAT      O90703   8.529   9.085   6.510
30154WAT     H190704   8.524   9.182   6.533
30154WAT     H290705   8.438   9.052   6.483
30155WAT      O90706   9.588   7.408   0.320
30155WAT     H190707   9.680   7.447   0.309
30155WAT     H290708   9.539   7.412   0.233
30156WAT      O90709   1.441   2.325   4.410
30156WAT     H190710   1.418   2.380   4.490
30156WAT     H290711   1.536   2.297   4.415
30157WAT      O90712   2.913   0.673   1.100
30157WAT     H190713   2.962   0.659   1.186
30157WAT     H290714   2.902   0.771   1.083
30158WAT      O90715   2.084   8.001   0.898
30158WAT     H190716   2.131   8.051   0.825
30158WAT     H290717   2.016   8.061   0.940
30159WAT      O90718   4.794   1.207   0.095
30159WAT     H190719   4.775   1.146   0.018
30159WAT     H290720   4.754   1.169   0.178
30160WAT      O90721   7.450   4.348   3.853
30160WAT     H190722   7.404   4.434   3.877
30160WAT     H290723   7.542   4.368   3.820
30161WAT      O90724   6.293   4.173   0.708
30161WAT     H190725   6.236   4.192   0.629
30161WAT     H290726   6.376   4.125   0.678
30162WAT      O90727   1.890   3.816   8.497
30162WAT     H190728   1.891   3.852   8.590
30162WAT     H290729   1.797   3.791   8.471
30163WAT      O90730   8.701   1.740   5.393
30163WAT     H190731   8.682   1.792   5.477
30163WAT     H290732   8.617   1.729   5.341
30164WAT      O90733   7.101   5.192   3.294
30164WAT     H190734   7.109   5.206   3.392
30164WAT     H290735   7.005   5.193   3.267
30165WAT      O90736   7.785   0.955   5.426
30165WAT     H190737   7.733   0.984   5.346
30165WAT     H290738   7.876   0.998   5.423
30166WAT      O90739   0.006   3.775   1.341
30166WAT     H190740  -0.084   3.732   1.343
30166WAT     H290741   0.044   3.778   1.433
30167WAT      O90742   4.257   0.154   1.017
30167WAT     H190743   4.272   0.218   1.092
30167WAT     H290744   4.257   0.061   1.052
30168WAT      O90745   3.535   8.825   6.516
30168WAT     H190746   3.447   8.795   6.551
30168WAT     H290747   3.592   8.745   6.497
30169WAT      O90748   9.423   5.455   4.162
30169WAT     H190749   9.356   5.522   4.130
30169WAT     H290750   9.412   5.441   4.260
30170WAT      O90751   0.818   1.404   8.764
30170WAT     H190752   0.740   1.386   8.824
30170WAT     H290753   0.821   1.336   8.692
30171WAT      O90754   2.210   8.583   0.872
30171WAT     H190755   2.232   8.531   0.789
30171WAT     H290756   2.295   8.619   0.912
30172WAT      O90757   2.747   3.252   6.132
30172WAT     H190758   2.806   3.252   6.051
30172WAT     H290759   2.773   3.327   6.192
30173WAT      O90760   3.752   7.396   1.171
30173WAT     H190761   3.797   7.347   1.097
30173WAT     H290762   3.655   7.408   1.149
30174WAT      O90763   3.241   7.137   9.230
30174WAT     H190764   3.184   7.177   9.158
30174WAT     H290765   3.233   7.037   9.228
30175WAT      O90766   2.619   7.674   0.507
30175WAT     H190767   2.558   7.635   0.576
30175WAT     H290768   2.709   7.690   0.547
30176WAT      O90769   6.579   5.294   3.270
30176WAT     H190770   6.564   5.389   3.241
30176WAT     H290771   6.503   5.265   3.328
30177WAT      O90772   3.828   6.761   6.649
30177WAT     H190773   3.762   6.706   6.700
30177WAT     H290774   3.799   6.857   6.650
30178WAT      O90775   2.612   7.596   4.515
30178WAT     H190776   2.621   7.667   4.445
30178WAT     H290777   2.517   7.569   4.523
30179WAT      O90778   8.423   9.437   0.434
30179WAT     H190779   8.378   9.361   0.386
30179WAT     H290780   8.522   9.424   0.431
30180WAT      O90781   9.868   5.083   7.757
30180WAT     H190782   9.947   5.032   7.724
30180WAT     H290783   9.845   5.053   7.850
30181WAT      O90784   0.406   9.742   0.017
30181WAT     H190785   0.470   9.810   0.052
30181WAT     H290786   0.405   9.662   0.077
30182WAT      O90787   1.728   0.372   3.809
30182WAT     H190788   1.665   0.327   3.746
30182WAT     H290789   1.732   0.320   3.894
30183WAT      O90790   1.665   5.872   3.565
30183WAT     H190791   1.702   5.818   3.640
30183WAT     H290792   1.735   5.887   3.496
30184WAT      O90793   2.237   7.623   2.249
30184WAT     H190794   2.214   7.703   2.305
30184WAT     H290795   2.242   7.542   2.307
30185WAT      O90796   3.294   1.409   8.326
30185WAT     H190797   3.271   1.469   8.250
30185WAT     H290798   3.224   1.339   8.336
30186WAT      O90799   1.413   0.730   2.813
30186WAT     H190800   1.365   0.693   2.892
30186WAT     H290801   1.447   0.822   2.835
30187WAT      O90802   3.618   3.289   0.396
30187WAT     H190803   3.587   3.242   0.478
30187WAT     H290804   3.717   3.301   0.399
30188WAT      O90805   5.068   2.939   7.316
30188WAT     H190806   5.164   2.924   7.291
30188WAT     H290807   5.011   2.872   7.268
30189WAT      O90808   5.322   4.636   2.041
30189WAT     H190809   5.362   4.686   1.964
30189WAT     H290810   5.358   4.543   2.042
30190WAT      O90811   0.784   7.015   1.091
30190WAT     H190812   0.731   6.932   1.078
30190WAT     H290813   0.723   7.091   1.112
30191WAT      O90814   2.139   9.695   6.321
30191WAT     H190815   2.094   9.674   6.234
30191WAT     H290816   2.078   9.670   6.396
30192WAT      O90817   4.310   0.501   6.077
30192WAT     H190818   4.264   0.431   6.022
30192WAT     H290819   4.301   0.590   6.032
30193WAT      O90820   4.893   8.708   0.284
30193WAT     H190821   4.852   8.798   0.302
30193WAT     H290822   4.845   8.665   0.207
30194WAT      O90823   6.053   7.446   2.794
30194WAT     H190824   6.057   7.378   2.868
30194WAT     H290825   5.958   7.459   2.766
30195WAT      O90826   4.136   5.065   6.733
30195WAT     H190827   4.193   5.043   6.812
30195WAT     H290828   4.041   5.041   6.752
30196WAT      O90829   7.713   1.690   4.581
30196WAT     H190830   7.803   1.731   4.562
30196WAT     H290831   7.684   1.715   4.673
30197WAT      O90832   8.639   7.527   6.471
30197WAT     H190833   8.606   7.433   6.464
30197WAT     H290834   8.565   7.587   6.503
30198WAT      O90835   7.520   7.257   0.610
30198WAT     H190836   7.615   7.288   0.610
30198WAT     H290837   7.505   7.197   0.531
30199WAT      O90838   8.020   2.959   3.232
30199WAT     H190839   7.970   2.878   3.262
30199WAT     H290840   8.106   2.965   3.282
30200WAT      O90841   3.698   1.248   0.567
30200WAT     H190842   3.785   1.255   0.615
30200WAT     H290843   3.697   1.164   0.513
30201WAT      O90844   6.348   4.507   2.889
30201WAT     H190845   6.441   4.483   2.863
30201WAT     H290846   6.322   4.457   2.972
30202WAT      O90847   8.148   0.631   5.727
30202WAT     H190848   8.070   0.688   5.700
30202WAT     H290849   8.159   0.634   5.827
30203WAT      O90850   8.146   5.344   2.825
30203WAT     H190851   8.210   5.352   2.748
30203WAT     H290852   8.168   5.262   2.877
30204WAT      O90853   7.222   8.107   2.454
30204WAT     H190854   7.229   8.170   2.530
30204WAT     H290855   7.303   8.116   2.395
30205WAT      O90856   4.948   8.455   3.347
30205WAT     H190857   4.855   8.487   3.328
30205WAT     H290858   5.008   8.533   3.364
30206WAT      O90859   5.160   3.538   7.666
30206WAT     H190860   5.095   3.514   7.738
30206WAT     H290861   5.132   3.494   7.580
30207WAT      O90862   4.620   0.505   6.726
30207WAT     H190863   4.621   0.429   6.661
30207WAT     H290864   4.682   0.576   6.695
30208WAT      O90865   2.206   8.006   8.241
30208WAT     H190866   2.260   7.942   8.186
30208WAT     H290867   2.266   8.058   8.301
30209WAT      O90868   2.237   5.681   1.657
30209WAT     H190869   2.155   5.709   1.606
30209WAT     H290870   2.318   5.723   1.616
30210WAT      O90871   1.144   3.819   7.215
30210WAT     H190872   1.070   3.836   7.150
30210WAT     H290873   1.142   3.724   7.244
30211WAT      O90874   7.448   4.456   1.432
30211WAT     H190875   7.431   4.531   1.368
30211WAT     H290876   7.545   4.456   1.457
30212WAT      O90877   8.404   9.702   1.746
30212WAT     H190878   8.422   9.753   1.831
30212WAT     H290879   8.490   9.667   1.710
30213WAT      O90880   4.197   0.337   0.463
30213WAT     H190881   4.180   0.350   0.365
30213WAT     H290882   4.229   0.423   0.503
30214WAT      O90883   1.703   1.010   1.164
30214WAT     H190884   1.628   1.049   1.218
30214WAT     H290885   1.677   0.920   1.131
30215WAT      O90886   0.400   7.162   0.264
30215WAT     H190887   0.468   7.121   0.324
30215WAT     H290888   0.411   7.261   0.263
30216WAT      O90889   2.265   7.703   9.381
30216WAT     H190890   2.259   7.786   9.324
30216WAT     H290891   2.339   7.713   9.447
30217WAT      O90892   5.744   8.275   1.404
30217WAT     H190893   5.818   8.341   1.403
30217WAT     H290894   5.708   8.266   1.496
30218WAT      O90895   8.196   9.108   5.805
30218WAT     H190896   8.125   9.068   5.861
30218WAT     H290897   8.170   9.201   5.778
30219WAT      O90898   0.540   1.095   7.626
30219WAT     H190899   0.518   1.024   7.559
30219WAT     H290900   0.555   1.182   7.579
30220WAT      O90901   0.890   1.894   5.721
30220WAT     H190902   0.813   1.852   5.672
30220WAT     H290903   0.916   1.979   5.676
30221WAT      O90904   7.039   9.108   1.934
30221WAT     H190905   7.009   9.202   1.920
30221WAT     H290906   6.962   9.046   1.922
30222WAT      O90907   1.792   8.000   3.754
30222WAT     H190908   1.725   8.074   3.749
30222WAT     H290909   1.753   7.922   3.802
30223WAT      O90910   3.676   0.971   4.335
30223WAT     H190911   3.684   0.872   4.323
30223WAT     H290912   3.598   0.991   4.395
30224WAT      O90913   8.080   8.640   9.131
30224WAT     H190914   8.165   8.590   9.112
30224WAT     H290915   8.032   8.658   9.045
30225WAT      O90916   7.922   9.014   3.096
30225WAT     H190917   7.916   8.937   3.160
30225WAT     H290918   7.924   9.100   3.148
30226WAT      O90919   3.149   9.058   9.231
30226WAT     H190920   3.094   9.118   9.289
30226WAT     H290921   3.189   9.112   9.156
30227WAT      O90922   9.656   2.854   4.474
30227WAT     H190923   9.648   2.911   4.557
30227WAT     H290924   9.565   2.839   4.436
30228WAT      O90925   6.023   5.000   5.154
30228WAT     H190926   6.052   5.041   5.067
30228WAT     H290927   5.969   4.918   5.135
30229WAT      O90928   9.696   5.224   0.486
30229WAT     H190929   9.643   5.291   0.536
30229WAT     H290930   9.793   5.233   0.510
30230WAT      O90931   0.963   3.516   0.009
30230WAT     H190932   0.973   3.499   0.107
30230WAT     H290933   0.938   3.431  -0.037
30231WAT      O90934   6.764   5.643   6.797
30231WAT     H190935   6.799   5.584   6.724
30231WAT     H290936   6.741   5.732   6.758
30232WAT      O90937   3.937   0.760   1.278
30232WAT     H190938   4.019   0.711   1.307
30232WAT     H290939   3.864   0.745   1.345
30233WAT      O90940   2.006   4.674   7.909
30233WAT     H190941   1.912   4.643   7.895
30233WAT     H290942   2.066   4.594   7.919
30234WAT      O90943   0.538   9.480   1.481
30234WAT     H190944   0.540   9.560   1.421
30234WAT     H290945   0.629   9.440   1.487
30235WAT      O90946   2.885   8.444   8.201
30235WAT     H190947   2.915   8.358   8.160
30235WAT     H290948   2.807   8.479   8.149
30236WAT      O90949   4.468   8.835   8.659
30236WAT     H190950   4.541   8.898   8.686
30236WAT     H290951   4.381   8.870   8.692
30237WAT      O90952   7.853   1.493   6.152
30237WAT     H190953   7.858   1.549   6.235
30237WAT     H290954   7.785   1.422   6.165
30238WAT      O90955   2.133   3.840   7.581
30238WAT     H190956   2.091   3.905   7.644
30238WAT     H290957   2.062   3.782   7.540
30239WAT      O90958   8.302   5.698   6.393
30239WAT     H190959   8.324   5.715   6.489
30239WAT     H290960   8.329   5.777   6.338
30240WAT      O90961   0.149   2.633   6.403
30240WAT     H190962   0.230   2.690   6.386
30240WAT     H290963   0.082   2.685   6.456
30241WAT      O90964   8.078   0.828   2.073
30241WAT     H190965   8.052   0.925   2.074
30241WAT     H290966   8.066   0.791   1.981
30242WAT      O90967   5.600   2.272   4.502
30242WAT     H190968   5.581   2.176   4.481
30242WAT     H290969   5.533   2.305   4.569
30243WAT      O90970   5.338   3.781   9.886
30243WAT     H190971   5.427   3.765   9.930
30243WAT     H290972   5.293   3.859   9.931
30244WAT      O90973   7.884   4.417   4.316
30244WAT     H190974   7.852   4.476   4.241
30244WAT     H290975   7.828   4.335   4.320
30245WAT      O90976   5.374   9.250   6.026
30245WAT     H190977   5.407   9.237   6.120
30245WAT     H290978   5.280   9.284   6.028
30246WAT      O90979   6.611   8.211   8.979
30246WAT     H190980   6.698   8.187   8.936
30246WAT     H290981   6.536   8.162   8.933
30247WAT      O90982   4.959   6.646   0.929
30247WAT     H190983   4.953   6.588   0.848
30247WAT     H290984   4.989   6.591   1.007
30248WAT      O90985   9.581   7.246   5.630
30248WAT     H190986   9.624   7.177   5.571
30248WAT     H290987   9.517   7.301   5.575
30249WAT      O90988   6.452   3.994   7.609
30249WAT     H190989   6.447   3.903   7.649
30249WAT     H290990   6.497   3.990   7.520
30250WAT      O90991   4.834   3.019   1.675
30250WAT     H190992   4.774   3.003   1.753
30250WAT     H290993   4.921   3.057   1.707
30251WAT      O90994   3.565   8.005   5.540
30251WAT     H190995   3.645   8.038   5.490
30251WAT     H290996   3.503   7.958   5.478
30252WAT      O90997   7.673   9.580   5.420
30252WAT     H190998   7.660   9.589   5.321
30252WAT     H290999   7.599   9.626   5.468
30253WAT      O91000   3.229   3.576   7.797
30253WAT     H191001   3.153   3.524   7.838
30253WAT     H291002   3.240   3.548   7.702
30254WAT      O91003   4.900   4.524   4.691
30254WAT     H191004   4.896   4.606   4.748
30254WAT     H291005   4.813   4.511   4.645
30255WAT      O91006   4.835   9.145   9.634
30255WAT     H191007   4.805   9.222   9.577
30255WAT     H291008   4.772   9.068   9.621
30256WAT      O91009   2.563   3.811   6.873
30256WAT     H191010   2.603   3.854   6.954
30256WAT     H291011   2.483   3.758   6.900
30257WAT      O91012   6.949   2.875   0.823
30257WAT     H191013   6.961   2.963   0.777
30257WAT     H291014   6.946   2.802   0.755
30258WAT      O91015   1.251   8.532   2.659
30258WAT     H191016   1.349   8.510   2.662
30258WAT     H291017   1.235   8.605   2.593
30259WAT      O91018   5.195   8.114   4.481
30259WAT     H191019   5.202   8.110   4.381
30259WAT     H291020   5.175   8.023   4.516
30260WAT      O91021   0.924   5.993   2.458
30260WAT     H191022   0.875   6.075   2.431
30260WAT     H291023   0.999   5.977   2.394
30261WAT      O91024   0.516   7.943   1.504
30261WAT     H191025   0.467   7.903   1.581
30261WAT     H291026   0.460   7.937   1.422
30262WAT      O91027   5.741   0.206   3.496
30262WAT     H191028   5.788   0.271   3.556
30262WAT     H291029   5.746   0.114   3.537
30263WAT      O91030   3.757   4.553   6.533
30263WAT     H191031   3.737   4.574   6.437
30263WAT     H291032   3.716   4.465   6.556
30264WAT      O91033   2.351   3.288   5.444
30264WAT     H191034   2.423   3.290   5.373
30264WAT     H291035   2.300   3.373   5.441
30265WAT      O91036   7.514   1.462   8.036
30265WAT     H191037   7.521   1.419   8.127
30265WAT     H291038   7.517   1.391   7.966
30266WAT      O91039   3.149   5.455   4.897
30266WAT     H191040   3.113   5.467   4.989
30266WAT     H291041   3.073   5.454   4.831
30267WAT      O91042   0.346   3.778   1.668
30267WAT     H191043   0.444   3.777   1.646
30267WAT     H291044   0.321   3.869   1.703
30268WAT      O91045   7.747   2.844   3.710
30268WAT     H191046   7.662   2.896   3.712
30268WAT     H291047   7.740   2.765   3.771
30269WAT      O91048   6.240   8.534   7.115
30269WAT     H191049   6.302   8.509   7.190
30269WAT     H291050   6.217   8.453   7.062
30270WAT      O91051   3.538   3.242   9.195
30270WAT     H191052   3.562   3.279   9.284
30270WAT     H291053   3.592   3.287   9.124
30271WAT      O91054   9.674   2.237   8.875
30271WAT     H191055   9.731   2.200   8.802
30271WAT     H291056   9.610   2.304   8.836
30272WAT      O91057   6.254   0.018   5.216
30272WAT     H191058   6.218  -0.032   5.136
30272WAT     H291059   6.222  -0.026   5.300
30273WAT      O91060   8.396   7.600   0.828
30273WAT     H191061   8.382   7.504   0.853
30273WAT     H291062   8.344   7.621   0.745
30274WAT      O91063   5.365   1.143   4.616
30274WAT     H191064   5.396   1.048   4.616
30274WAT     H291065   5.334   1.168   4.524
30275WAT      O91066   5.841   5.621   3.633
30275WAT     H191067   5.834   5.676   3.716
30275WAT     H291068   5.784   5.539   3.643
30276WAT      O91069   6.031   7.940   6.780
30276WAT     H191070   6.128   7.928   6.802
30276WAT     H291071   5.984   7.852   6.790
30277WAT      O91072   9.316   4.847   3.277
30277WAT     H191073   9.221   4.872   3.293
30277WAT     H291074   9.321   4.768   3.216
30278WAT      O91075   4.768   6.500   7.058
30278WAT     H191076   4.814   6.443   7.127
30278WAT     H291077   4.791   6.466   6.966
30279WAT      O91078   0.057   0.223   2.054
30279WAT     H191079   0.131   0.222   1.987
30279WAT     H291080   0.065   0.142   2.112
30280WAT      O91081   4.295   6.123   2.266
30280WAT     H191082   4.319   6.208   2.315
30280WAT     H291083   4.216   6.140   2.207
30281WAT      O91084   8.797   4.898   5.797
30281WAT     H191085   8.867   4.895   5.726
30281WAT     H291086   8.782   4.805   5.832
30282WAT      O91087   1.096   5.560   0.061
30282WAT     H191088   1.146   5.524   0.139
30282WAT     H291089   1.149   5.544  -0.023
30283WAT      O91090   9.102   8.677   9.879
30283WAT     H191091   9.121   8.643   9.787
30283WAT     H291092   9.038   8.616   9.924
30284WAT      O91093   2.173   4.955   4.408
30284WAT     H191094   2.214   4.898   4.479
30284WAT     H291095   2.075   4.966   4.427
30285WAT      O91096   4.517   9.635   3.708
30285WAT     H191097   4.420   9.624   3.730
30285WAT     H291098   4.569   9.562   3.753
30286WAT      O91099   0.456   8.330   6.473
30286WAT     H191100   0.477   8.235   6.496
30286WAT     H291101   0.428   8.336   6.377
30287WAT      O91102   5.120   0.093   7.927
30287WAT     H191103   5.104   0.154   8.005
30287WAT     H291104   5.191   0.027   7.950
30288WAT      O91105   9.380   0.830   7.266
30288WAT     H191106   9.332   0.859   7.183
30288WAT     H291107   9.452   0.896   7.288
30289WAT      O91108   9.059   5.359   1.579
30289WAT     H191109   9.132   5.391   1.639
30289WAT     H291110   9.064   5.408   1.491
30290WAT      O91111   2.556   6.314   7.435
30290WAT     H191112   2.579   6.300   7.531
30290WAT     H291113   2.543   6.226   7.391
30291WAT      O91114   8.549   6.213   5.035
30291WAT     H191115   8.507   6.134   5.079
30291WAT     H291116   8.584   6.276   5.104
30292WAT      O91117   5.831   3.496   5.935
30292WAT     H191118   5.818   3.591   5.906
30292WAT     H291119   5.760   3.439   5.894
30293WAT      O91120   7.002   4.086   6.051
30293WAT     H191121   7.094   4.053   6.031
30293WAT     H291122   6.958   4.026   6.118
30294WAT      O91123   9.663   1.532   0.424
30294WAT     H191124   9.658   1.461   0.494
30294WAT     H291125   9.575   1.539   0.376
30295WAT      O91126   8.980   0.908   0.644
30295WAT     H191127   9.069   0.953   0.650
30295WAT     H291128   8.947   0.887   0.736
30296WAT      O91129   5.894   9.461   3.548
30296WAT     H191130   5.948   9.530   3.595
30296WAT     H291131   5.866   9.495   3.458
30297WAT      O91132   3.740   3.915   1.700
30297WAT     H191133   3.744   3.868   1.612
30297WAT     H291134   3.663   3.878   1.754
30298WAT      O91135   0.337   4.506   3.750
30298WAT     H191136   0.387   4.421   3.766
30298WAT     H291137   0.387   4.582   3.793
30299WAT      O91138   2.901   1.232   6.676
30299WAT     H191139   2.951   1.264   6.595
30299WAT     H291140   2.804   1.220   6.653
30300WAT      O91141   1.142   0.408   6.216
30300WAT     H191142   1.136   0.508   6.222
30300WAT     H291143   1.213   0.383   6.150
30301WAT      O91144   3.761   9.428   4.500
30301WAT     H191145   3.684   9.365   4.514
30301WAT     H291146   3.826   9.386   4.437
30302WAT      O91147   5.656   6.851   0.250
30302WAT     H191148   5.561   6.882   0.256
30302WAT     H291149   5.678   6.795   0.330
30303WAT      O91150   2.901   5.367   6.913
30303WAT     H191151   2.908   5.370   6.813
30303WAT     H291152   2.820   5.418   6.942
30304WAT      O91153   7.144   3.972   3.521
30304WAT     H191154   7.223   3.993   3.579
30304WAT     H291155   7.075   4.043   3.532
30305WAT      O91156   2.941   0.809   7.949
30305WAT     H191157   3.024   0.828   8.002
30305WAT     H291158   2.933   0.874   7.874
30306WAT      O91159   3.009   0.831   3.198
30306WAT     H191160   2.933   0.788   3.151
30306WAT     H291161   3.089   0.835   3.138
30307WAT      O91162   8.160   5.676   3.783
30307WAT     H191163   8.190   5.691   3.689
30307WAT     H291164   8.191   5.586   3.814
30308WAT      O91165   5.978   8.997   3.308
30308WAT     H191166   5.985   9.095   3.327
30308WAT     H291167   5.900   8.959   3.356
30309WAT      O91168   8.612   3.689   4.572
30309WAT     H191169   8.545   3.625   4.610
30309WAT     H291170   8.575   3.732   4.490
30310WAT      O91171   7.224   0.681   9.138
30310WAT     H191172   7.238   0.603   9.078
30310WAT     H291173   7.288   0.754   9.114
30311WAT      O91174   5.458   3.212   5.643
30311WAT     H191175   5.460   3.205   5.544
30311WAT     H291176   5.508   3.294   5.672
30312WAT      O91177   5.744   1.258   3.840
30312WAT     H191178   5.720   1.161   3.833
30312WAT     H291179   5.666   1.310   3.875
30313WAT      O91180   0.139   4.634   3.581
30313WAT     H191181   0.182   4.563   3.636
30313WAT     H291182   0.107   4.708   3.640
30314WAT      O91183   6.822   5.560   8.350
30314WAT     H191184   6.862   5.536   8.262
30314WAT     H291185   6.724   5.575   8.340
30315WAT      O91186   9.802   1.430   1.124
30315WAT     H191187   9.879   1.401   1.066
30315WAT     H291188   9.794   1.530   1.121
30316WAT      O91189   3.521   8.704   6.847
30316WAT     H191190   3.452   8.737   6.782
30316WAT     H291191   3.594   8.658   6.796
30317WAT      O91192   2.186   7.172   9.736
30317WAT     H191193   2.126   7.141   9.810
30317WAT     H291194   2.133   7.223   9.669
30318WAT      O91195   2.234   8.627   6.327
30318WAT     H191196   2.193   8.674   6.249
30318WAT     H291197   2.201   8.667   6.412
30319WAT      O91198   4.567   7.549   3.168
30319WAT     H191199   4.554   7.620   3.237
30319WAT     H291200   4.533   7.462   3.204
30320WAT      O91201   8.285   9.514   2.576
30320WAT     H191202   8.206   9.565   2.542
30320WAT     H291203   8.305   9.540   2.670
30321WAT      O91204   2.618   6.981   8.010
30321WAT     H191205   2.567   7.049   7.957
30321WAT     H291206   2.662   6.916   7.948
30322WAT      O91207   4.738   7.570   5.142
30322WAT     H191208   4.756   7.555   5.044
30322WAT     H291209   4.703   7.662   5.156
30323WAT      O91210   0.249   5.282   7.256
30323WAT     H191211   0.194   5.330   7.325
30323WAT     H291212   0.192   5.257   7.178
30324WAT      O91213   0.870   8.600   4.912
30324WAT     H191214   0.808   8.667   4.953
30324WAT     H291215   0.817   8.529   4.866
30325WAT      O91216   8.984   6.403   3.141
30325WAT     H191217   9.078   6.434   3.128
30325WAT     H291218   8.982   6.303   3.147
30326WAT      O91219   8.158   2.447   4.528
30326WAT     H191220   8.243   2.464   4.478
30326WAT     H291221   8.179   2.417   4.621
30327WAT      O91222   9.301   8.293   0.153
30327WAT     H191223   9.374   8.300   0.086
30327WAT     H291224   9.243   8.214   0.131
30328WAT      O91225   3.964   8.756   6.929
30328WAT     H191226   4.060   8.754   6.900
30328WAT     H291227   3.912   8.818   6.871
30329WAT      O91228   3.067   0.681   0.359
30329WAT     H191229   3.109   0.747   0.295
30329WAT     H291230   3.138   0.619   0.393
30330WAT      O91231   0.839   0.566   4.123
30330WAT     H191232   0.787   0.527   4.199
30330WAT     H291233   0.776   0.590   4.049
30331WAT      O91234   7.558   6.223   6.621
30331WAT     H191235   7.493   6.292   6.591
30331WAT     H291236   7.509   6.140   6.649
30332WAT      O91237   7.080   4.852   2.737
30332WAT     H191238   7.068   4.947   2.763
30332WAT     H291239   7.024   4.831   2.656
30333WAT      O91240   2.359   6.051   1.777
30333WAT     H191241   2.366   6.143   1.739
30333WAT     H291242   2.302   6.054   1.860
30334WAT      O91243   4.355   2.819   3.258
30334WAT     H191244   4.441   2.774   3.233
30334WAT     H291245   4.330   2.884   3.187
30335WAT      O91246   3.470   6.752   3.510
30335WAT     H191247   3.397   6.821   3.509
30335WAT     H291248   3.506   6.744   3.603
30336WAT      O91249   6.073   6.008   6.037
30336WAT     H191250   6.076   6.082   5.970
30336WAT     H291251   6.007   6.030   6.109
30337WAT      O91252   1.035   6.544   0.037
30337WAT     H191253   1.109   6.509   0.094
30337WAT     H291254   0.948   6.535   0.087
30338WAT      O91255   4.181   3.578   9.248
30338WAT     H191256   4.109   3.615   9.188
30338WAT     H291257   4.179   3.478   9.245
30339WAT      O91258   0.962   5.663   5.752
30339WAT     H191259   0.974   5.613   5.667
30339WAT     H291260   0.941   5.759   5.733
30340WAT      O91261   8.542   7.468   5.360
30340WAT     H191262   8.540   7.500   5.266
30340WAT     H291263   8.635   7.470   5.395
30341WAT      O91264   2.959   7.499   3.838
30341WAT     H191265   2.956   7.521   3.741
30341WAT     H291266   3.028   7.429   3.854
30342WAT      O91267   2.759   4.803   5.670
30342WAT     H191268   2.802   4.874   5.615
30342WAT     H291269   2.828   4.735   5.696
30343WAT      O91270   7.100   6.777   8.465
30343WAT     H191271   7.132   6.848   8.402
30343WAT     H291272   7.004   6.757   8.447
30344WAT      O91273   2.017   6.060   0.775
30344WAT     H191274   2.106   6.025   0.803
30344WAT     H291275   1.945   6.006   0.817
30345WAT      O91276   2.594   1.901   2.408
30345WAT     H191277   2.694   1.902   2.398
30345WAT     H291278   2.561   1.995   2.414
30346WAT      O91279   0.006   6.960   1.922
30346WAT     H191280  -0.003   6.912   1.835
30346WAT     H291281   0.097   7.001   1.928
30347WAT      O91282   6.406   5.389   0.584
30347WAT     H191283   6.355   5.378   0.669
30347WAT     H291284   6.363   5.335   0.512
30348WAT      O91285   4.397   9.836   9.294
30348WAT     H191286   4.451   9.774   9.351
30348WAT     H291287   4.353   9.905   9.351
30349WAT      O91288   1.500   7.104   5.464
30349WAT     H191289   1.596   7.094   5.491
30349WAT     H291290   1.464   7.190   5.499
30350WAT      O91291   4.352   1.472   0.345
30350WAT     H191292   4.320   1.566   0.332
30350WAT     H291293   4.452   1.472   0.349
30351WAT      O91294   0.543   1.633   9.793
30351WAT     H191295   0.600   1.708   9.827
30351WAT     H291296   0.464   1.670   9.745
30352WAT      O91297   3.714   7.918   8.767
30352WAT     H191298   3.723   7.851   8.840
30352WAT     H291299   3.647   7.886   8.700
30353WAT      O91300   9.486   1.858   5.855
30353WAT     H191301   9.524   1.802   5.929
30353WAT     H291302   9.545   1.936   5.838
30354WAT      O91303   9.851   9.336   0.185
30354WAT     H191304   9.933   9.373   0.140
30354WAT     H291305   9.852   9.363   0.282
30355WAT      O91306   4.425   4.814   4.832
30355WAT     H191307   4.401   4.890   4.893
30355WAT     H291308   4.348   4.792   4.773
30356WAT      O91309   8.685   5.865   3.668
30356WAT     H191310   8.598   5.895   3.707
30356WAT     H291311   8.673   5.775   3.626
30357WAT      O91312   5.381   1.412   9.504
30357WAT     H191313   5.292   1.454   9.489
30357WAT     H291314   5.447   1.449   9.439
30358WAT      O91315   8.890   2.016   4.218
30358WAT     H191316   8.846   1.997   4.306
30358WAT     H291317   8.972   2.072   4.233
30359WAT      O91318   9.240   9.632   7.292
30359WAT     H191319   9.305   9.610   7.365
30359WAT     H291320   9.184   9.551   7.273
30360WAT      O91321   0.141   7.601   3.504
30360WAT     H191322   0.144   7.514   3.554
30360WAT     H291323   0.218   7.658   3.532
30361WAT      O91324   9.710   9.723   8.592
30361WAT     H191325   9.754   9.792   8.649
30361WAT     H291326   9.770   9.643   8.582
30362WAT      O91327   9.383   0.434   3.886
30362WAT     H191328   9.339   0.453   3.974
30362WAT     H291329   9.482   0.435   3.898
30363WAT      O91330   3.624   6.122   7.349
30363WAT     H191331   3.575   6.035   7.355
30363WAT     H291332   3.565   6.195   7.383
30364WAT      O91333   4.494   7.507   0.268
30364WAT     H191334   4.479   7.606   0.260
30364WAT     H291335   4.557   7.489   0.344
30365WAT      O91336   2.935   9.662   1.410
30365WAT     H191337   2.980   9.750   1.398
30365WAT     H291338   2.836   9.674   1.404
30366WAT      O91339   1.849   2.557   8.426
30366WAT     H191340   1.867   2.518   8.516
30366WAT     H291341   1.752   2.545   8.403
30367WAT      O91342   1.844   2.718   3.860
30367WAT     H191343   1.836   2.783   3.784
30367WAT     H291344   1.775   2.738   3.929
30368WAT      O91345   4.669   9.142   3.950
30368WAT     H191346   4.722   9.064   3.983
30368WAT     H291347   4.607   9.112   3.878
30369WAT      O91348   3.543   8.688   7.101
30369WAT     H191349   3.527   8.691   7.002
30369WAT     H291350   3.641   8.696   7.119
30370WAT      O91351   1.960   6.099   4.410
30370WAT     H191352   2.043   6.044   4.397
30370WAT     H291353   1.879   6.041   4.397
30371WAT      O91354   3.251   9.586   1.901
30371WAT     H191355   3.335   9.592   1.847
30371WAT     H291356   3.270   9.609   1.996
30372WAT      O91357   1.827   8.983   2.628
30372WAT     H191358   1.847   9.072   2.668
30372WAT     H291359   1.733   8.983   2.592
30373WAT      O91360   9.794   1.946   4.577
30373WAT     H191361   9.770   1.897   4.661
30373WAT     H291362   9.879   1.908   4.540
30374WAT      O91363   2.077   2.859   5.115
30374WAT     H191364   2.130   2.934   5.077
30374WAT     H291365   2.044   2.884   5.206
30375WAT      O91366   1.689   4.814   9.582
30375WAT     H191367   1.778   4.771   9.598
30375WAT     H291368   1.660   4.797   9.487
30376WAT      O91369   7.293   0.190   6.847
30376WAT     H191370   7.207   0.162   6.805
30376WAT     H291371   7.334   0.264   6.793
30377WAT      O91372   4.945   8.024   8.416
30377WAT     H191373   4.859   8.053   8.460
30377WAT     H291374   5.011   8.001   8.487
30378WAT      O91375   0.891   2.356   4.876
30378WAT     H191376   0.897   2.281   4.942
30378WAT     H291377   0.836   2.328   4.798
30379WAT      O91378   8.803   8.494   9.412
30379WAT     H191379   8.886   8.447   9.382
30379WAT     H291380   8.734   8.489   9.340
30380WAT      O91381   0.473   4.978   1.859
30380WAT     H191382   0.529   5.043   1.808
30380WAT     H291383   0.531   4.911   1.904
30381WAT      O91384   0.588   0.991   1.326
30381WAT     H191385   0.563   0.895   1.338
30381WAT     H291386   0.508   1.043   1.297
30382WAT      O91387   8.256   1.053   7.676
30382WAT     H191388   8.182   1.107   7.637
30382WAT     H291389   8.276   1.086   7.769
30383WAT      O91390   4.715   6.053   6.178
30383WAT     H191391   4.787   6.097   6.232
30383WAT     H291392   4.756   6.005   6.101
30384WAT      O91393   1.279   3.767   4.447
30384WAT     H191394   1.374   3.778   4.477
30384WAT     H291395   1.264   3.821   4.365
30385WAT      O91396   4.876   7.431   9.158
30385WAT     H191397   4.883   7.454   9.061
30385WAT     H291398   4.834   7.340   9.167
30386WAT      O91399   1.374   7.677   5.308
30386WAT     H191400   1.278   7.702   5.318
30386WAT     H291401   1.400   7.680   5.212
30387WAT      O91402   1.661   0.433   1.471
30387WAT     H191403   1.595   0.508   1.476
30387WAT     H291404   1.699   0.415   1.561
30388WAT      O91405   2.745   6.201   3.742
30388WAT     H191406   2.697   6.174   3.826
30388WAT     H291407   2.737   6.300   3.729
30389WAT      O91408   9.565   9.297   3.727
30389WAT     H191409   9.602   9.314   3.818
30389WAT     H291410   9.639   9.299   3.660
30390WAT      O91411   2.819   4.749   2.126
30390WAT     H191412   2.841   4.845   2.144
30390WAT     H291413   2.817   4.699   2.213
30391WAT      O91414   8.809   9.578   6.875
30391WAT     H191415   8.884   9.624   6.827
30391WAT     H291416   8.803   9.613   6.969
30392WAT      O91417   3.633   2.708   6.788
30392WAT     H191418   3.679   2.639   6.733
30392WAT     H291419   3.697   2.743   6.857
30393WAT      O91420   6.166   1.047   4.233
30393WAT     H191421   6.095   1.047   4.303
30393WAT     H291422   6.230   1.122   4.251
30394WAT      O91423   9.894   3.572   0.804
30394WAT     H191424   9.857   3.586   0.896
30394WAT     H291425   9.834   3.616   0.737
30395WAT      O91426   8.564   7.836   2.474
30395WAT     H191427   8.617   7.920   2.473
30395WAT     H291428   8.606   7.770   2.536
30396WAT      O91429   6.314   0.198   7.348
30396WAT     H191430   6.375   0.149   7.285
30396WAT     H291431   6.366   0.267   7.398
30397WAT      O91432   4.986   6.057   7.796
30397WAT     H191433   5.077   6.019   7.779
30397WAT     H291434   4.933   5.992   7.851
30398WAT      O91435   0.581   3.626   0.808
30398WAT     H191436   0.535   3.565   0.742
30398WAT     H291437   0.570   3.721   0.779
30399WAT      O91438   6.051   4.512   3.223
30399WAT     H191439   6.104   4.597   3.220
30399WAT     H291440   6.105   4.438   3.182
30400WAT      O91441   7.230   4.337   7.471
30400WAT     H191442   7.151   4.335   7.532
30400WAT     H291443   7.201   4.313   7.378
30401WAT      O91444   2.226   1.352   3.212
30401WAT     H191445   2.246   1.357   3.114
30401WAT     H291446   2.311   1.360   3.264
30402WAT      O91447   4.161   6.471   0.758
30402WAT     H191448   4.154   6.371   0.761
30402WAT     H291449   4.131   6.503   0.668
30403WAT      O91450   1.276   7.558   4.806
30403WAT     H191451   1.256   7.596   4.896
30403WAT     H291452   1.317   7.467   4.818
30404WAT      O91453   3.881   9.182   3.640
30404WAT     H191454   3.864   9.170   3.542
30404WAT     H291455   3.815   9.248   3.676
30405WAT      O91456   1.046   3.318   1.831
30405WAT     H191457   0.964   3.350   1.879
30405WAT     H291458   1.043   3.348   1.736
30406WAT      O91459   3.764   3.751   2.221
30406WAT     H191460   3.772   3.747   2.321
30406WAT     H291461   3.783   3.660   2.182
30407WAT      O91462   1.125   9.051   1.508
30407WAT     H191463   1.097   9.115   1.580
30407WAT     H291464   1.224   9.054   1.497
30408WAT      O91465   7.921   7.657   3.621
30408WAT     H191466   7.967   7.590   3.679
30408WAT     H291467   7.917   7.745   3.668
30409WAT      O91468   6.058   5.306   8.326
30409WAT     H191469   6.134   5.324   8.264
30409WAT     H291470   6.089   5.316   8.421
30410WAT      O91471   1.214   0.372   0.138
30410WAT     H191472   1.119   0.339   0.143
30410WAT     H291473   1.247   0.365   0.044
30411WAT      O91474   2.702   2.918   5.231
30411WAT     H191475   2.703   2.906   5.131
30411WAT     H291476   2.732   3.011   5.253
30412WAT      O91477   7.591   8.386   0.349
30412WAT     H191478   7.530   8.442   0.405
30412WAT     H291479   7.599   8.295   0.389
30413WAT      O91480   4.619   4.924   6.992
30413WAT     H191481   4.552   4.885   6.929
30413WAT     H291482   4.690   4.857   7.013
30414WAT      O91483   2.486   1.199   9.842
30414WAT     H191484   2.583   1.211   9.864
30414WAT     H291485   2.433   1.273   9.883
30415WAT      O91486   6.191   7.384   8.383
30415WAT     H191487   6.156   7.291   8.380
30415WAT     H291488   6.236   7.405   8.296
30416WAT      O91489   9.333   9.029   2.693
30416WAT     H191490   9.276   9.108   2.670
30416WAT     H291491   9.417   9.060   2.737
30417WAT      O91492   3.722   6.162   2.115
30417WAT     H191493   3.720   6.062   2.109
30417WAT     H291494   3.760   6.199   2.029
30418WAT      O91495   9.783   6.269   3.586
30418WAT     H191496   9.852   6.282   3.657
30418WAT     H291497   9.710   6.209   3.620
30419WAT      O91498   5.221   5.143   6.949
30419WAT     H191499   5.186   5.234   6.972
30419WAT     H291500   5.266   5.146   6.860
30420WAT      O91501   8.982   6.968   1.273
30420WAT     H191502   8.927   6.994   1.352
30420WAT     H291503   9.043   6.893   1.298
30421WAT      O91504   1.131   0.026   9.888
30421WAT     H191505   1.084   0.003   9.973
30421WAT     H291506   1.067   0.068   9.824
30422WAT      O91507   9.644   1.053   2.551
30422WAT     H191508   9.709   1.070   2.477
30422WAT     H291509   9.570   0.996   2.518
30423WAT      O91510   6.054   1.308   8.790
30423WAT     H191511   5.988   1.382   8.794
30423WAT     H291512   6.029   1.237   8.855
30424WAT      O91513   1.990   6.107   2.117
30424WAT     H191514   1.891   6.122   2.107
30424WAT     H291515   2.010   6.078   2.210
30425WAT      O91516   6.392   3.284   1.021
30425WAT     H191517   6.482   3.245   1.044
30425WAT     H291518   6.380   3.370   1.070
30426WAT      O91519   6.383   4.867   2.725
30426WAT     H191520   6.397   4.830   2.817
30426WAT     H291521   6.456   4.835   2.665
30427WAT      O91522   1.994   5.489   7.168
30427WAT     H191523   1.934   5.420   7.128
30427WAT     H291524   1.945   5.576   7.173
30428WAT      O91525   0.536   6.307   0.258
30428WAT     H191526   0.557   6.245   0.182
30428WAT     H291527   0.474   6.378   0.227
30429WAT      O91528   5.650   0.970   6.000
30429WAT     H191529   5.645   0.883   6.049
30429WAT     H291530   5.714   0.962   5.924
30430WAT      O91531   3.837   1.893   1.961
30430WAT     H191532   3.887   1.806   1.953
30430WAT     H291533   3.812   1.925   1.869
30431WAT      O91534   5.710   0.733   5.614
30431WAT     H191535   5.625   0.731   5.667
30431WAT     H291536   5.692   0.771   5.523
30432WAT      O91537   3.057   9.510   9.448
30432WAT     H191538   3.030   9.483   9.541
30432WAT     H291539   2.981   9.494   9.385
30433WAT      O91540   9.028   0.419   7.412
30433WAT     H191541   9.055   0.502   7.362
30433WAT     H291542   8.950   0.377   7.367
30434WAT      O91543   7.113   4.680   7.562
30434WAT     H191544   7.015   4.698   7.550
30434WAT     H291545   7.125   4.605   7.626
30435WAT      O91546   3.006   5.487   9.703
30435WAT     H191547   3.066   5.426   9.755
30435WAT     H291548   3.007   5.578   9.746
30436WAT      O91549   5.080   7.208   3.225
30436WAT     H191550   5.102   7.225   3.321
30436WAT     H291551   5.026   7.284   3.190
30437WAT      O91552   9.347   3.126   8.596
30437WAT     H191553   9.389   3.067   8.528
30437WAT     H291554   9.348   3.220   8.564
30438WAT      O91555   5.912   0.375   6.670
30438WAT     H191556   5.845   0.365   6.598
30438WAT     H291557   5.887   0.453   6.728
30439WAT      O91558   3.404   7.006   2.644
30439WAT     H191559   3.474   7.029   2.575
30439WAT     H291560   3.322   7.061   2.627
30440WAT      O91561   6.761   1.720   3.957
30440WAT     H191562   6.810   1.684   3.877
30440WAT     H291563   6.825   1.733   4.032
30441WAT      O91564   1.753   2.287   2.148
30441WAT     H191565   1.753   2.385   2.171
30441WAT     H291566   1.659   2.255   2.137
30442WAT      O91567   2.256   0.583   6.100
30442WAT     H191568   2.274   0.588   6.002
30442WAT     H291569   2.259   0.487   6.129
30443WAT      O91570   7.818   3.310   9.321
30443WAT     H191571   7.880   3.287   9.396
30443WAT     H291572   7.849   3.265   9.237
30444WAT      O91573   4.800   2.801   8.115
30444WAT     H191574   4.886   2.777   8.161
30444WAT     H291575   4.813   2.793   8.016
30445WAT      O91576   9.807   4.137   9.573
30445WAT     H191577   9.803   4.185   9.485
30445WAT     H291578   9.903   4.132   9.603
30446WAT      O91579   5.575   7.142   0.777
30446WAT     H191580   5.615   7.063   0.732
30446WAT     H291581   5.649   7.202   0.810
30447WAT      O91582   1.021   5.787   2.032
30447WAT     H191583   0.981   5.864   1.983
30447WAT     H291584   1.085   5.822   2.101
30448WAT      O91585   7.673   4.208   1.117
30448WAT     H191586   7.595   4.269   1.103
30448WAT     H291587   7.666   4.164   1.207
30449WAT      O91588   2.205   4.222   7.108
30449WAT     H191589   2.152   4.144   7.075
30449WAT     H291590   2.284   4.237   7.049
30450WAT      O91591   9.043   8.247   0.670
30450WAT     H191592   8.972   8.247   0.600
30450WAT     H291593   9.132   8.232   0.627
30451WAT      O91594   0.934   7.407   5.111
30451WAT     H191595   0.921   7.337   5.181
30451WAT     H291596   0.946   7.363   5.022
30452WAT      O91597   6.523   0.457   3.420
30452WAT     H191598   6.545   0.548   3.386
30452WAT     H291599   6.438   0.425   3.377
30453WAT      O91600   0.411   1.968   9.851
30453WAT     H191601   0.392   2.066   9.853
30453WAT     H291602   0.405   1.931   9.944
30454WAT      O91603   0.724   8.429   6.402
30454WAT     H191604   0.734   8.525   6.377
30454WAT     H291605   0.638   8.416   6.450
30455WAT      O91606   4.993   3.230   6.658
30455WAT     H191607   4.994   3.157   6.726
30455WAT     H291608   5.054   3.206   6.582
30456WAT      O91609   9.372   7.023   6.810
30456WAT     H191610   9.401   7.118   6.794
30456WAT     H291611   9.286   7.006   6.763
30457WAT      O91612   5.179   9.709   4.599
30457WAT     H191613   5.086   9.674   4.592
30457WAT     H291614   5.194   9.776   4.526
30458WAT      O91615   7.842   7.862   9.595
30458WAT     H191616   7.804   7.949   9.562
30458WAT     H291617   7.781   7.787   9.568
30459WAT      O91618   2.656   6.393   2.769
30459WAT     H191619   2.643   6.378   2.671
30459WAT     H291620   2.570   6.380   2.817
30460WAT      O91621   2.202   3.094   2.557
30460WAT     H191622   2.144   3.029   2.604
30460WAT     H291623   2.198   3.078   2.458
30461WAT      O91624   1.379   7.610   6.058
30461WAT     H191625   1.457   7.600   6.120
30461WAT     H291626   1.358   7.706   6.046
30462WAT      O91627   0.460   6.552   0.830
30462WAT     H191628   0.410   6.595   0.754
30462WAT     H291629   0.557   6.544   0.805
30463WAT      O91630   2.627   3.254   8.764
30463WAT     H191631   2.620   3.274   8.862
30463WAT     H291632   2.623   3.155   8.750
30464WAT      O91633   4.329   6.619   1.594
30464WAT     H191634   4.258   6.553   1.573
30464WAT     H291635   4.320   6.699   1.535
30465WAT      O91636   2.129   9.732   7.594
30465WAT     H191637   2.125   9.739   7.495
30465WAT     H291638   2.151   9.822   7.633
30466WAT      O91639   3.405   3.578   8.480
30466WAT     H191640   3.371   3.598   8.572
30466WAT     H291641   3.335   3.602   8.413
30467WAT      O91642   8.272   9.841   6.428
30467WAT     H191643   8.203   9.839   6.356
30467WAT     H291644   8.342   9.772   6.411
30468WAT      O91645   3.680   4.514   3.989
30468WAT     H191646   3.601   4.519   3.928
30468WAT     H291647   3.716   4.420   3.990
30469WAT      O91648   8.106   9.331   0.131
30469WAT     H191649   8.141   9.263   0.196
30469WAT     H291650   8.141   9.421   0.155
30470WAT      O91651   7.120   7.593   7.369
30470WAT     H191652   7.070   7.678   7.388
30470WAT     H291653   7.161   7.558   7.453
30471WAT      O91654   2.218   8.295   5.969
30471WAT     H191655   2.209   8.200   5.999
30471WAT     H291656   2.265   8.348   6.039
30472WAT      O91657   8.714   7.914   4.817
30472WAT     H191658   8.787   7.866   4.770
30472WAT     H291659   8.753   7.985   4.876
30473WAT      O91660   2.387   3.241   1.403
30473WAT     H191661   2.434   3.154   1.418
30473WAT     H291662   2.453   3.309   1.369
30474WAT      O91663   9.498   0.268   4.128
30474WAT     H191664   9.404   0.249   4.100
30474WAT     H291665   9.543   0.183   4.154
30475WAT      O91666   9.404   4.651   9.096
30475WAT     H191667   9.390   4.587   9.021
30475WAT     H291668   9.326   4.713   9.102
30476WAT      O91669   8.665   0.222   8.858
30476WAT     H191670   8.731   0.241   8.785
30476WAT     H291671   8.697   0.145   8.912
30477WAT      O91672   8.649   5.216   3.648
30477WAT     H191673   8.572   5.264   3.605
30477WAT     H291674   8.634   5.117   3.642
30478WAT      O91675   6.686   9.019   4.572
30478WAT     H191676   6.765   8.998   4.629
30478WAT     H291677   6.698   9.108   4.528
30479WAT      O91678   4.092   8.824   3.038
30479WAT     H191679   4.141   8.775   2.965
30479WAT     H291680   4.135   8.912   3.054
30480WAT      O91681   8.143   0.450   5.463
30480WAT     H191682   8.232   0.480   5.496
30480WAT     H291683   8.080   0.440   5.540
30481WAT      O91684   4.117   1.514   0.061
30481WAT     H191685   4.105   1.428   0.111
30481WAT     H291686   4.108   1.591   0.124
30482WAT      O91687   1.034   3.422   2.936
30482WAT     H191688   1.089   3.448   2.857
30482WAT     H291689   0.952   3.479   2.939
30483WAT      O91690   8.137   5.402   8.130
30483WAT     H191691   8.106   5.345   8.054
30483WAT     H291692   8.212   5.356   8.177
30484WAT      O91693   3.505   2.862   1.877
30484WAT     H191694   3.559   2.946   1.876
30484WAT     H291695   3.431   2.870   1.944
30485WAT      O91696   1.046   6.448   3.195
30485WAT     H191697   1.080   6.355   3.179
30485WAT     H291698   1.068   6.476   3.289
30486WAT      O91699   4.813   2.177   6.924
30486WAT     H191700   4.867   2.240   6.980
30486WAT     H291701   4.716   2.192   6.943
30487WAT      O91702   4.065   2.968   5.886
30487WAT     H191703   4.070   3.066   5.904
30487WAT     H291704   4.034   2.953   5.792
30488WAT      O91705   8.001   6.884   3.798
30488WAT     H191706   8.030   6.815   3.732
30488WAT     H291707   8.004   6.975   3.755
30489WAT      O91708   5.841   7.388   5.695
30489WAT     H191709   5.744   7.366   5.686
30489WAT     H291710   5.895   7.305   5.677
30490WAT      O91711   4.955   0.221   1.192
30490WAT     H191712   4.887   0.232   1.265
30490WAT     H291713   5.036   0.176   1.229
30491WAT      O91714   2.460   1.196   0.831
30491WAT     H191715   2.450   1.286   0.789
30491WAT     H291716   2.458   1.205   0.930
30492WAT      O91717   0.214   7.114   4.232
30492WAT     H191718   0.249   7.202   4.264
30492WAT     H291719   0.121   7.100   4.267
30493WAT      O91720   3.803   3.489   8.058
30493WAT     H191721   3.830   3.483   8.154
30493WAT     H291722   3.713   3.448   8.046
30494WAT      O91723   8.041   7.010   0.277
30494WAT     H191724   7.950   6.969   0.280
30494WAT     H291725   8.045   7.078   0.203
30495WAT      O91726   9.575   2.023   0.366
30495WAT     H191727   9.485   2.014   0.324
30495WAT     H291728   9.619   1.934   0.373
30496WAT      O91729   2.793   8.909   5.319
30496WAT     H191730   2.783   8.811   5.337
30496WAT     H291731   2.761   8.930   5.227
30497WAT      O91732   0.559   0.615   9.646
30497WAT     H191733   0.574   0.520   9.619
30497WAT     H291734   0.486   0.619   9.715
30498WAT      O91735   0.005   9.371   4.326
30498WAT     H191736  -0.079   9.406   4.286
30498WAT     H291737   0.031   9.429   4.404
30499WAT      O91738   6.492   7.101   2.260
30499WAT     H191739   6.526   7.174   2.320
30499WAT     H291740   6.451   7.142   2.179
30500WAT      O91741   4.921   5.796   6.826
30500WAT     H191742   4.881   5.719   6.876
30500WAT     H291743   4.916   5.878   6.882
30501WAT      O91744   7.964   2.921   5.183
30501WAT     H191745   7.898   2.847   5.170
30501WAT     H291746   7.925   2.991   5.242
30502WAT      O91747   5.227   3.608   9.478
30502WAT     H191748   5.273   3.648   9.557
30502WAT     H291749   5.244   3.510   9.476
30503WAT      O91750   2.401   0.534   8.891
30503WAT     H191751   2.479   0.577   8.936
30503WAT     H291752   2.324   0.531   8.954
30504WAT      O91753   2.849   9.649   8.430
30504WAT     H191754   2.775   9.661   8.363
30504WAT     H291755   2.934   9.626   8.382
30505WAT      O91756   1.494   7.920   4.903
30505WAT     H191757   1.570   7.959   4.955
30505WAT     H291758   1.427   7.991   4.884
30506WAT      O91759   5.152   1.057   2.068
30506WAT     H191760   5.231   1.118   2.052
30506WAT     H291761   5.086   1.068   1.994
30507WAT      O91762   4.137   0.572   8.710
30507WAT     H191763   4.072   0.643   8.682
30507WAT     H291764   4.103   0.526   8.792
30508WAT      O91765   9.875   9.053   2.892
30508WAT     H191766   9.903   9.149   2.892
30508WAT     H291767   9.807   9.038   2.820
30509WAT      O91768   3.371   4.965   7.220
30509WAT     H191769   3.313   4.886   7.201
30509WAT     H291770   3.318   5.033   7.271
30510WAT      O91771   3.276   4.678   0.209
30510WAT     H191772   3.325   4.761   0.237
30510WAT     H291773   3.235   4.635   0.289
30511WAT      O91774   8.474   0.445   9.037
30511WAT     H191775   8.384   0.400   9.033
30511WAT     H291776   8.537   0.398   8.975
30512WAT      O91777   1.889   4.570   1.000
30512WAT     H191778   1.892   4.471   1.010
30512WAT     H291779   1.806   4.606   1.045
30513WAT      O91780   4.252   0.132   4.149
30513WAT     H191781   4.231   0.055   4.088
30513WAT     H291782   4.259   0.216   4.096
30514WAT      O91783   4.509   2.185   3.317
30514WAT     H191784   4.531   2.282   3.305
30514WAT     H291785   4.578   2.142   3.374
30515WAT      O91786   2.354   1.862   0.714
30515WAT     H191787   2.391   1.777   0.677
30515WAT     H291788   2.262   1.877   0.678
30516WAT      O91789   0.916   3.235   7.225
30516WAT     H191790   0.878   3.255   7.315
30516WAT     H291791   1.011   3.204   7.235
30517WAT      O91792   8.848   2.205   4.613
30517WAT     H191793   8.806   2.131   4.561
30517WAT     H291794   8.947   2.191   4.617
30518WAT      O91795   0.751   0.666   5.939
30518WAT     H191796   0.800   0.753   5.932
30518WAT     H291797   0.816   0.593   5.959
30519WAT      O91798   4.165   3.592   1.760
30519WAT     H191799   4.125   3.508   1.796
30519WAT     H291800   4.261   3.597   1.787
30520WAT      O91801   8.971   5.055   9.595
30520WAT     H191802   8.988   5.007   9.509
30520WAT     H291803   9.015   5.145   9.593
30521WAT      O91804   0.111   6.243   0.176
30521WAT     H191805   0.137   6.238   0.080
30521WAT     H291806   0.012   6.234   0.185
30522WAT      O91807   9.251   3.481   5.144
30522WAT     H191808   9.277   3.535   5.064
30522WAT     H291809   9.224   3.389   5.115
30523WAT      O91810   1.550   5.510   6.527
30523WAT     H191811   1.485   5.579   6.559
30523WAT     H291812   1.533   5.491   6.431
30524WAT      O91813   4.397   2.518   0.975
30524WAT     H191814   4.299   2.504   0.963
30524WAT     H291815   4.413   2.600   1.029
30525WAT      O91816   7.694   6.152   4.591
30525WAT     H191817   7.768   6.176   4.527
30525WAT     H291818   7.606   6.168   4.547
30526WAT      O91819   2.217   5.786   7.711
30526WAT     H191820   2.202   5.829   7.623
30526WAT     H291821   2.132   5.786   7.764
30527WAT      O91822   1.076   3.079   1.728
30527WAT     H191823   1.107   3.119   1.642
30527WAT     H291824   1.049   3.152   1.791
30528WAT      O91825   9.031   7.932   3.837
30528WAT     H191826   9.104   7.937   3.768
30528WAT     H291827   8.984   7.844   3.829
30529WAT      O91828   8.334   2.788   3.270
30529WAT     H191829   8.287   2.752   3.190
30529WAT     H291830   8.338   2.888   3.265
30530WAT      O91831   0.880   9.006   3.440
30530WAT     H191832   0.841   9.058   3.365
30530WAT     H291833   0.809   8.985   3.507
30531WAT      O91834   6.053   4.309   2.097
30531WAT     H191835   6.002   4.374   2.153
30531WAT     H291836   6.094   4.240   2.156
30532WAT      O91837   8.937   8.829   1.161
30532WAT     H191838   8.876   8.849   1.085
30532WAT     H291839   9.016   8.890   1.157
30533WAT      O91840   0.180   0.986   7.277
30533WAT     H191841   0.173   0.907   7.337
30533WAT     H291842   0.232   1.058   7.322
30534WAT      O91843   8.921   2.636   3.602
30534WAT     H191844   8.984   2.625   3.679
30534WAT     H291845   8.882   2.728   3.602
30535WAT      O91846   2.217   9.582   0.679
30535WAT     H191847   2.123   9.553   0.695
30535WAT     H291848   2.254   9.624   0.762
30536WAT      O91849   3.512   5.578   8.676
30536WAT     H191850   3.418   5.611   8.665
30536WAT     H291851   3.525   5.495   8.621
30537WAT      O91852   4.841   5.111   1.219
30537WAT     H191853   4.916   5.061   1.262
30537WAT     H291854   4.756   5.095   1.269
30538WAT      O91855   7.958   3.224   7.313
30538WAT     H191856   7.954   3.169   7.396
30538WAT     H291857   7.914   3.312   7.330
30539WAT      O91858   5.686   9.153   7.479
30539WAT     H191859   5.760   9.218   7.464
30539WAT     H291860   5.604   9.184   7.431
30540WAT      O91861   6.754   7.409   4.445
30540WAT     H191862   6.783   7.358   4.526
30540WAT     H291863   6.730   7.502   4.472
30541WAT      O91864   2.558   0.637   5.528
30541WAT     H191865   2.527   0.620   5.621
30541WAT     H291866   2.496   0.702   5.484
30542WAT      O91867   3.293   7.041   4.392
30542WAT     H191868   3.269   7.047   4.489
30542WAT     H291869   3.365   7.107   4.371
30543WAT      O91870   2.389   8.930   8.879
30543WAT     H191871   2.482   8.965   8.882
30543WAT     H291872   2.385   8.849   8.820
30544WAT      O91873   3.427   3.475   7.252
30544WAT     H191874   3.398   3.502   7.160
30544WAT     H291875   3.454   3.556   7.304
30545WAT      O91876   9.749   8.514   4.861
30545WAT     H191877   9.837   8.466   4.870
30545WAT     H291878   9.749   8.567   4.777
30546WAT      O91879   0.207   2.216   3.061
30546WAT     H191880   0.225   2.311   3.087
30546WAT     H291881   0.134   2.179   3.119
30547WAT      O91882   4.469   2.847   9.338
30547WAT     H191883   4.426   2.887   9.257
30547WAT     H291884   4.567   2.871   9.338
30548WAT      O91885   5.018   6.934   0.191
30548WAT     H191886   5.065   6.968   0.109
30548WAT     H291887   5.020   6.834   0.191
30549WAT      O91888   0.861   5.184   0.251
30549WAT     H191889   0.839   5.266   0.304
30549WAT     H291890   0.897   5.210   0.162
30550WAT      O91891   4.696   9.056   1.453
30550WAT     H191892   4.762   9.122   1.416
30550WAT     H291893   4.706   8.969   1.405
30551WAT      O91894   7.994   7.872   1.696
30551WAT     H191895   8.017   7.952   1.641
30551WAT     H291896   8.049   7.872   1.779
30552WAT      O91897   7.763   3.498   3.813
30552WAT     H191898   7.663   3.502   3.817
30552WAT     H291899   7.791   3.414   3.767
30553WAT      O91900   2.785   5.133   6.825
30553WAT     H191901   2.815   5.200   6.892
30553WAT     H291902   2.691   5.104   6.847
30554WAT      O91903   2.804   7.591   2.987
30554WAT     H191904   2.875   7.591   3.058
30554WAT     H291905   2.836   7.537   2.909
30555WAT      O91906   5.445   1.169   5.666
30555WAT     H191907   5.372   1.235   5.684
30555WAT     H291908   5.413   1.101   5.599
30556WAT      O91909   6.466   0.279   0.668
30556WAT     H191910   6.531   0.205   0.685
30556WAT     H291911   6.403   0.251   0.595
30557WAT      O91912   2.139   0.100   3.072
30557WAT     H191913   2.179   0.106   3.164
30557WAT     H291914   2.049   0.055   3.078
30558WAT      O91915   7.830   0.400   6.579
30558WAT     H191916   7.913   0.364   6.621
30558WAT     H291917   7.839   0.499   6.567
30559WAT      O91918   0.589   1.031   5.787
30559WAT     H191919   0.553   1.078   5.868
30559WAT     H291920   0.676   1.073   5.762
30560WAT      O91921   1.155   5.787   1.787
30560WAT     H191922   1.099   5.779   1.869
30560WAT     H291923   1.095   5.789   1.706
30561WAT      O91924   6.104   0.848   6.342
30561WAT     H191925   6.180   0.911   6.357
30561WAT     H291926   6.040   0.888   6.277
30562WAT      O91927   7.415   8.743   1.447
30562WAT     H191928   7.499   8.797   1.447
30562WAT     H291929   7.376   8.741   1.539
30563WAT      O91930   9.120   1.930   6.213
30563WAT     H191931   9.186   1.875   6.161
30563WAT     H291932   9.094   1.880   6.296
30564WAT      O91933   2.553   2.256   3.606
30564WAT     H191934   2.581   2.160   3.600
30564WAT     H291935   2.458   2.265   3.578
30565WAT      O91936   3.232   8.191   8.729
30565WAT     H191937   3.247   8.239   8.816
30565WAT     H291938   3.236   8.092   8.744
30566WAT      O91939   9.441   8.133   4.453
30566WAT     H191940   9.418   8.045   4.495
30566WAT     H291941   9.358   8.190   4.447
30567WAT      O91942   8.586   8.645   2.737
30567WAT     H191943   8.680   8.611   2.744
30567WAT     H291944   8.585   8.744   2.753
30568WAT      O91945   5.008   0.549   6.944
30568WAT     H191946   4.950   0.470   6.926
30568WAT     H291947   4.954   0.622   6.984
30569WAT      O91948   2.422   7.249   9.564
30569WAT     H191949   2.469   7.318   9.618
30569WAT     H291950   2.342   7.217   9.614
30570WAT      O91951   8.193   6.380   4.834
30570WAT     H191952   8.216   6.448   4.903
30570WAT     H291953   8.133   6.421   4.765
30571WAT      O91954   9.413   1.940   1.528
30571WAT     H191955   9.457   1.984   1.450
30571WAT     H291956   9.473   1.945   1.608
30572WAT      O91957   7.631   5.017   0.092
30572WAT     H191958   7.597   4.928   0.061
30572WAT     H291959   7.720   5.006   0.137
30573WAT      O91960   8.140   8.541   5.095
30573WAT     H191961   8.040   8.546   5.094
30573WAT     H291962   8.173   8.556   5.189
30574WAT      O91963   1.559   2.474   8.385
30574WAT     H191964   1.548   2.551   8.323
30574WAT     H291965   1.472   2.427   8.396
30575WAT      O91966   8.132   5.245   0.824
30575WAT     H191967   8.231   5.236   0.834
30575WAT     H291968   8.100   5.325   0.876
30576WAT      O91969   2.521   5.553   8.506
30576WAT     H191970   2.447   5.501   8.463
30576WAT     H291971   2.533   5.640   8.460
30577WAT      O91972   1.351   4.806   7.962
30577WAT     H191973   1.308   4.735   7.906
30577WAT     H291974   1.297   4.820   8.045
30578WAT      O91975   2.637   0.199   7.717
30578WAT     H191976   2.693   0.237   7.790
30578WAT     H291977   2.637   0.099   7.723
30579WAT      O91978   4.236   1.847   6.514
30579WAT     H191979   4.137   1.850   6.499
30579WAT     H291980   4.261   1.763   6.561
30580WAT      O91981   3.676   0.152   0.796
30580WAT     H191982   3.630   0.165   0.883
30580WAT     H291983   3.773   0.135   0.812
30581WAT      O91984   1.949   7.831   0.721
30581WAT     H191985   1.997   7.889   0.786
30581WAT     H291986   2.013   7.801   0.650
30582WAT      O91987   3.910   3.556   8.384
30582WAT     H191988   3.944   3.637   8.336
30582WAT     H291989   3.914   3.572   8.483
30583WAT      O91990   6.081   5.186   0.674
30583WAT     H191991   6.114   5.257   0.736
30583WAT     H291992   6.076   5.223   0.581
30584WAT      O91993   8.201   8.157   9.626
30584WAT     H191994   8.188   8.245   9.672
30584WAT     H291995   8.158   8.159   9.536
30585WAT      O91996   1.493   7.712   3.990
30585WAT     H191997   1.498   7.695   3.891
30585WAT     H291998   1.499   7.626   4.039
30586WAT      O91999   0.734   8.049   0.945
30586WAT     H192000   0.763   7.981   1.012
30586WAT     H292001   0.636   8.039   0.927
30587WAT      O92002   8.039   2.656   2.833
30587WAT     H192003   8.062   2.691   2.742
30587WAT     H292004   8.124   2.638   2.884
30588WAT      O92005   2.357   3.771   3.145
30588WAT     H192006   2.339   3.865   3.175
30588WAT     H292007   2.424   3.773   3.070
30589WAT      O92008   8.805   3.295   7.807
30589WAT     H192009   8.888   3.351   7.807
30589WAT     H292010   8.829   3.200   7.786
30590WAT      O92011   9.377   0.926   2.579
30590WAT     H192012   9.367   0.902   2.482
30590WAT     H292013   9.355   0.847   2.636
30591WAT      O92014   5.627   6.334   7.189
30591WAT     H192015   5.709   6.318   7.135
30591WAT     H292016   5.569   6.252   7.187
30592WAT      O92017   2.154   0.603   6.951
30592WAT     H192018   2.143   0.675   6.883
30592WAT     H292019   2.068   0.553   6.962
30593WAT      O92020   1.392   5.951   3.279
30593WAT     H192021   1.304   5.947   3.232
30593WAT     H292022   1.392   5.885   3.354
30594WAT      O92023   4.815   3.922   7.362
30594WAT     H192024   4.875   3.928   7.442
30594WAT     H292025   4.824   3.832   7.320
30595WAT      O92026   0.702   5.399   4.432
30595WAT     H192027   0.741   5.485   4.464
30595WAT     H292028   0.772   5.327   4.435
30596WAT      O92029   5.507   8.455   6.215
30596WAT     H192030   5.468   8.544   6.239
30596WAT     H292031   5.595   8.468   6.169
30597WAT      O92032   6.277   9.347   9.665
30597WAT     H192033   6.312   9.403   9.740
30597WAT     H292034   6.311   9.253   9.676
30598WAT      O92035   8.604   6.574   3.987
30598WAT     H192036   8.511   6.572   4.023
30598WAT     H292037   8.602   6.567   3.888
30599WAT      O92038   8.351   0.243   2.199
30599WAT     H192039   8.428   0.191   2.237
30599WAT     H292040   8.312   0.194   2.121
30600WAT      O92041   6.611   1.709   2.161
30600WAT     H192042   6.580   1.765   2.084
30600WAT     H292043   6.615   1.766   2.244
30601WAT      O92044   7.879   2.818   8.435
30601WAT     H192045   7.920   2.772   8.356
30601WAT     H292046   7.923   2.907   8.447
30602WAT      O92047   2.086   3.009   6.258
30602WAT     H192048   2.102   3.015   6.356
30602WAT     H292049   2.174   2.997   6.210
30603WAT      O92050   6.775   1.829   7.880
30603WAT     H192051   6.734   1.872   7.799
30603WAT     H292052   6.837   1.893   7.924
30604WAT      O92053   2.371   4.836   2.299
30604WAT     H192054   2.441   4.765   2.289
30604WAT     H292055   2.391   4.911   2.235
30605WAT      O92056   0.411   3.873   8.800
30605WAT     H192057   0.463   3.886   8.715
30605WAT     H292058   0.425   3.952   8.860
30606WAT      O92059   4.268   6.781   7.870
30606WAT     H192060   4.320   6.844   7.928
30606WAT     H292061   4.185   6.827   7.837
30607WAT      O92062   0.461   9.774   8.066
30607WAT     H192063   0.483   9.705   7.997
30607WAT     H292064   0.497   9.863   8.037
30608WAT      O92065   7.594   0.722   8.428
30608WAT     H192066   7.664   0.791   8.445
30608WAT     H292067   7.553   0.694   8.515
30609WAT      O92068   2.525   7.650   3.113
30609WAT     H192069   2.470   7.570   3.089
30609WAT     H292070   2.616   7.642   3.072
30610WAT      O92071   1.020   1.727   2.961
30610WAT     H192072   1.070   1.645   2.933
30610WAT     H292073   0.923   1.717   2.936
30611WAT      O92074   6.936   9.251   9.349
30611WAT     H192075   7.025   9.282   9.316
30611WAT     H292076   6.863   9.297   9.298
30612WAT      O92077   6.978   2.493   8.672
30612WAT     H192078   6.923   2.545   8.606
30612WAT     H292079   6.925   2.416   8.706
30613WAT      O92080   1.322   5.396   7.919
30613WAT     H192081   1.359   5.323   7.976
30613WAT     H292082   1.224   5.382   7.906
30614WAT      O92083   4.586   2.464   8.571
30614WAT     H192084   4.521   2.535   8.544
30614WAT     H292085   4.574   2.384   8.513
30615WAT      O92086   7.103   4.020   1.286
30615WAT     H192087   7.005   4.026   1.264
30615WAT     H292088   7.133   3.925   1.278
30616WAT      O92089   1.912   4.186   2.181
30616WAT     H192090   2.002   4.229   2.192
30616WAT     H292091   1.923   4.087   2.177
30617WAT      O92092   5.968   7.217   1.571
30617WAT     H192093   5.933   7.125   1.587
30617WAT     H292094   5.915   7.283   1.624
30618WAT      O92095   4.738   0.148   7.720
30618WAT     H192096   4.772   0.081   7.786
30618WAT     H292097   4.697   0.225   7.769
30619WAT      O92098   4.611   3.949   1.140
30619WAT     H192099   4.621   3.951   1.239
30619WAT     H292100   4.514   3.955   1.116
30620WAT      O92101   0.915   5.939   7.401
30620WAT     H192102   1.012   5.950   7.422
30620WAT     H292103   0.904   5.867   7.333
30621WAT      O92104   7.613   0.400   6.996
30621WAT     H192105   7.667   0.446   7.067
30621WAT     H292106   7.647   0.428   6.906
30622WAT      O92107   9.574   2.186   5.045
30622WAT     H192108   9.583   2.282   5.072
30622WAT     H292109   9.661   2.139   5.060
30623WAT      O92110   3.941   1.131   7.080
30623WAT     H192111   3.868   1.199   7.077
30623WAT     H292112   3.921   1.058   7.014
30624WAT      O92113   2.285   6.333   2.180
30624WAT     H192114   2.297   6.282   2.266
30624WAT     H292115   2.331   6.421   2.187
30625WAT      O92116   3.000   5.012   5.700
30625WAT     H192117   3.060   4.964   5.636
30625WAT     H292118   3.048   5.025   5.787
30626WAT      O92119   3.171   8.763   1.926
30626WAT     H192120   3.120   8.821   1.990
30626WAT     H292121   3.173   8.806   1.836
30627WAT      O92122   6.491   0.369   8.430
30627WAT     H192123   6.395   0.348   8.447
30627WAT     H292124   6.546   0.339   8.508
30628WAT      O92125   6.810   3.167   3.586
30628WAT     H192126   6.873   3.243   3.571
30628WAT     H292127   6.741   3.193   3.654
30629WAT      O92128   5.166   9.152   1.566
30629WAT     H192129   5.155   9.064   1.612
30629WAT     H292130   5.093   9.214   1.596
30630WAT      O92131   9.707   5.645   5.644
30630WAT     H192132   9.694   5.556   5.688
30630WAT     H292133   9.669   5.717   5.702
30631WAT      O92134   2.426   5.932   7.141
30631WAT     H192135   2.414   6.029   7.120
30631WAT     H292136   2.381   5.911   7.228
30632WAT      O92137   1.872   3.313   0.137
30632WAT     H192138   1.813   3.260   0.076
30632WAT     H292139   1.905   3.253   0.211
30633WAT      O92140   9.740   4.729   8.086
30633WAT     H192141   9.795   4.770   8.014
30633WAT     H292142   9.723   4.796   8.157
30634WAT      O92143   7.997   9.222   9.304
30634WAT     H192144   7.950   9.263   9.382
30634WAT     H292145   7.935   9.218   9.226
30635WAT      O92146   6.845   7.712   1.598
30635WAT     H192147   6.940   7.687   1.617
30635WAT     H292148   6.799   7.636   1.553
30636WAT      O92149   8.617   3.086   9.724
30636WAT     H192150   8.566   2.999   9.723
30636WAT     H292151   8.603   3.133   9.637
30637WAT      O92152   4.437   5.430   2.113
30637WAT     H192153   4.434   5.425   2.014
30637WAT     H292154   4.527   5.401   2.145
30638WAT      O92155   5.831   4.723   3.535
30638WAT     H192156   5.837   4.812   3.490
30638WAT     H292157   5.857   4.732   3.631
30639WAT      O92158   5.514   4.512   7.738
30639WAT     H192159   5.440   4.574   7.765
30639WAT     H292160   5.554   4.543   7.652
30640WAT      O92161   7.023   2.782   4.422
30640WAT     H192162   6.967   2.736   4.491
30640WAT     H292163   7.096   2.833   4.466
30641WAT      O92164   1.986   5.751   7.864
30641WAT     H192165   1.913   5.818   7.879
30641WAT     H292166   1.980   5.678   7.932
30642WAT      O92167   4.768   6.305   8.712
30642WAT     H192168   4.807   6.386   8.754
30642WAT     H292169   4.811   6.289   8.623
30643WAT      O92170   6.904   2.236   5.801
30643WAT     H192171   6.954   2.157   5.765
30643WAT     H292172   6.947   2.320   5.767
30644WAT      O92173   2.183   1.521   8.304
30644WAT     H192174   2.198   1.618   8.287
30644WAT     H292175   2.088   1.505   8.332
30645WAT      O92176   3.252   0.259   4.785
30645WAT     H192177   3.167   0.223   4.745
30645WAT     H292178   3.291   0.327   4.724
30646WAT      O92179   6.877   7.209   7.825
30646WAT     H192180   6.796   7.266   7.838
30646WAT     H292181   6.894   7.156   7.908
30647WAT      O92182   0.349   6.562   6.155
30647WAT     H192183   0.332   6.517   6.242
30647WAT     H292184   0.444   6.593   6.151
30648WAT      O92185   3.866   9.062   0.970
30648WAT     H192186   3.943   9.116   1.006
30648WAT     H292187   3.875   9.054   0.871
30649WAT      O92188   5.965   6.588   9.588
30649WAT     H192189   6.045   6.554   9.540
30649WAT     H292190   5.985   6.676   9.629
30650WAT      O92191   0.130   2.223   1.952
30650WAT     H192192   0.052   2.160   1.963
30650WAT     H292193   0.110   2.308   2.000
30651WAT      O92194   4.048   3.768   9.611
30651WAT     H192195   3.957   3.744   9.577
30651WAT     H292196   4.117   3.707   9.571
30652WAT      O92197   6.591   1.359   5.262
30652WAT     H192198   6.591   1.363   5.361
30652WAT     H292199   6.598   1.452   5.224
30653WAT      O92200   5.676   4.013   0.889
30653WAT     H192201   5.697   4.102   0.929
30653WAT     H292202   5.604   3.968   0.942
30654WAT      O92203   5.726   4.882   7.923
30654WAT     H192204   5.660   4.812   7.952
30654WAT     H292205   5.761   4.930   8.004
30655WAT      O92206   6.336   7.642   8.705
30655WAT     H192207   6.358   7.552   8.743
30655WAT     H292208   6.418   7.698   8.702
30656WAT      O92209   9.192   3.735   2.815
30656WAT     H192210   9.193   3.713   2.912
30656WAT     H292211   9.265   3.801   2.794
30657WAT      O92212   7.255   5.940   6.239
30657WAT     H192213   7.250   5.840   6.235
30657WAT     H292214   7.273   5.975   6.147
30658WAT      O92215   7.657   7.973   7.221
30658WAT     H192216   7.560   7.956   7.236
30658WAT     H292217   7.709   7.892   7.248
30659WAT      O92218   9.053   1.389   6.421
30659WAT     H192219   8.955   1.377   6.409
30659WAT     H292220   9.088   1.450   6.349
30660WAT      O92221   5.978   3.480   9.327
30660WAT     H192222   6.067   3.473   9.281
30660WAT     H292223   5.993   3.509   9.422
30661WAT      O92224   7.974   8.528   7.794
30661WAT     H192225   7.919   8.445   7.781
30661WAT     H292226   7.960   8.563   7.887
30662WAT      O92227   3.552   9.297   9.006
30662WAT     H192228   3.519   9.310   8.913
30662WAT     H292229   3.632   9.355   9.023
30663WAT      O92230   2.948   3.575   9.164
30663WAT     H192231   2.870   3.587   9.225
30663WAT     H292232   2.994   3.663   9.151
30664WAT      O92233   8.481   6.480   4.958
30664WAT     H192234   8.518   6.390   4.979
30664WAT     H292235   8.413   6.505   5.026
30665WAT      O92236   3.439   8.992   5.600
30665WAT     H192237   3.417   8.958   5.691
30665WAT     H292238   3.446   8.915   5.537
30666WAT      O92239   1.060   5.324   4.863
30666WAT     H192240   1.037   5.421   4.868
30666WAT     H292241   0.977   5.269   4.878
30667WAT      O92242   1.890   7.736   2.514
30667WAT     H192243   1.873   7.687   2.600
30667WAT     H292244   1.843   7.690   2.439
30668WAT      O92245   4.627   9.751   2.599
30668WAT     H192246   4.552   9.702   2.643
30668WAT     H292247   4.706   9.754   2.661
30669WAT      O92248   7.308   1.367   3.032
30669WAT     H192249   7.402   1.334   3.044
30669WAT     H292250   7.309   1.449   2.974
30670WAT      O92251   7.915   8.991   2.509
30670WAT     H192252   7.930   8.955   2.601
30670WAT     H292253   7.871   8.921   2.452
30671WAT      O92254   8.111   9.111   7.739
30671WAT     H192255   8.090   9.055   7.819
30671WAT     H292256   8.035   9.173   7.721
30672WAT      O92257   0.028   8.929   4.104
30672WAT     H192258   0.127   8.943   4.114
30672WAT     H292259   0.010   8.831   4.096
30673WAT      O92260   3.142   3.649   9.804
30673WAT     H192261   3.067   3.714   9.807
30673WAT     H292262   3.133   3.584   9.879
30674WAT      O92263   0.185   6.330   0.442
30674WAT     H192264   0.200   6.307   0.346
30674WAT     H292265   0.100   6.381   0.451
30675WAT      O92266   1.456   7.116   3.671
30675WAT     H192267   1.370   7.065   3.678
30675WAT     H292268   1.526   7.070   3.725
30676WAT      O92269   2.485   8.496   6.930
30676WAT     H192270   2.519   8.413   6.974
30676WAT     H292271   2.449   8.558   6.999
30677WAT      O92272   3.666   8.583   8.742
30677WAT     H192273   3.649   8.649   8.668
30677WAT     H292274   3.614   8.499   8.725
30678WAT      O92275   8.362   8.999   8.931
30678WAT     H192276   8.287   8.995   8.865
30678WAT     H292277   8.336   9.059   9.007
30679WAT      O92278   2.594   4.781   3.797
30679WAT     H192279   2.575   4.781   3.699
30679WAT     H292280   2.686   4.746   3.814
30680WAT      O92281   3.186   6.465   6.341
30680WAT     H192282   3.171   6.470   6.440
30680WAT     H292283   3.198   6.369   6.314
30681WAT      O92284   0.378   5.041   6.136
30681WAT     H192285   0.278   5.044   6.148
30681WAT     H292286   0.415   4.962   6.185
30682WAT      O92287   5.512   3.647   0.508
30682WAT     H192288   5.597   3.594   0.506
30682WAT     H292289   5.533   3.742   0.528
30683WAT      O92290   3.481   8.126   0.360
30683WAT     H192291   3.510   8.033   0.381
30683WAT     H292292   3.434   8.128   0.272
30684WAT      O92293   4.667   9.182   8.663
30684WAT     H192294   4.579   9.229   8.674
30684WAT     H292295   4.737   9.249   8.638
30685WAT      O92296   3.876   4.189   3.561
30685WAT     H192297   3.906   4.104   3.604
30685WAT     H292298   3.911   4.193   3.467
30686WAT      O92299   3.322   4.090   6.383
30686WAT     H192300   3.245   4.027   6.380
30686WAT     H292301   3.292   4.178   6.418
30687WAT      O92302   8.914   3.617   9.511
30687WAT     H192303   8.841   3.583   9.452
30687WAT     H292304   9.003   3.592   9.472
30688WAT      O92305   5.936   4.719   5.005
30688WAT     H192306   5.925   4.788   4.933
30688WAT     H292307   5.888   4.636   4.978
30689WAT      O92308   8.084   4.130   9.573
30689WAT     H192309   8.077   4.119   9.673
30689WAT     H292310   7.993   4.125   9.533
30690WAT      O92311   3.701   4.316   6.907
30690WAT     H192312   3.740   4.362   6.987
30690WAT     H292313   3.646   4.381   6.855
30691WAT      O92314   4.346   4.458   2.378
30691WAT     H192315   4.294   4.424   2.299
30691WAT     H292316   4.364   4.382   2.441
30692WAT      O92317   9.771   4.511   9.130
30692WAT     H192318   9.804   4.455   9.054
30692WAT     H292319   9.730   4.595   9.095
30693WAT      O92320   7.550   3.009   7.979
30693WAT     H192321   7.594   2.919   7.989
30693WAT     H292322   7.464   3.010   8.030
30694WAT      O92323   0.639   9.207   4.876
30694WAT     H192324   0.555   9.202   4.822
30694WAT     H292325   0.698   9.128   4.854
30695WAT      O92326   0.305   3.493   8.727
30695WAT     H192327   0.384   3.442   8.692
30695WAT     H292328   0.331   3.539   8.812
30696WAT      O92329   4.565   5.694   1.084
30696WAT     H192330   4.509   5.760   1.034
30696WAT     H292331   4.586   5.616   1.026
30697WAT      O92332   8.516   2.703   5.188
30697WAT     H192333   8.595   2.641   5.190
30697WAT     H292334   8.543   2.792   5.226
30698WAT      O92335   9.689   7.120   3.469
30698WAT     H192336   9.608   7.111   3.411
30698WAT     H292337   9.734   7.030   3.477
30699WAT      O92338   5.208   8.766   3.281
30699WAT     H192339   5.145   8.720   3.219
30699WAT     H292340   5.242   8.849   3.238
30700WAT      O92341   4.020   2.709   2.219
30700WAT     H192342   4.082   2.707   2.297
30700WAT     H292343   3.949   2.639   2.229
30701WAT      O92344   9.193   2.132   8.531
30701WAT     H192345   9.259   2.068   8.571
30701WAT     H292346   9.242   2.207   8.488
30702WAT      O92347   8.286   0.076   1.990
30702WAT     H192348   8.260   0.007   2.057
30702WAT     H292349   8.384   0.069   1.970
30703WAT      O92350   9.654   5.017   5.193
30703WAT     H192351   9.554   5.026   5.196
30703WAT     H292352   9.678   4.932   5.147
30704WAT      O92353   9.840   2.213   3.618
30704WAT     H192354   9.745   2.185   3.611
30704WAT     H292355   9.896   2.156   3.558
30705WAT      O92356   5.340   7.608   9.168
30705WAT     H192357   5.295   7.519   9.180
30705WAT     H292358   5.412   7.599   9.098
30706WAT      O92359   6.887   4.422   8.844
30706WAT     H192360   6.844   4.363   8.913
30706WAT     H292361   6.862   4.517   8.861
30707WAT      O92362   8.497   5.164   1.029
30707WAT     H192363   8.596   5.170   1.014
30707WAT     H292364   8.450   5.224   0.964
30708WAT      O92365   6.759   7.972   5.767
30708WAT     H192366   6.722   8.018   5.686
30708WAT     H292367   6.737   8.026   5.848
30709WAT      O92368   5.409   0.855   6.196
30709WAT     H192369   5.473   0.829   6.268
30709WAT     H292370   5.334   0.909   6.236
30710WAT      O92371   5.131   7.616   4.355
30710WAT     H192372   5.047   7.565   4.378
30710WAT     H292373   5.155   7.675   4.432
30711WAT      O92374   6.232   8.961   5.608
30711WAT     H192375   6.149   9.015   5.618
30711WAT     H292376   6.311   9.022   5.605
30712WAT      O92377   8.801   2.907   7.331
30712WAT     H192378   8.895   2.942   7.333
30712WAT     H292379   8.737   2.983   7.329
30713WAT      O92380   3.635   1.737   6.002
30713WAT     H192381   3.597   1.799   6.070
30713WAT     H292382   3.727   1.710   6.029
30714WAT      O92383   9.440   1.818   1.982
30714WAT     H192384   9.398   1.780   2.065
30714WAT     H292385   9.497   1.748   1.939
30715WAT      O92386   6.744   4.813   8.644
30715WAT     H192387   6.703   4.898   8.678
30715WAT     H292388   6.806   4.835   8.569
30716WAT      O92389   6.537   4.449   5.461
30716WAT     H192390   6.589   4.496   5.390
30716WAT     H292391   6.595   4.384   5.508
30717WAT      O92392   6.898   3.648   5.961
30717WAT     H192393   6.913   3.562   5.912
30717WAT     H292394   6.922   3.725   5.902
30718WAT      O92395   9.207   1.799   9.144
30718WAT     H192396   9.232   1.762   9.233
30718WAT     H292397   9.153   1.731   9.093
30719WAT      O92398   0.750   7.849   6.346
30719WAT     H192399   0.651   7.839   6.354
30719WAT     H292400   0.771   7.918   6.277
30720WAT      O92401   3.805   0.844   7.119
30720WAT     H192402   3.836   0.893   7.037
30720WAT     H292403   3.741   0.902   7.170
30721WAT      O92404   2.294   0.869   5.323
30721WAT     H192405   2.213   0.926   5.308
30721WAT     H292406   2.292   0.833   5.417
30722WAT      O92407   4.200   4.637   2.741
30722WAT     H192408   4.122   4.674   2.690
30722WAT     H292409   4.192   4.663   2.837
30723WAT      O92410   4.202   5.512   4.191
30723WAT     H192411   4.211   5.606   4.224
30723WAT     H292412   4.277   5.457   4.227
30724WAT      O92413   2.992   3.569   0.569
30724WAT     H192414   2.949   3.646   0.617
30724WAT     H292415   2.993   3.587   0.471
30725WAT      O92416   8.989   7.035   0.986
30725WAT     H192417   9.081   7.025   0.948
30725WAT     H292418   8.994   7.037   1.086
30726WAT      O92419   1.894   0.422   4.631
30726WAT     H192420   1.944   0.339   4.656
30726WAT     H292421   1.800   0.398   4.605
30727WAT      O92422   0.409   7.287   3.213
30727WAT     H192423   0.438   7.361   3.153
30727WAT     H292424   0.311   7.270   3.201
30728WAT      O92425   4.187   8.414   8.290
30728WAT     H192426   4.231   8.503   8.299
30728WAT     H292427   4.092   8.420   8.319
30729WAT      O92428   7.321   1.959   3.215
30729WAT     H192429   7.238   1.945   3.269
30729WAT     H292430   7.369   2.040   3.246
30730WAT      O92431   3.219   7.591   8.674
30730WAT     H192432   3.125   7.626   8.671
30730WAT     H292433   3.272   7.630   8.600
30731WAT      O92434   8.088   9.495   4.867
30731WAT     H192435   8.019   9.530   4.931
30731WAT     H292436   8.164   9.456   4.919
30732WAT      O92437   3.189   4.800   5.432
30732WAT     H192438   3.259   4.750   5.380
30732WAT     H292439   3.171   4.887   5.388
30733WAT      O92440   3.125   3.403   8.692
30733WAT     H192441   3.136   3.333   8.621
30733WAT     H292442   3.029   3.432   8.695
30734WAT      O92443   4.131   6.783   4.413
30734WAT     H192444   4.102   6.695   4.452
30734WAT     H292445   4.143   6.850   4.486
30735WAT      O92446   3.128   2.297   1.002
30735WAT     H192447   3.112   2.320   1.099
30735WAT     H292448   3.055   2.236   0.971
30736WAT      O92449   8.407   8.065   2.755
30736WAT     H192450   8.329   8.005   2.744
30736WAT     H292451   8.376   8.160   2.762
30737WAT      O92452   7.162   3.709   8.431
30737WAT     H192453   7.076   3.660   8.410
30737WAT     H292454   7.146   3.807   8.425
30738WAT      O92455   7.431   8.252   6.718
30738WAT     H192456   7.383   8.262   6.806
30738WAT     H292457   7.486   8.334   6.701
30739WAT      O92458   0.666   4.584   7.348
30739WAT     H192459   0.755   4.629   7.345
30739WAT     H292460   0.627   4.592   7.440
30740WAT      O92461   3.697   8.881   3.508
30740WAT     H192462   3.684   8.973   3.472
30740WAT     H292463   3.649   8.815   3.450
30741WAT      O92464   7.204   6.437   3.106
30741WAT     H192465   7.112   6.447   3.067
30741WAT     H292466   7.262   6.512   3.074
30742WAT      O92467   8.088   9.526   7.633
30742WAT     H192468   8.030   9.607   7.641
30742WAT     H292469   8.030   9.444   7.635
30743WAT      O92470   4.953   1.850   1.294
30743WAT     H192471   5.012   1.916   1.246
30743WAT     H292472   4.918   1.893   1.378
30744WAT      O92473   3.330   7.208   9.484
30744WAT     H192474   3.299   7.173   9.396
30744WAT     H292475   3.423   7.176   9.503
30745WAT      O92476   6.781   1.957   8.537
30745WAT     H192477   6.807   2.038   8.483
30745WAT     H292478   6.821   1.875   8.495
30746WAT      O92479   2.636   8.035   3.519
30746WAT     H192480   2.548   7.997   3.491
30746WAT     H292481   2.696   8.042   3.439
30747WAT      O92482   7.746   6.597   1.576
30747WAT     H192483   7.711   6.504   1.590
30747WAT     H292484   7.669   6.658   1.554
30748WAT      O92485   8.658   7.798   6.068
30748WAT     H192486   8.616   7.710   6.090
30748WAT     H292487   8.591   7.857   6.024
30749WAT      O92488   8.355   9.695   6.912
30749WAT     H192489   8.264   9.669   6.945
30749WAT     H292490   8.401   9.615   6.875
30750WAT      O92491   5.036   7.761   4.797
30750WAT     H192492   5.011   7.810   4.880
30750WAT     H292493   4.956   7.715   4.759
30751WAT      O92494   2.313   9.706   7.330
30751WAT     H192495   2.385   9.737   7.268
30751WAT     H292496   2.334   9.614   7.362
30752WAT      O92497   4.887   0.342   6.225
30752WAT     H192498   4.853   0.249   6.235
30752WAT     H292499   4.983   0.346   6.252
30753WAT      O92500   1.241   5.851   0.276
30753WAT     H192501   1.209   5.917   0.344
30753WAT     H292502   1.243   5.760   0.317
30754WAT      O92503   5.510   0.796   0.049
30754WAT     H192504   5.415   0.765   0.039
30754WAT     H292505   5.570   0.717   0.060
30755WAT      O92506   3.858   5.176   8.386
30755WAT     H192507   3.915   5.217   8.315
30755WAT     H292508   3.840   5.080   8.364
30756WAT      O92509   1.005   2.814   8.404
30756WAT     H192510   0.916   2.857   8.417
30756WAT     H292511   1.005   2.760   8.321
30757WAT      O92512   0.254   6.345   8.755
30757WAT     H192513   0.225   6.344   8.850
30757WAT     H292514   0.337   6.291   8.745
30758WAT      O92515   9.445   3.866   0.951
30758WAT     H192516   9.440   3.908   1.041
30758WAT     H292517   9.531   3.890   0.907
30759WAT      O92518   4.574   3.599   6.811
30759WAT     H192519   4.479   3.633   6.813
30759WAT     H292520   4.614   3.608   6.902
30760WAT      O92521   7.488   5.008   1.856
30760WAT     H192522   7.434   4.974   1.780
30760WAT     H292523   7.433   5.006   1.940
30761WAT      O92524   3.099   1.203   6.193
30761WAT     H192525   3.014   1.191   6.141
30761WAT     H292526   3.165   1.133   6.165
30762WAT      O92527   9.650   0.201   0.510
30762WAT     H192528   9.555   0.174   0.526
30762WAT     H292529   9.652   0.290   0.465
30763WAT      O92530   4.940   3.471   0.942
30763WAT     H192531   4.926   3.533   0.865
30763WAT     H292532   4.992   3.517   1.014
30764WAT      O92533   6.140   1.123   0.170
30764WAT     H192534   6.099   1.082   0.251
30764WAT     H292535   6.233   1.088   0.159
30765WAT      O92536   5.237   2.746   2.544
30765WAT     H192537   5.150   2.704   2.516
30765WAT     H292538   5.272   2.700   2.625
30766WAT      O92539   8.800   7.136   2.214
30766WAT     H192540   8.807   7.038   2.198
30766WAT     H292541   8.844   7.185   2.138
30767WAT      O92542   6.680   0.104   4.161
30767WAT     H192543   6.637   0.115   4.071
30767WAT     H292544   6.777   0.126   4.154
30768WAT      O92545   2.760   7.658   6.902
30768WAT     H192546   2.718   7.714   6.830
30768WAT     H292547   2.798   7.717   6.973
30769WAT      O92548   0.286   7.555   9.729
30769WAT     H192549   0.306   7.497   9.808
30769WAT     H292550   0.262   7.498   9.651
30770WAT      O92551   9.506   7.634   2.893
30770WAT     H192552   9.571   7.710   2.907
30770WAT     H292553   9.534   7.580   2.814
30771WAT      O92554   4.640   2.760   7.495
30771WAT     H192555   4.606   2.709   7.416
30771WAT     H292556   4.600   2.852   7.495
30772WAT      O92557   9.056   3.357   8.269
30772WAT     H192558   9.034   3.367   8.366
30772WAT     H292559   9.155   3.341   8.259
30773WAT      O92560   4.748   7.454   7.495
30773WAT     H192561   4.678   7.452   7.424
30773WAT     H292562   4.796   7.541   7.491
30774WAT      O92563   9.573   0.945   9.375
30774WAT     H192564   9.540   1.036   9.399
30774WAT     H292565   9.641   0.952   9.302
30775WAT      O92566   9.534   7.111   8.237
30775WAT     H192567   9.462   7.092   8.171
30775WAT     H292568   9.590   7.188   8.204
30776WAT      O92569   4.498   2.002   6.057
30776WAT     H192570   4.516   2.099   6.038
30776WAT     H292571   4.431   1.994   6.130
30777WAT      O92572   8.672   8.736   2.063
30777WAT     H192573   8.662   8.696   2.154
30777WAT     H292574   8.740   8.809   2.067
30778WAT      O92575   6.207   6.505   5.573
30778WAT     H192576   6.283   6.465   5.522
30778WAT     H292577   6.229   6.600   5.598
30779WAT      O92578   6.617   8.462   2.963
30779WAT     H192579   6.694   8.413   3.003
30779WAT     H292580   6.586   8.533   3.026
30780WAT      O92581   5.376   1.396   5.986
30780WAT     H192582   5.289   1.410   5.938
30780WAT     H292583   5.400   1.299   5.984
30781WAT      O92584   6.145   3.824   5.102
30781WAT     H192585   6.173   3.872   5.185
30781WAT     H292586   6.220   3.766   5.070
30782WAT      O92587   9.044   3.808   4.586
30782WAT     H192588   9.118   3.744   4.609
30782WAT     H292589   8.958   3.775   4.625
30783WAT      O92590   7.983   3.736   9.545
30783WAT     H192591   7.892   3.747   9.585
30783WAT     H292592   8.002   3.813   9.483
30784WAT      O92593   0.431   6.985   1.018
30784WAT     H192594   0.482   6.971   1.103
30784WAT     H292595   0.396   6.898   0.985
30785WAT      O92596   5.231   8.464   3.571
30785WAT     H192597   5.302   8.450   3.639
30785WAT     H292598   5.170   8.384   3.570
30786WAT      O92599   6.689   4.508   1.670
30786WAT     H192600   6.646   4.578   1.612
30786WAT     H292601   6.745   4.448   1.613
30787WAT      O92602   9.514   0.915   5.466
30787WAT     H192603   9.589   0.926   5.532
30787WAT     H292604   9.531   0.973   5.386
30788WAT      O92605   1.476   1.652   8.040
30788WAT     H192606   1.491   1.565   8.088
30788WAT     H292607   1.506   1.643   7.945
30789WAT      O92608   7.791   6.400   4.150
30789WAT     H192609   7.815   6.445   4.236
30789WAT     H292610   7.703   6.436   4.117
30790WAT      O92611   6.517   1.479   2.715
30790WAT     H192612   6.438   1.495   2.655
30790WAT     H292613   6.491   1.415   2.787
30791WAT      O92614   0.060   5.460   1.339
30791WAT     H192615   0.029   5.365   1.344
30791WAT     H292616   0.058   5.501   1.430
30792WAT      O92617   1.256   4.986   5.468
30792WAT     H192618   1.178   5.011   5.525
30792WAT     H292619   1.223   4.949   5.381
30793WAT      O92620   3.146   7.064   7.656
30793WAT     H192621   3.219   7.123   7.690
30793WAT     H292622   3.186   6.985   7.610
30794WAT      O92623   8.373   6.033   5.847
30794WAT     H192624   8.395   6.117   5.895
30794WAT     H292625   8.361   6.052   5.749
30795WAT      O92626   9.000   6.960   9.068
30795WAT     H192627   8.907   6.964   9.105
30795WAT     H292628   9.050   7.043   9.093
30796WAT      O92629   7.080   1.912   1.324
30796WAT     H192630   7.131   1.827   1.336
30796WAT     H292631   6.987   1.891   1.295
30797WAT      O92632   0.486   2.480   9.298
30797WAT     H192633   0.499   2.529   9.212
30797WAT     H292634   0.388   2.472   9.318
30798WAT      O92635   8.765   9.243   2.043
30798WAT     H192636   8.694   9.264   1.976
30798WAT     H292637   8.842   9.306   2.032
30799WAT      O92638   7.728   9.154   7.598
30799WAT     H192639   7.713   9.058   7.572
30799WAT     H292640   7.663   9.212   7.549
30800WAT      O92641   5.034   1.646   3.479
30800WAT     H192642   5.013   1.685   3.389
30800WAT     H292643   4.972   1.684   3.547
30801WAT      O92644   0.556   7.350   2.740
30801WAT     H192645   0.465   7.387   2.724
30801WAT     H292646   0.618   7.382   2.668
30802WAT      O92647   2.393   7.402   0.153
30802WAT     H192648   2.448   7.486   0.149
30802WAT     H292649   2.450   7.324   0.127
30803WAT      O92650   0.447   4.590   4.440
30803WAT     H192651   0.401   4.527   4.378
30803WAT     H292652   0.401   4.679   4.438
30804WAT      O92653   1.694   1.221   7.687
30804WAT     H192654   1.609   1.173   7.709
30804WAT     H292655   1.732   1.184   7.602
30805WAT      O92656   1.416   3.716   2.695
30805WAT     H192657   1.489   3.708   2.764
30805WAT     H292658   1.424   3.642   2.629
30806WAT      O92659   7.222   9.308   7.079
30806WAT     H192660   7.306   9.348   7.042
30806WAT     H292661   7.205   9.345   7.171
30807WAT      O92662   8.730   8.682   8.446
30807WAT     H192663   8.775   8.723   8.366
30807WAT     H292664   8.631   8.693   8.437
30808WAT      O92665   4.454   8.806   0.654
30808WAT     H192666   4.553   8.802   0.667
30808WAT     H292667   4.428   8.746   0.578
30809WAT      O92668   9.328   2.768   7.414
30809WAT     H192669   9.311   2.672   7.437
30809WAT     H292670   9.423   2.778   7.382
30810WAT      O92671   2.184   4.365   3.304
30810WAT     H192672   2.203   4.459   3.330
30810WAT     H292673   2.204   4.304   3.381
30811WAT      O92674   6.959   6.819   9.062
30811WAT     H192675   6.952   6.816   8.962
30811WAT     H292676   6.903   6.894   9.096
30812WAT      O92677   4.722   6.085   9.522
30812WAT     H192678   4.718   6.131   9.611
30812WAT     H292679   4.725   5.986   9.537
30813WAT      O92680   9.629   0.523   7.734
30813WAT     H192681   9.543   0.572   7.743
30813WAT     H292682   9.679   0.559   7.655
30814WAT      O92683   9.126   0.682   9.310
30814WAT     H192684   9.189   0.758   9.294
30814WAT     H292685   9.133   0.616   9.236
30815WAT      O92686   2.289   6.858   2.284
30815WAT     H192687   2.380   6.837   2.248
30815WAT     H292688   2.274   6.957   2.283
30816WAT      O92689   8.113   8.982   3.563
30816WAT     H192690   8.140   8.986   3.467
30816WAT     H292691   8.141   8.895   3.603
30817WAT      O92692   7.422   0.760   3.268
30817WAT     H192693   7.359   0.827   3.228
30817WAT     H292694   7.444   0.691   3.199
30818WAT      O92695   6.916   6.493   8.027
30818WAT     H192696   7.012   6.505   8.000
30818WAT     H292697   6.903   6.403   8.066
30819WAT      O92698   1.954   6.899   2.916
30819WAT     H192699   1.871   6.843   2.916
30819WAT     H292700   1.958   6.952   3.000
30820WAT      O92701   6.543   1.955   0.957
30820WAT     H192702   6.470   1.892   0.931
30820WAT     H292703   6.520   1.998   1.044
30821WAT      O92704   8.616   3.765   6.484
30821WAT     H192705   8.684   3.828   6.522
30821WAT     H292706   8.550   3.816   6.429
30822WAT      O92707   7.575   7.539   3.390
30822WAT     H192708   7.590   7.620   3.446
30822WAT     H292709   7.629   7.547   3.306
30823WAT      O92710   7.074   1.123   4.808
30823WAT     H192711   7.093   1.042   4.753
30823WAT     H292712   6.991   1.108   4.862
30824WAT      O92713   7.798   3.115   6.541
30824WAT     H192714   7.701   3.095   6.524
30824WAT     H292715   7.850   3.099   6.458
30825WAT      O92716   0.403   6.599   9.417
30825WAT     H192717   0.463   6.536   9.467
30825WAT     H292718   0.338   6.546   9.362
30826WAT      O92719   6.347   7.421   7.155
30826WAT     H192720   6.312   7.433   7.062
30826WAT     H292721   6.422   7.355   7.155
30827WAT      O92722   4.546   5.828   2.258
30827WAT     H192723   4.604   5.797   2.183
30827WAT     H292724   4.458   5.782   2.253
30828WAT      O92725   7.491   0.302   4.198
30828WAT     H192726   7.575   0.337   4.155
30828WAT     H292727   7.428   0.271   4.127
30829WAT      O92728   1.101   6.557   4.577
30829WAT     H192729   1.157   6.512   4.507
30829WAT     H292730   1.097   6.655   4.559
30830WAT      O92731   8.822   3.700   1.358
30830WAT     H192732   8.758   3.696   1.281
30830WAT     H292733   8.862   3.792   1.363
30831WAT      O92734   8.742   8.875   5.439
30831WAT     H192735   8.646   8.873   5.468
30831WAT     H292736   8.757   8.953   5.378
30832WAT      O92737   9.198   5.656   8.316
30832WAT     H192738   9.244   5.738   8.281
30832WAT     H292739   9.214   5.649   8.415
30833WAT      O92740   9.310   7.890   0.992
30833WAT     H192741   9.285   7.976   0.949
30833WAT     H292742   9.230   7.851   1.038
30834WAT      O92743   3.568   6.485   9.572
30834WAT     H192744   3.646   6.520   9.625
30834WAT     H292745   3.572   6.521   9.479
30835WAT      O92746   2.187   5.096   3.666
30835WAT     H192747   2.101   5.143   3.685
30835WAT     H292748   2.236   5.080   3.752
30836WAT      O92749   5.772   8.653   4.625
30836WAT     H192750   5.845   8.719   4.641
30836WAT     H292751   5.804   8.584   4.559
30837WAT      O92752   5.525   4.044   4.830
30837WAT     H192753   5.574   4.130   4.819
30837WAT     H292754   5.590   3.968   4.833
30838WAT      O92755   3.455   1.257   7.383
30838WAT     H192756   3.492   1.277   7.473
30838WAT     H292757   3.363   1.219   7.392
30839WAT      O92758   0.214   4.327   8.605
30839WAT     H192759   0.150   4.255   8.634
30839WAT     H292760   0.294   4.286   8.562
30840WAT      O92761   2.895   0.805   8.750
30840WAT     H192762   2.867   0.741   8.679
30840WAT     H292763   2.980   0.851   8.722
30841WAT      O92764   6.676   4.353   3.027
30841WAT     H192765   6.757   4.336   2.970
30841WAT     H292766   6.608   4.282   3.010
30842WAT      O92767   5.063   3.026   1.461
30842WAT     H192768   5.125   2.968   1.514
30842WAT     H292769   4.976   3.036   1.510
30843WAT      O92770   0.860   6.181   8.029
30843WAT     H192771   0.869   6.263   7.972
30843WAT     H292772   0.950   6.143   8.050
30844WAT      O92773   2.202   0.465   0.724
30844WAT     H192774   2.185   0.393   0.656
30844WAT     H292775   2.280   0.521   0.695
30845WAT      O92776   6.346   0.031   8.896
30845WAT     H192777   6.315   0.114   8.943
30845WAT     H292778   6.438   0.008   8.926
30846WAT      O92779   6.946   0.640   6.025
30846WAT     H192780   6.929   0.584   5.944
30846WAT     H292781   7.044   0.657   6.034
30847WAT      O92782   9.747   6.323   4.317
30847WAT     H192783   9.690   6.315   4.235
30847WAT     H292784   9.699   6.283   4.395
30848WAT      O92785   1.508   2.985   7.900
30848WAT     H192786   1.570   2.946   7.967
30848WAT     H292787   1.528   3.082   7.887
30849WAT      O92788   7.279   1.901   0.464
30849WAT     H192789   7.234   1.872   0.380
30849WAT     H292790   7.342   1.830   0.494
30850WAT      O92791   6.906   4.773   1.040
30850WAT     H192792   6.850   4.699   1.079
30850WAT     H292793   6.875   4.793   0.947
30851WAT      O92794   9.552   6.538   7.245
30851WAT     H192795   9.465   6.582   7.269
30851WAT     H292796   9.594   6.587   7.169
30852WAT      O92797   5.708   9.153   5.196
30852WAT     H192798   5.641   9.086   5.227
30852WAT     H292799   5.799   9.112   5.195
30853WAT      O92800   3.674   0.675   6.965
30853WAT     H192801   3.720   0.738   7.028
30853WAT     H292802   3.648   0.592   7.015
30854WAT      O92803   0.004   0.413   2.281
30854WAT     H192804  -0.012   0.337   2.344
30854WAT     H292805   0.053   0.380   2.200
30855WAT      O92806   2.282   9.545   0.433
30855WAT     H192807   2.382   9.547   0.442
30855WAT     H292808   2.240   9.560   0.523
30856WAT      O92809   2.110   6.659   6.925
30856WAT     H192810   2.050   6.580   6.917
30856WAT     H292811   2.063   6.733   6.974
30857WAT      O92812   1.204   5.770   5.071
30857WAT     H192813   1.132   5.829   5.109
30857WAT     H292814   1.230   5.701   5.138
30858WAT      O92815   9.440   9.566   2.137
30858WAT     H192816   9.392   9.565   2.225
30858WAT     H292817   9.521   9.624   2.145
30859WAT      O92818   0.387   1.421   1.046
30859WAT     H192819   0.405   1.519   1.056
30859WAT     H292820   0.440   1.384   0.970
30860WAT      O92821   1.178   3.664   6.651
30860WAT     H192822   1.184   3.703   6.743
30860WAT     H292823   1.160   3.737   6.586
30861WAT      O92824   1.734   1.916   9.604
30861WAT     H192825   1.719   1.834   9.660
30861WAT     H292826   1.649   1.942   9.559
30862WAT      O92827   5.097   3.067   5.900
30862WAT     H192828   5.106   3.136   5.828
30862WAT     H292829   5.141   2.982   5.870
30863WAT      O92830   2.413   6.171   0.525
30863WAT     H192831   2.501   6.206   0.557
30863WAT     H292832   2.347   6.172   0.600
30864WAT      O92833   4.915   0.715   3.226
30864WAT     H192834   4.815   0.721   3.232
30864WAT     H292835   4.952   0.804   3.200
30865WAT      O92836   4.007   3.002   0.657
30865WAT     H192837   4.008   2.909   0.622
30865WAT     H292838   3.915   3.025   0.689
30866WAT      O92839   5.533   4.371   7.317
30866WAT     H192840   5.628   4.362   7.348
30866WAT     H292841   5.472   4.326   7.382
30867WAT      O92842   1.633   7.975   7.869
30867WAT     H192843   1.584   7.894   7.838
30867WAT     H292844   1.587   8.014   7.949
30868WAT      O92845   4.603   7.344   3.545
30868WAT     H192846   4.636   7.438   3.532
30868WAT     H292847   4.529   7.344   3.612
30869WAT      O92848   1.013   0.917   1.114
30869WAT     H192849   0.992   0.911   1.211
30869WAT     H292850   1.015   0.825   1.075
30870WAT      O92851   2.793   7.594   4.179
30870WAT     H192852   2.716   7.627   4.233
30870WAT     H292853   2.842   7.671   4.139
30871WAT      O92854   8.625   6.649   5.294
30871WAT     H192855   8.569   6.580   5.340
30871WAT     H292856   8.567   6.723   5.260
30872WAT      O92857   3.501   3.125   3.843
30872WAT     H192858   3.468   3.216   3.867
30872WAT     H292859   3.484   3.107   3.747
30873WAT      O92860   6.404   6.643   7.836
30873WAT     H192861   6.318   6.667   7.791
30873WAT     H292862   6.460   6.724   7.847
30874WAT      O92863   8.452   8.845   4.512
30874WAT     H192864   8.547   8.853   4.481
30874WAT     H292865   8.437   8.755   4.551
30875WAT      O92866   9.455   7.298   9.130
30875WAT     H192867   9.506   7.233   9.186
30875WAT     H292868   9.492   7.298   9.037
30876WAT      O92869   0.196   4.984   2.149
30876WAT     H192870   0.119   4.998   2.211
30876WAT     H292871   0.255   5.066   2.150
30877WAT      O92872   8.005   4.065   1.309
30877WAT     H192873   8.079   4.030   1.252
30877WAT     H292874   8.035   4.067   1.404
30878WAT      O92875   5.971   7.725   8.019
30878WAT     H192876   5.948   7.822   8.025
30878WAT     H292877   6.064   7.710   8.052
30879WAT      O92878   7.826   5.344   3.189
30879WAT     H192879   7.869   5.395   3.263
30879WAT     H292880   7.741   5.390   3.161
30880WAT      O92881   4.524   2.399   0.739
30880WAT     H192882   4.488   2.435   0.825
30880WAT     H292883   4.448   2.363   0.684
30881WAT      O92884   5.438   6.511   7.752
30881WAT     H192885   5.458   6.416   7.778
30881WAT     H292886   5.339   6.522   7.739
30882WAT      O92887   8.856   3.076   2.158
30882WAT     H192888   8.903   3.162   2.141
30882WAT     H292889   8.915   3.000   2.132
30883WAT      O92890   2.514   4.075   7.129
30883WAT     H192891   2.595   4.029   7.093
30883WAT     H292892   2.476   4.136   7.059
30884WAT      O92893   2.956   1.546   3.168
30884WAT     H192894   2.922   1.452   3.163
30884WAT     H292895   2.998   1.562   3.257
30885WAT      O92896   3.874   2.402   1.378
30885WAT     H192897   3.792   2.453   1.354
30885WAT     H292898   3.885   2.402   1.478
30886WAT      O92899   4.681   1.105   4.973
30886WAT     H192900   4.711   1.017   5.009
30886WAT     H292901   4.751   1.142   4.912
30887WAT      O92902   6.373   1.303   4.668
30887WAT     H192903   6.396   1.262   4.756
30887WAT     H292904   6.389   1.402   4.672
30888WAT      O92905   1.345   1.149   3.243
30888WAT     H192906   1.286   1.158   3.162
30888WAT     H292907   1.367   1.240   3.278
30889WAT      O92908   5.543   0.110   2.469
30889WAT     H192909   5.507   0.128   2.377
30889WAT     H292910   5.475   0.136   2.538
30890WAT      O92911   3.289   3.463   1.018
30890WAT     H192912   3.198   3.429   0.995
30890WAT     H292913   3.288   3.504   1.109
30891WAT      O92914   5.126   8.529   7.512
30891WAT     H192915   5.068   8.454   7.481
30891WAT     H292916   5.222   8.506   7.496
30892WAT      O92917   8.491   3.648   0.687
30892WAT     H192918   8.486   3.554   0.721
30892WAT     H292919   8.494   3.647   0.587
30893WAT      O92920   4.362   4.718   4.030
30893WAT     H192921   4.277   4.760   4.062
30893WAT     H292922   4.345   4.622   4.006
30894WAT      O92923   1.905   5.064   6.839
30894WAT     H192924   1.891   4.966   6.849
30894WAT     H292925   1.957   5.082   6.755
30895WAT      O92926   7.884   5.681   3.810
30895WAT     H192927   7.871   5.755   3.876
30895WAT     H292928   7.982   5.665   3.797
30896WAT      O92929   7.733   2.390   0.700
30896WAT     H192930   7.695   2.387   0.607
30896WAT     H292931   7.696   2.313   0.752
30897WAT      O92932   7.885   5.009   6.396
30897WAT     H192933   7.963   5.015   6.459
30897WAT     H292934   7.815   4.951   6.436
30898WAT      O92935   0.440   9.261   1.620
30898WAT     H192936   0.465   9.353   1.590
30898WAT     H292937   0.500   9.233   1.695
30899WAT      O92938   3.712   6.861   4.611
30899WAT     H192939   3.614   6.866   4.633
30899WAT     H292940   3.723   6.843   4.513
30900WAT      O92941   5.073   1.682   1.970
30900WAT     H192942   5.059   1.688   2.069
30900WAT     H292943   5.147   1.744   1.944
30901WAT      O92944   0.721   5.771   1.754
30901WAT     H192945   0.780   5.841   1.795
30901WAT     H292946   0.681   5.807   1.670
30902WAT      O92947   8.553   1.490   1.410
30902WAT     H192948   8.534   1.575   1.460
30902WAT     H292949   8.511   1.414   1.460
30903WAT      O92950   1.685   6.482   9.704
30903WAT     H192951   1.762   6.540   9.730
30903WAT     H292952   1.686   6.398   9.760
30904WAT      O92953   8.618   9.415   8.743
30904WAT     H192954   8.638   9.327   8.785
30904WAT     H292955   8.651   9.416   8.649
30905WAT      O92956   4.469   5.204   0.564
30905WAT     H192957   4.568   5.215   0.553
30905WAT     H292958   4.450   5.163   0.653
30906WAT      O92959   4.456   7.925   1.570
30906WAT     H192960   4.415   7.849   1.621
30906WAT     H292961   4.386   7.968   1.513
30907WAT      O92962   6.645   5.794   7.747
30907WAT     H192963   6.710   5.722   7.721
30907WAT     H292964   6.676   5.882   7.710
30908WAT      O92965   1.381   9.072   8.676
30908WAT     H192966   1.308   9.055   8.743
30908WAT     H292967   1.396   8.990   8.622
30909WAT      O92968   1.484   8.115   2.408
30909WAT     H192969   1.471   8.024   2.368
30909WAT     H292970   1.457   8.185   2.341
30910WAT      O92971   3.132   6.870   2.131
30910WAT     H192972   3.132   6.968   2.111
30910WAT     H292973   3.062   6.850   2.199
30911WAT      O92974   4.370   3.834   2.612
30911WAT     H192975   4.446   3.838   2.677
30911WAT     H292976   4.284   3.850   2.660
30912WAT      O92977   5.479   4.915   0.649
30912WAT     H192978   5.501   5.012   0.657
30912WAT     H292979   5.433   4.898   0.562
30913WAT      O92980   6.711   5.979   0.982
30913WAT     H192981   6.711   6.052   0.913
30913WAT     H292982   6.629   5.922   0.970
30914WAT      O92983   2.794   7.369   3.510
30914WAT     H192984   2.818   7.325   3.423
30914WAT     H292985   2.864   7.436   3.534
30915WAT      O92986   3.980   9.126   0.040
30915WAT     H192987   3.966   9.199   0.107
30915WAT     H292988   3.909   9.132  -0.030
30916WAT      O92989   0.354   4.975   0.065
30916WAT     H192990   0.398   4.890   0.038
30916WAT     H292991   0.424   5.043   0.087
30917WAT      O92992   3.711   7.705   4.597
30917WAT     H192993   3.636   7.639   4.593
30917WAT     H292994   3.732   7.725   4.693
30918WAT      O92995   2.827   5.812   3.750
30918WAT     H192996   2.886   5.736   3.775
30918WAT     H292997   2.883   5.893   3.729
30919WAT      O92998   6.514   1.896   7.167
30919WAT     H192999   6.563   1.973   7.126
30919WAT     H293000   6.447   1.860   7.102
30920WAT      O93001   0.772   9.353   2.265
30920WAT     H193002   0.835   9.423   2.300
30920WAT     H293003   0.680   9.392   2.258
30921WAT      O93004   9.594   1.264   1.725
30921WAT     H193005   9.692   1.249   1.738
30921WAT     H293006   9.565   1.223   1.638
30922WAT      O93007   5.244   4.667   1.678
30922WAT     H193008   5.165   4.614   1.710
30922WAT     H293009   5.324   4.643   1.732
30923WAT      O93010   5.128   3.060   3.178
30923WAT     H193011   5.091   3.048   3.086
30923WAT     H293012   5.195   2.987   3.196
30924WAT      O93013   8.361   3.660   3.732
30924WAT     H193014   8.339   3.737   3.673
30924WAT     H293015   8.321   3.674   3.823
30925WAT      O93016   0.542   9.389   0.565
30925WAT     H193017   0.550   9.410   0.468
30925WAT     H293018   0.459   9.336   0.581
30926WAT      O93019   6.769   0.154   0.289
30926WAT     H193020   6.772   0.250   0.319
30926WAT     H293021   6.677   0.118   0.302
30927WAT      O93022   3.979   9.456   2.680
30927WAT     H193023   3.992   9.511   2.598
30927WAT     H293024   3.906   9.497   2.735
30928WAT      O93025   9.724   3.705   0.636
30928WAT     H193026   9.727   3.649   0.553
30928WAT     H293027   9.637   3.755   0.640
30929WAT      O93028   8.173   8.119   2.151
30929WAT     H193029   8.082   8.101   2.190
30929WAT     H293030   8.193   8.217   2.159
30930WAT      O93031   1.919   5.221   3.653
30930WAT     H193032   1.898   5.278   3.574
30930WAT     H293033   1.834   5.192   3.697
30931WAT      O93034   2.836   7.987   0.066
30931WAT     H193035   2.859   7.892   0.044
30931WAT     H293036   2.819   7.996   0.164
30932WAT      O93037   0.492   4.827   0.881
30932WAT     H193038   0.551   4.756   0.840
30932WAT     H293039   0.538   4.864   0.962
30933WAT      O93040   6.150   2.836   2.003
30933WAT     H193041   6.146   2.738   1.984
30933WAT     H293042   6.058   2.874   2.002
30934WAT      O93043   9.877   9.724   1.575
30934WAT     H193044   9.890   9.770   1.662
30934WAT     H293045   9.792   9.756   1.533
30935WAT      O93046   9.256   4.747   8.454
30935WAT     H193047   9.308   4.829   8.429
30935WAT     H293048   9.226   4.755   8.549
30936WAT      O93049   8.831   3.301   5.945
30936WAT     H193050   8.874   3.361   6.012
30936WAT     H293051   8.872   3.314   5.855
30937WAT      O93052   8.061   9.135   7.416
30937WAT     H193053   8.045   9.040   7.444
30937WAT     H293054   8.142   9.171   7.463
30938WAT      O93055   0.045   8.815   3.620
30938WAT     H193056   0.001   8.848   3.536
30938WAT     H293057   0.085   8.725   3.603
30939WAT      O93058   4.424   4.952   1.603
30939WAT     H193059   4.509   4.940   1.654
30939WAT     H293060   4.428   4.901   1.517
30940WAT      O93061   3.402   8.557   6.518
30940WAT     H193062   3.377   8.488   6.585
30940WAT     H293063   3.489   8.533   6.476
30941WAT      O93064   5.659   8.705   8.921
30941WAT     H193065   5.736   8.739   8.975
30941WAT     H293066   5.612   8.632   8.970
30942WAT      O93067   6.417   8.404   2.594
30942WAT     H193068   6.485   8.358   2.537
30942WAT     H293069   6.440   8.501   2.601
30943WAT      O93070   2.047   9.775   4.255
30943WAT     H193071   2.118   9.769   4.325
30943WAT     H293072   2.088   9.805   4.169
30944WAT      O93073   6.938   4.648   1.669
30944WAT     H193074   6.844   4.616   1.676
30944WAT     H293075   6.998   4.588   1.723
30945WAT      O93076   1.656   8.043   7.225
30945WAT     H193077   1.560   8.071   7.226
30945WAT     H293078   1.674   7.990   7.142
30946WAT      O93079   6.619   7.143   9.249
30946WAT     H193080   6.618   7.173   9.344
30946WAT     H293081   6.532   7.166   9.205
30947WAT      O93082   2.476   7.211   2.654
30947WAT     H193083   2.482   7.255   2.743
30947WAT     H293084   2.461   7.113   2.665
30948WAT      O93085   0.593   8.171   6.838
30948WAT     H193086   0.522   8.222   6.791
30948WAT     H293087   0.665   8.146   6.773
30949WAT      O93088   5.567   7.283   0.017
30949WAT     H193089   5.621   7.214  -0.031
30949WAT     H293090   5.489   7.310  -0.039
30950WAT      O93091   1.498   7.423   5.414
30950WAT     H193092   1.581   7.412   5.361
30950WAT     H293093   1.456   7.511   5.391
30951WAT      O93094   3.834   1.834   4.137
30951WAT     H193095   3.861   1.745   4.174
30951WAT     H293096   3.738   1.832   4.108
30952WAT      O93097   8.247   7.938   8.138
30952WAT     H193098   8.206   7.854   8.175
30952WAT     H293099   8.346   7.935   8.151
30953WAT      O93100   1.295   0.342   9.786
30953WAT     H193101   1.218   0.362   9.726
30953WAT     H293102   1.331   0.252   9.764
30954WAT      O93103   6.241   9.179   0.532
30954WAT     H193104   6.250   9.265   0.482
30954WAT     H293105   6.203   9.109   0.472
30955WAT      O93106   2.183   3.194   9.369
30955WAT     H193107   2.274   3.235   9.382
30955WAT     H293108   2.192   3.110   9.314
30956WAT      O93109   7.602   6.503   8.378
30956WAT     H193110   7.540   6.572   8.415
30956WAT     H293111   7.674   6.548   8.325
30957WAT      O93112   3.419   8.193   5.795
30957WAT     H193113   3.350   8.260   5.770
30957WAT     H293114   3.390   8.102   5.765
30958WAT      O93115   4.218   0.877   2.891
30958WAT     H193116   4.309   0.860   2.852
30958WAT     H293117   4.148   0.844   2.827
30959WAT      O93118   2.456   2.372   1.696
30959WAT     H193119   2.455   2.321   1.781
30959WAT     H293120   2.362   2.397   1.670
30960WAT      O93121   4.053   8.831   5.792
30960WAT     H193122   4.142   8.833   5.838
30960WAT     H293123   4.001   8.752   5.825
30961WAT      O93124   8.718   9.395   0.416
30961WAT     H193125   8.716   9.453   0.334
30961WAT     H293126   8.795   9.423   0.474
30962WAT      O93127   6.558   5.790   4.069
30962WAT     H193128   6.497   5.786   3.990
30962WAT     H293129   6.642   5.838   4.043
30963WAT      O93130   6.781   9.135   7.607
30963WAT     H193131   6.758   9.103   7.699
30963WAT     H293132   6.748   9.229   7.595
30964WAT      O93133   8.831   0.468   5.284
30964WAT     H193134   8.897   0.429   5.220
30964WAT     H293135   8.863   0.455   5.377
30965WAT      O93136   5.688   9.713   1.507
30965WAT     H193137   5.653   9.629   1.548
30965WAT     H293138   5.786   9.704   1.489
30966WAT      O93139   8.778   5.447   9.674
30966WAT     H193140   8.708   5.382   9.702
30966WAT     H293141   8.807   5.502   9.754
30967WAT      O93142   5.592   4.955   2.099
30967WAT     H193143   5.525   5.005   2.154
30967WAT     H293144   5.549   4.924   2.014
30968WAT      O93145   0.334   7.547   0.602
30968WAT     H193146   0.392   7.627   0.615
30968WAT     H293147   0.358   7.477   0.670
30969WAT      O93148   2.145   2.257   3.370
30969WAT     H193149   2.047   2.238   3.359
30969WAT     H293150   2.197   2.173   3.355
30970WAT      O93151   6.705   7.380   6.537
30970WAT     H193152   6.697   7.336   6.448
30970WAT     H293153   6.665   7.471   6.533
30971WAT      O93154   3.574   7.749   2.558
30971WAT     H193155   3.521   7.832   2.539
30971WAT     H293156   3.539   7.706   2.642
30972WAT      O93157   6.822   4.212   9.009
30972WAT     H193158   6.861   4.136   8.957
30972WAT     H293159   6.793   4.179   9.098
30973WAT      O93160   8.308   5.263   1.609
30973WAT     H193161   8.356   5.276   1.696
30973WAT     H293162   8.313   5.167   1.582
30974WAT      O93163   6.932   6.933   7.632
30974WAT     H193164   6.862   6.862   7.635
30974WAT     H293165   6.999   6.917   7.704
30975WAT      O93166   4.239   5.949   2.449
30975WAT     H193167   4.251   5.857   2.412
30975WAT     H293168   4.266   6.017   2.381
30976WAT      O93169   7.699   3.233   4.638
30976WAT     H193170   7.666   3.167   4.705
30976WAT     H293171   7.654   3.217   4.550
30977WAT      O93172   4.451   9.278   4.034
30977WAT     H193173   4.376   9.216   4.013
30977WAT     H293174   4.538   9.229   4.026
30978WAT      O93175   6.117   3.399   6.867
30978WAT     H193176   6.044   3.359   6.923
30978WAT     H293177   6.206   3.379   6.910
30979WAT      O93178   8.912   1.709   0.516
30979WAT     H193179   8.841   1.766   0.475
30979WAT     H293180   8.882   1.680   0.607
30980WAT      O93181   3.678   9.818   3.535
30980WAT     H193182   3.629   9.809   3.621
30980WAT     H293183   3.761   9.761   3.537
30981WAT      O93184   8.950   8.340   9.261
30981WAT     H193185   9.018   8.267   9.256
30981WAT     H293186   8.969   8.407   9.188
30982WAT      O93187   5.224   2.494   0.251
30982WAT     H193188   5.136   2.506   0.297
30982WAT     H293189   5.222   2.411   0.196
30983WAT      O93190   7.495   5.393   5.284
30983WAT     H193191   7.513   5.489   5.305
30983WAT     H293192   7.500   5.339   5.368
30984WAT      O93193   1.769   3.389   9.611
30984WAT     H193194   1.726   3.314   9.661
30984WAT     H293195   1.699   3.444   9.566
30985WAT      O93196   1.239   1.517   0.308
30985WAT     H193197   1.203   1.425   0.289
30985WAT     H293198   1.168   1.585   0.288
30986WAT      O93199   1.033   6.024   2.712
30986WAT     H193200   0.980   6.008   2.795
30986WAT     H293201   0.974   6.016   2.632
30987WAT      O93202   4.343   5.487   1.384
30987WAT     H193203   4.432   5.531   1.374
30987WAT     H293204   4.349   5.416   1.454
30988WAT      O93205   2.104   0.863   8.503
30988WAT     H193206   2.152   0.930   8.447
30988WAT     H293207   2.027   0.825   8.452
30989WAT      O93208   6.550   6.566   3.531
30989WAT     H193209   6.499   6.485   3.560
30989WAT     H293210   6.641   6.565   3.572
30990WAT      O93211   2.804   2.418   6.370
30990WAT     H193212   2.760   2.501   6.335
30990WAT     H293213   2.739   2.342   6.366
30991WAT      O93214   3.618   2.819   9.024
30991WAT     H193215   3.528   2.813   8.981
30991WAT     H293216   3.622   2.899   9.084
30992WAT      O93217   0.990   4.069   1.724
30992WAT     H193218   1.060   4.130   1.686
30992WAT     H293219   1.015   4.045   1.818
30993WAT      O93220   7.328   5.875   3.357
30993WAT     H193221   7.428   5.875   3.352
30993WAT     H293222   7.290   5.883   3.265
30994WAT      O93223   1.146   1.216   7.108
30994WAT     H193224   1.190   1.130   7.133
30994WAT     H293225   1.166   1.237   7.012
30995WAT      O93226   3.564   2.321   0.914
30995WAT     H193227   3.626   2.258   0.960
30995WAT     H293228   3.505   2.365   0.981
30996WAT      O93229   3.926   1.804   9.647
30996WAT     H193230   3.967   1.779   9.560
30996WAT     H293231   3.832   1.834   9.632
30997WAT      O93232   6.451   5.143   1.898
30997WAT     H193233   6.389   5.222   1.903
30997WAT     H293234   6.457   5.112   1.803
30998WAT      O93235   2.506   1.949   4.345
30998WAT     H193236   2.587   1.972   4.399
30998WAT     H293237   2.424   1.986   4.388
30999WAT      O93238   5.521   8.968   1.373
30999WAT     H193239   5.568   8.886   1.342
30999WAT     H293240   5.586   9.044   1.379
31000WAT      O93241   8.183   1.377   6.414
31000WAT     H193242   8.200   1.475   6.398
31000WAT     H293243   8.100   1.366   6.468
31001WAT      O93244   3.541   8.571   2.848
31001WAT     H193245   3.540   8.478   2.884
31001WAT     H293246   3.621   8.620   2.883
31002WAT      O93247   8.340   2.635   0.704
31002WAT     H193248   8.323   2.564   0.635
31002WAT     H293249   8.424   2.614   0.754
31003WAT      O93250   5.388   7.334   3.807
31003WAT     H193251   5.317   7.272   3.775
31003WAT     H293252   5.372   7.356   3.903
31004WAT      O93253   4.823   0.399   8.018
31004WAT     H193254   4.818   0.499   8.011
31004WAT     H293255   4.736   0.359   7.987
31005WAT      O93256   2.465   1.238   1.127
31005WAT     H193257   2.393   1.178   1.162
31005WAT     H293258   2.454   1.329   1.167
31006WAT      O93259   6.230   4.278   5.659
31006WAT     H193260   6.192   4.224   5.584
31006WAT     H293261   6.215   4.375   5.642
31007WAT      O93262   5.855   9.421   2.355
31007WAT     H193263   5.903   9.497   2.399
31007WAT     H293264   5.757   9.433   2.365
31008WAT      O93265   8.576   4.348   7.064
31008WAT     H193266   8.566   4.333   6.966
31008WAT     H293267   8.673   4.354   7.087
31009WAT      O93268   4.990   0.333   0.567
31009WAT     H193269   5.067   0.272   0.589
31009WAT     H293270   4.908   0.278   0.553
31010WAT      O93271   1.905   1.944   4.413
31010WAT     H193272   1.814   1.910   4.434
31010WAT     H293273   1.925   2.025   4.467
31011WAT      O93274   3.498   8.792   5.399
31011WAT     H193275   3.481   8.768   5.303
31011WAT     H293276   3.464   8.719   5.458
31012WAT      O93277   1.981   5.146   9.490
31012WAT     H193278   2.069   5.191   9.508
31012WAT     H293279   1.963   5.078   9.561
31013WAT      O93280   0.740   7.106   4.151
31013WAT     H193281   0.757   7.205   4.145
31013WAT     H293282   0.815   7.057   4.108
31014WAT      O93283   9.527   4.609   6.014
31014WAT     H193284   9.599   4.573   5.955
31014WAT     H293285   9.544   4.580   6.108
31015WAT      O93286   2.276   5.769   6.935
31015WAT     H193287   2.181   5.799   6.950
31015WAT     H293288   2.335   5.809   7.005
31016WAT      O93289   5.607   2.453   3.325
31016WAT     H193290   5.681   2.440   3.392
31016WAT     H293291   5.521   2.469   3.373
31017WAT      O93292   3.957   6.273   3.400
31017WAT     H193293   3.867   6.231   3.417
31017WAT     H293294   3.997   6.233   3.318
31018WAT      O93295   4.276   7.152   2.788
31018WAT     H193296   4.346   7.132   2.720
31018WAT     H293297   4.222   7.231   2.758
31019WAT      O93298   6.117   5.067   5.900
31019WAT     H193299   6.164   4.979   5.897
31019WAT     H293300   6.052   5.071   5.824
31020WAT      O93301   5.691   8.645   6.728
31020WAT     H193302   5.744   8.720   6.770
31020WAT     H293303   5.650   8.589   6.800
31021WAT      O93304   0.487   7.619   0.928
31021WAT     H193305   0.457   7.528   0.900
31021WAT     H293306   0.480   7.627   1.028
31022WAT      O93307   8.702   4.875   1.792
31022WAT     H193308   8.728   4.969   1.812
31022WAT     H293309   8.742   4.814   1.860
31023WAT      O93310   4.238   5.395   8.184
31023WAT     H193311   4.261   5.333   8.259
31023WAT     H293312   4.311   5.391   8.115
31024WAT      O93313   6.314   6.576   7.029
31024WAT     H193314   6.249   6.603   6.958
31024WAT     H293315   6.363   6.494   7.001
31025WAT      O93316   7.349   5.210   1.333
31025WAT     H193317   7.316   5.304   1.326
31025WAT     H293318   7.356   5.184   1.429
31026WAT      O93319   7.934   1.776   7.900
31026WAT     H193320   7.946   1.801   7.804
31026WAT     H293321   7.844   1.735   7.913
31027WAT      O93322   8.713   4.257   0.499
31027WAT     H193323   8.689   4.346   0.461
31027WAT     H293324   8.648   4.234   0.571
31028WAT      O93325   4.006   8.060   3.741
31028WAT     H193326   4.070   8.000   3.693
31028WAT     H293327   4.050   8.148   3.760
31029WAT      O93328   4.995   2.113   6.456
31029WAT     H193329   4.963   2.207   6.444
31029WAT     H293330   4.959   2.056   6.383
31030WAT      O93331   0.105   4.394   4.018
31030WAT     H193332   0.015   4.359   4.045
31030WAT     H293333   0.116   4.382   3.920
31031WAT      O93334   8.241   6.481   6.082
31031WAT     H193335   8.317   6.508   6.141
31031WAT     H293336   8.160   6.465   6.138
31032WAT      O93337   3.957   8.162   0.879
31032WAT     H193338   4.044   8.150   0.927
31032WAT     H293339   3.931   8.259   0.880
31033WAT      O93340   0.155   4.964   0.726
31033WAT     H193341   0.234   5.025   0.730
31033WAT     H293342   0.165   4.893   0.796
31034WAT      O93343   3.600   0.182   5.926
31034WAT     H193344   3.570   0.121   5.852
31034WAT     H293345   3.524   0.200   5.988
31035WAT      O93346   2.718   0.986   6.608
31035WAT     H193347   2.653   1.054   6.575
31035WAT     H293348   2.805   0.997   6.559
31036WAT      O93349   3.258   0.018   3.820
31036WAT     H193350   3.165   0.006   3.785
31036WAT     H293351   3.267   0.109   3.860
31037WAT      O93352   6.768   4.144   4.959
31037WAT     H193353   6.683   4.103   4.926
31037WAT     H293354   6.813   4.192   4.884
31038WAT      O93355   0.176   8.498   6.831
31038WAT     H193356   0.202   8.580   6.883
31038WAT     H293357   0.161   8.423   6.895
31039WAT      O93358   7.997   3.903   0.430
31039WAT     H193359   7.942   3.870   0.354
31039WAT     H293360   8.022   3.998   0.416
31040WAT      O93361   0.337   5.198   9.271
31040WAT     H193362   0.305   5.105   9.288
31040WAT     H293363   0.366   5.239   9.358
31041WAT      O93364   7.421   8.994   2.867
31041WAT     H193365   7.505   8.974   2.816
31041WAT     H293366   7.416   8.935   2.948
31042WAT      O93367   1.046   2.685   7.595
31042WAT     H193368   0.986   2.630   7.538
31042WAT     H293369   1.141   2.665   7.571
31043WAT      O93370   6.378   6.417   6.434
31043WAT     H193371   6.367   6.377   6.343
31043WAT     H293372   6.289   6.432   6.475
31044WAT      O93373   8.710   5.617   2.592
31044WAT     H193374   8.744   5.685   2.658
31044WAT     H293375   8.735   5.525   2.623
31045WAT      O93376   6.955   4.003   5.622
31045WAT     H193377   6.933   3.938   5.549
31045WAT     H293378   6.979   4.092   5.582
31046WAT      O93379   1.493   2.046   3.564
31046WAT     H193380   1.532   2.036   3.655
31046WAT     H293381   1.396   2.021   3.565
31047WAT      O93382   6.473   2.382   4.458
31047WAT     H193383   6.373   2.380   4.465
31047WAT     H293384   6.505   2.300   4.411
31048WAT      O93385   9.340   6.872   2.081
31048WAT     H193386   9.242   6.870   2.097
31048WAT     H293387   9.374   6.966   2.091
31049WAT      O93388   3.925   2.406   1.652
31049WAT     H193389   3.937   2.430   1.748
31049WAT     H293390   4.013   2.380   1.613
31050WAT      O93391   2.519   0.041   9.273
31050WAT     H193392   2.524   0.141   9.278
31050WAT     H293393   2.499   0.004   9.364
31051WAT      O93394   4.937   5.403   7.458
31051WAT     H193395   4.996   5.326   7.482
31051WAT     H293396   4.853   5.369   7.415
31052WAT      O93397   0.866   6.333   2.651
31052WAT     H193398   0.941   6.395   2.627
31052WAT     H293399   0.849   6.271   2.574
31053WAT      O93400   6.223   1.243   6.949
31053WAT     H193401   6.233   1.153   6.907
31053WAT     H293402   6.303   1.299   6.927
31054WAT      O93403   2.095   8.502   6.671
31054WAT     H193404   2.054   8.433   6.730
31054WAT     H293405   2.087   8.473   6.576
31055WAT      O93406   9.000   7.945   7.087
31055WAT     H193407   8.920   7.905   7.133
31055WAT     H293408   9.078   7.883   7.097
31056WAT      O93409   4.900   3.863   6.903
31056WAT     H193410   4.898   3.787   6.968
31056WAT     H293411   4.823   3.856   6.840
31057WAT      O93412   1.207   2.036   4.407
31057WAT     H193413   1.141   1.976   4.363
31057WAT     H293414   1.191   2.130   4.377
31058WAT      O93415   4.814   4.428   1.967
31058WAT     H193416   4.765   4.501   2.015
31058WAT     H293417   4.795   4.340   2.012
31059WAT      O93418   6.466   6.008   0.730
31059WAT     H193419   6.563   6.030   0.715
31059WAT     H293420   6.459   5.936   0.798
31060WAT      O93421   5.542   9.508   4.902
31060WAT     H193422   5.457   9.520   4.851
31060WAT     H293423   5.558   9.411   4.920
31061WAT      O93424   6.794   9.209   8.304
31061WAT     H193425   6.840   9.218   8.392
31061WAT     H293426   6.733   9.129   8.306
31062WAT      O93427   4.767   3.521   4.210
31062WAT     H193428   4.744   3.615   4.236
31062WAT     H293429   4.831   3.523   4.132
31063WAT      O93430   4.957   2.968   4.168
31063WAT     H193431   4.935   2.965   4.071
31063WAT     H293432   5.013   2.888   4.192
31064WAT      O93433   0.377   7.466   7.395
31064WAT     H193434   0.470   7.456   7.358
31064WAT     H293435   0.321   7.518   7.330
31065WAT      O93436   3.120   9.129   7.027
31065WAT     H193437   3.169   9.053   6.985
31065WAT     H293438   3.026   9.101   7.047
31066WAT      O93439   3.312   2.553   0.055
31066WAT     H193440   3.348   2.576  -0.035
31066WAT     H293441   3.359   2.606   0.125
31067WAT      O93442   4.191   8.835   9.347
31067WAT     H193443   4.202   8.851   9.249
31067WAT     H293444   4.095   8.849   9.373
31068WAT      O93445   9.097   6.580   9.501
31068WAT     H193446   9.047   6.666   9.499
31068WAT     H293447   9.185   6.591   9.455
31069WAT      O93448   2.026   4.229   5.028
31069WAT     H193449   1.933   4.266   5.030
31069WAT     H293450   2.043   4.177   5.112
31070WAT      O93451   0.180   9.433   0.081
31070WAT     H193452   0.194   9.435  -0.018
31070WAT     H293453   0.236   9.505   0.124
31071WAT      O93454   3.443   2.909   2.424
31071WAT     H193455   3.387   2.873   2.498
31071WAT     H293456   3.464   3.005   2.442
31072WAT      O93457   3.359   1.099   6.186
31072WAT     H193458   3.383   1.002   6.184
31072WAT     H293459   3.437   1.153   6.155
31073WAT      O93460   1.292   5.294   5.246
31073WAT     H193461   1.239   5.211   5.228
31073WAT     H293462   1.309   5.342   5.160
31074WAT      O93463   6.890   2.501   0.373
31074WAT     H193464   6.872   2.437   0.298
31074WAT     H293465   6.817   2.569   0.376
31075WAT      O93466   4.979   0.117   6.045
31075WAT     H193467   5.037   0.152   6.119
31075WAT     H293468   5.019   0.033   6.008
31076WAT      O93469   2.020   5.105   9.032
31076WAT     H193470   2.104   5.126   9.083
31076WAT     H293471   2.043   5.074   8.940
31077WAT      O93472   4.517   3.086   7.823
31077WAT     H193473   4.519   3.121   7.729
31077WAT     H293474   4.578   3.007   7.830
31078WAT      O93475   9.725   0.653   1.382
31078WAT     H193476   9.731   0.695   1.292
31078WAT     H293477   9.643   0.687   1.429
31079WAT      O93478   4.441   2.675   7.831
31079WAT     H193479   4.387   2.756   7.811
31079WAT     H293480   4.431   2.609   7.757
31080WAT      O93481   7.037   0.019   5.391
31080WAT     H193482   7.080   0.021   5.301
31080WAT     H293483   7.027  -0.076   5.421
31081WAT      O93484   1.862   9.377   1.306
31081WAT     H193485   1.828   9.298   1.358
31081WAT     H293486   1.818   9.380   1.216
31082WAT      O93487   3.196   4.277   6.595
31082WAT     H193488   3.256   4.268   6.674
31082WAT     H293489   3.145   4.363   6.601
31083WAT      O93490   9.462   1.659   8.389
31083WAT     H193491   9.367   1.683   8.408
31083WAT     H293492   9.469   1.615   8.300
31084WAT      O93493   5.553   9.663   3.406
31084WAT     H193494   5.558   9.707   3.316
31084WAT     H293495   5.460   9.634   3.424
31085WAT      O93496   9.824   1.460   7.708
31085WAT     H193497   9.871   1.407   7.638
31085WAT     H293498   9.873   1.453   7.795
31086WAT      O93499   3.981   9.505   4.660
31086WAT     H193500   3.901   9.467   4.613
31086WAT     H293501   3.959   9.596   4.694
31087WAT      O93502   7.970   3.841   9.877
31087WAT     H193503   8.039   3.770   9.894
31087WAT     H293504   8.015   3.926   9.850
31088WAT      O93505   0.031   7.924   3.490
31088WAT     H193506   0.121   7.920   3.446
31088WAT     H293507  -0.040   7.917   3.420
31089WAT      O93508   0.238   4.442   8.061
31089WAT     H193509   0.316   4.453   7.999
31089WAT     H293510   0.266   4.386   8.140
31090WAT      O93511   1.376   5.149   8.568
31090WAT     H193512   1.454   5.200   8.605
31090WAT     H293513   1.301   5.151   8.633
31091WAT      O93514   4.442   3.720   4.745
31091WAT     H193515   4.536   3.694   4.769
31091WAT     H293516   4.417   3.680   4.657
31092WAT      O93517   6.871   2.723   9.214
31092WAT     H193518   6.886   2.706   9.117
31092WAT     H293519   6.959   2.741   9.259
31093WAT      O93520   1.731   5.406   7.980
31093WAT     H193521   1.680   5.379   7.898
31093WAT     H293522   1.670   5.402   8.059
31094WAT      O93523   9.771   0.562   7.511
31094WAT     H193524   9.768   0.625   7.433
31094WAT     H293525   9.864   0.526   7.521
31095WAT      O93526   9.694   0.163   0.920
31095WAT     H193527   9.635   0.230   0.875
31095WAT     H293528   9.785   0.202   0.931
31096WAT      O93529   6.060   5.019   2.884
31096WAT     H193530   5.973   5.069   2.888
31096WAT     H293531   6.050   4.930   2.929
31097WAT      O93532   5.615   5.473   0.364
31097WAT     H193533   5.562   5.402   0.319
31097WAT     H293534   5.569   5.561   0.353
31098WAT      O93535   3.443   1.101   0.574
31098WAT     H193536   3.469   1.083   0.479
31098WAT     H293537   3.385   1.026   0.608
31099WAT      O93538   9.190   8.216   3.668
31099WAT     H193539   9.195   8.117   3.675
31099WAT     H293540   9.143   8.241   3.583
31100WAT      O93541   2.242   6.127   9.694
31100WAT     H193542   2.239   6.051   9.759
31100WAT     H293543   2.274   6.209   9.740
31101WAT      O93544   9.810   1.606   4.223
31101WAT     H193545   9.720   1.650   4.224
31101WAT     H293546   9.809   1.527   4.284
31102WAT      O93547   9.475   2.387   9.080
31102WAT     H193548   9.408   2.316   9.059
31102WAT     H293549   9.427   2.471   9.108
31103WAT      O93550   9.071   5.213   1.905
31103WAT     H193551   9.133   5.203   1.827
31103WAT     H293552   9.124   5.229   1.988
31104WAT      O93553   7.324   2.247   1.367
31104WAT     H193554   7.265   2.170   1.344
31104WAT     H293555   7.391   2.220   1.436
31105WAT      O93556   3.085   6.271   1.821
31105WAT     H193557   3.075   6.327   1.739
31105WAT     H293558   3.177   6.230   1.822
31106WAT      O93559   4.367   2.954   9.116
31106WAT     H193560   4.376   3.052   9.133
31106WAT     H293561   4.391   2.934   9.021
31107WAT      O93562   4.959   9.494   3.845
31107WAT     H193563   4.933   9.580   3.800
31107WAT     H293564   4.945   9.503   3.943
31108WAT      O93565   4.697   8.254   7.593
31108WAT     H193566   4.666   8.321   7.526
31108WAT     H293567   4.730   8.172   7.546
31109WAT      O93568   9.027   8.181   8.211
31109WAT     H193569   9.010   8.272   8.249
31109WAT     H293570   8.941   8.140   8.184
31110WAT      O93571   6.557   5.730   8.388
31110WAT     H193572   6.558   5.784   8.304
31110WAT     H293573   6.555   5.791   8.467
31111WAT      O93574   0.699   3.960   6.692
31111WAT     H193575   0.697   4.034   6.625
31111WAT     H293576   0.730   3.876   6.648
31112WAT      O93577   6.444   4.899   4.479
31112WAT     H193578   6.471   4.922   4.572
31112WAT     H293579   6.347   4.874   4.478
31113WAT      O93580   7.870   0.777   9.705
31113WAT     H193581   7.903   0.779   9.611
31113WAT     H293582   7.829   0.688   9.724
31114WAT      O93583   9.690   5.333   2.353
31114WAT     H193584   9.615   5.328   2.286
31114WAT     H293585   9.755   5.260   2.335
31115WAT      O93586   2.188   5.365   1.714
31115WAT     H193587   2.213   5.313   1.796
31115WAT     H293588   2.218   5.460   1.724
31116WAT      O93589   2.522   4.519   1.926
31116WAT     H193590   2.566   4.481   1.845
31116WAT     H293591   2.482   4.444   1.980
31117WAT      O93592   2.345   7.189   4.883
31117WAT     H193593   2.330   7.155   4.976
31117WAT     H293594   2.439   7.166   4.855
31118WAT      O93595   5.390   4.036   7.306
31118WAT     H193596   5.316   4.040   7.239
31118WAT     H293597   5.388   4.120   7.362
31119WAT      O93598   5.263   7.302   1.805
31119WAT     H193599   5.240   7.378   1.744
31119WAT     H293600   5.214   7.315   1.892
31120WAT      O93601   3.674   1.581   4.219
31120WAT     H193602   3.761   1.578   4.269
31120WAT     H293603   3.692   1.603   4.123
31121WAT      O93604   3.643   7.309   8.798
31121WAT     H193605   3.711   7.371   8.757
31121WAT     H293606   3.681   7.269   8.882
31122WAT      O93607   0.299   6.407   3.617
31122WAT     H193608   0.376   6.355   3.579
31122WAT     H293609   0.254   6.458   3.543
31123WAT      O93610   0.685   7.265   1.747
31123WAT     H193611   0.752   7.191   1.747
31123WAT     H293612   0.599   7.231   1.710
31124WAT      O93613   2.826   9.445   7.029
31124WAT     H193614   2.781   9.375   6.973
31124WAT     H293615   2.772   9.461   7.112
31125WAT      O93616   8.698   7.057   5.508
31125WAT     H193617   8.715   6.960   5.487
31125WAT     H293618   8.766   7.088   5.574
31126WAT      O93619   6.873   0.278   5.664
31126WAT     H193620   6.873   0.297   5.566
31126WAT     H293621   6.892   0.363   5.714
31127WAT      O93622   4.812   7.572   7.906
31127WAT     H193623   4.717   7.578   7.876
31127WAT     H293624   4.852   7.663   7.907
31128WAT      O93625   8.273   3.752   4.727
31128WAT     H193626   8.301   3.842   4.760
31128WAT     H293627   8.193   3.761   4.668
31129WAT      O93628   9.121   9.217   2.088
31129WAT     H193629   9.117   9.276   2.168
31129WAT     H293630   9.136   9.122   2.117
31130WAT      O93631   2.020   7.464   3.362
31130WAT     H193632   2.018   7.516   3.277
31130WAT     H293633   2.082   7.509   3.427
31131WAT      O93634   3.889   8.283   5.191
31131WAT     H193635   3.962   8.351   5.195
31131WAT     H293636   3.843   8.289   5.103
31132WAT      O93637   6.378   1.864   3.450
31132WAT     H193638   6.434   1.792   3.491
31132WAT     H293639   6.357   1.933   3.519
31133WAT      O93640   8.866   0.742   7.722
31133WAT     H193641   8.886   0.785   7.810
31133WAT     H293642   8.768   0.729   7.713
31134WAT      O93643   2.546   7.390   5.613
31134WAT     H193644   2.612   7.412   5.684
31134WAT     H293645   2.520   7.294   5.620
31135WAT      O93646   6.553   0.300   9.776
31135WAT     H193647   6.571   0.374   9.841
31135WAT     H293648   6.548   0.337   9.684
31136WAT      O93649   8.300   1.753   5.393
31136WAT     H193650   8.283   1.703   5.478
31136WAT     H293651   8.326   1.847   5.414
31137WAT      O93652   8.570   2.187   5.101
31137WAT     H193653   8.661   2.146   5.101
31137WAT     H293654   8.539   2.199   5.007
31138WAT      O93655   4.334   3.599   8.143
31138WAT     H193656   4.325   3.570   8.239
31138WAT     H293657   4.275   3.678   8.126
31139WAT      O93658   4.221   4.171   9.740
31139WAT     H193659   4.160   4.125   9.675
31139WAT     H293660   4.232   4.267   9.714
31140WAT      O93661   5.250   8.040   7.762
31140WAT     H193662   5.161   8.079   7.787
31140WAT     H293663   5.323   8.092   7.807
31141WAT      O93664   3.449   0.739   5.795
31141WAT     H193665   3.354   0.745   5.826
31141WAT     H293666   3.468   0.646   5.763
31142WAT      O93667   3.722   0.449   7.917
31142WAT     H193668   3.722   0.543   7.882
31142WAT     H293669   3.741   0.386   7.842
31143WAT      O93670   2.058   9.174   3.386
31143WAT     H193671   2.097   9.232   3.315
31143WAT     H293672   1.972   9.134   3.353
31144WAT      O93673   1.334   5.792   4.826
31144WAT     H193674   1.290   5.788   4.916
31144WAT     H293675   1.370   5.701   4.803
31145WAT      O93676   6.436   1.465   7.905
31145WAT     H193677   6.347   1.422   7.900
31145WAT     H293678   6.424   1.564   7.919
31146WAT      O93679   7.255   7.718   8.886
31146WAT     H193680   7.334   7.668   8.923
31146WAT     H293681   7.206   7.764   8.960
31147WAT      O93682   4.318   3.145   1.225
31147WAT     H193683   4.328   3.235   1.182
31147WAT     H293684   4.327   3.154   1.324
31148WAT      O93685   8.748   7.506   7.908
31148WAT     H193686   8.679   7.439   7.935
31148WAT     H293687   8.703   7.591   7.879
31149WAT      O93688   1.497   2.313   1.324
31149WAT     H193689   1.527   2.400   1.364
31149WAT     H293690   1.558   2.289   1.248
31150WAT      O93691   1.831   7.058   8.914
31150WAT     H193692   1.817   7.142   8.862
31150WAT     H293693   1.919   7.062   8.962
31151WAT      O93694   7.298   3.773   9.115
31151WAT     H193695   7.354   3.831   9.175
31151WAT     H293696   7.241   3.831   9.057
31152WAT      O93697   9.655   4.042   7.084
31152WAT     H193698   9.571   4.056   7.137
31152WAT     H293699   9.659   4.107   7.009
31153WAT      O93700   0.448   8.842   3.596
31153WAT     H193701   0.529   8.899   3.609
31153WAT     H293702   0.367   8.891   3.627
31154WAT      O93703   6.810   1.075   1.449
31154WAT     H193704   6.889   1.026   1.486
31154WAT     H293705   6.827   1.098   1.354
31155WAT      O93706   3.717   9.364   1.513
31155WAT     H193707   3.721   9.464   1.510
31155WAT     H293708   3.800   9.326   1.473
31156WAT      O93709   9.239   3.160   5.683
31156WAT     H193710   9.141   3.149   5.667
31156WAT     H293711   9.284   3.189   5.598
31157WAT      O93712   9.401   8.422   9.023
31157WAT     H193713   9.345   8.360   8.967
31157WAT     H293714   9.357   8.434   9.112
31158WAT      O93715   5.829   2.082   2.787
31158WAT     H193716   5.894   2.156   2.770
31158WAT     H293717   5.874   2.010   2.839
31159WAT      O93718   5.179   3.324   1.772
31159WAT     H193719   5.243   3.351   1.844
31159WAT     H293720   5.230   3.290   1.693
31160WAT      O93721   4.810   5.411   2.457
31160WAT     H193722   4.811   5.511   2.457
31160WAT     H293723   4.888   5.376   2.509
31161WAT      O93724   8.737   2.525   5.199
31161WAT     H193725   8.809   2.470   5.241
31161WAT     H293726   8.740   2.512   5.100
31162WAT      O93727   0.480   6.852   3.787
31162WAT     H193728   0.535   6.877   3.866
31162WAT     H293729   0.459   6.934   3.733
31163WAT      O93730   9.152   3.710   9.139
31163WAT     H193731   9.100   3.794   9.130
31163WAT     H293732   9.089   3.633   9.150
31164WAT      O93733   4.778   8.959   0.225
31164WAT     H193734   4.679   8.968   0.238
31164WAT     H293735   4.812   9.036   0.171
31165WAT      O93736   4.390   1.430   4.636
31165WAT     H193737   4.432   1.496   4.698
31165WAT     H293738   4.303   1.399   4.675
31166WAT      O93739   4.081   7.866   2.388
31166WAT     H193740   4.081   7.773   2.352
31166WAT     H293741   4.012   7.874   2.460
31167WAT      O93742   3.819   4.150   7.616
31167WAT     H193743   3.890   4.094   7.660
31167WAT     H293744   3.818   4.241   7.657
31168WAT      O93745   1.122   4.897   0.362
31168WAT     H193746   1.169   4.821   0.316
31168WAT     H293747   1.033   4.866   0.395
31169WAT      O93748   4.292   4.649   9.586
31169WAT     H193749   4.260   4.720   9.524
31169WAT     H293750   4.307   4.687   9.677
31170WAT      O93751   4.130   0.666   7.855
31170WAT     H193752   4.086   0.754   7.837
31170WAT     H293753   4.139   0.652   7.953
31171WAT      O93754   1.383   5.481   8.937
31171WAT     H193755   1.333   5.525   8.862
31171WAT     H293756   1.469   5.444   8.903
31172WAT      O93757   7.083   8.095   3.957
31172WAT     H193758   7.020   8.093   3.879
31172WAT     H293759   7.064   8.017   4.017
31173WAT      O93760   8.082   8.348   6.083
31173WAT     H193761   8.107   8.430   6.135
31173WAT     H293762   8.162   8.290   6.073
31174WAT      O93763   1.103   1.049   3.756
31174WAT     H193764   1.175   1.084   3.697
31174WAT     H293765   1.100   1.104   3.840
31175WAT      O93766   5.084   3.853   6.086
31175WAT     H193767   5.048   3.850   5.992
31175WAT     H293768   5.141   3.935   6.096
31176WAT      O93769   8.116   7.457   8.604
31176WAT     H193770   8.133   7.502   8.691
31176WAT     H293771   8.202   7.445   8.555
31177WAT      O93772   2.452   1.245   4.707
31177WAT     H193773   2.389   1.248   4.785
31177WAT     H293774   2.542   1.280   4.736
31178WAT      O93775   6.153   1.445   6.119
31178WAT     H193776   6.134   1.351   6.091
31178WAT     H293777   6.236   1.448   6.175
31179WAT      O93778   7.804   3.362   2.867
31179WAT     H193779   7.767   3.407   2.787
31179WAT     H293780   7.837   3.270   2.842
31180WAT      O93781   0.444   8.178   9.732
31180WAT     H193782   0.407   8.270   9.725
31180WAT     H293783   0.369   8.112   9.741
31181WAT      O93784   7.060   1.139   3.128
31181WAT     H193785   6.960   1.132   3.136
31181WAT     H293786   7.087   1.234   3.142
31182WAT      O93787   3.902   0.447   2.854
31182WAT     H193788   3.941   0.396   2.930
31182WAT     H293789   3.950   0.534   2.844
31183WAT      O93790   1.857   7.593   4.412
31183WAT     H193791   1.760   7.615   4.398
31183WAT     H293792   1.911   7.677   4.407
31184WAT      O93793   9.167   4.390   3.611
31184WAT     H193794   9.181   4.304   3.659
31184WAT     H293795   9.254   4.440   3.608
31185WAT      O93796   9.047   9.388   7.784
31185WAT     H193797   9.146   9.394   7.769
31185WAT     H293798   9.010   9.481   7.794
31186WAT      O93799   2.910   7.341   0.204
31186WAT     H193800   2.901   7.440   0.193
31186WAT     H293801   2.911   7.319   0.302
31187WAT      O93802   9.609   3.804   5.308
31187WAT     H193803   9.648   3.824   5.398
31187WAT     H293804   9.589   3.707   5.301
31188WAT      O93805   9.040   7.579   4.069
31188WAT     H193806   9.057   7.574   3.970
31188WAT     H293807   9.110   7.527   4.117
31189WAT      O93808   7.474   4.368   2.963
31189WAT     H193809   7.468   4.457   2.919
31189WAT     H293810   7.422   4.301   2.910
31190WAT      O93811   5.124   6.509   1.385
31190WAT     H193812   5.156   6.569   1.312
31190WAT     H293813   5.025   6.502   1.381
31191WAT      O93814   6.946   2.820   6.691
31191WAT     H193815   6.951   2.818   6.791
31191WAT     H293816   6.851   2.810   6.663
31192WAT      O93817   3.812   2.782   5.196
31192WAT     H193818   3.774   2.817   5.282
31192WAT     H293819   3.771   2.693   5.175
31193WAT      O93820   3.188   4.782   7.072
31193WAT     H193821   3.106   4.838   7.058
31193WAT     H293822   3.161   4.692   7.106
31194WAT      O93823   1.831   9.489   0.504
31194WAT     H193824   1.870   9.449   0.587
31194WAT     H293825   1.896   9.478   0.428
31195WAT      O93826   0.455   1.787   7.397
31195WAT     H193827   0.522   1.812   7.328
31195WAT     H293828   0.363   1.789   7.356
31196WAT      O93829   4.351   1.628   7.926
31196WAT     H193830   4.395   1.569   7.994
31196WAT     H293831   4.288   1.574   7.870
31197WAT      O93832   7.896   3.099   0.202
31197WAT     H193833   7.961   3.068   0.132
31197WAT     H293834   7.944   3.154   0.270
31198WAT      O93835   3.429   3.466   3.287
31198WAT     H193836   3.514   3.508   3.319
31198WAT     H293837   3.351   3.515   3.326
31199WAT      O93838   9.407   7.057   6.259
31199WAT     H193839   9.505   7.073   6.254
31199WAT     H293840   9.369   7.107   6.337
31200WAT      O93841   3.611   2.621   2.112
31200WAT     H193842   3.593   2.711   2.153
31200WAT     H293843   3.560   2.613   2.027
31201WAT      O93844   8.288   4.556   0.540
31201WAT     H193845   8.294   4.647   0.500
31201WAT     H293846   8.250   4.492   0.473
31202WAT      O93847   6.779   3.772   3.710
31202WAT     H193848   6.688   3.813   3.706
31202WAT     H293849   6.799   3.727   3.622
31203WAT      O93850   4.804   8.472   2.190
31203WAT     H193851   4.835   8.507   2.101
31203WAT     H293852   4.710   8.502   2.206
31204WAT      O93853   6.367   9.329   5.259
31204WAT     H193854   6.402   9.411   5.215
31204WAT     H293855   6.313   9.353   5.340
31205WAT      O93856   5.901   7.698   8.310
31205WAT     H193857   5.978   7.662   8.364
31205WAT     H293858   5.927   7.701   8.213
31206WAT      O93859   7.494   7.697   9.761
31206WAT     H193860   7.531   7.772   9.816
31206WAT     H293861   7.395   7.690   9.775
31207WAT      O93862   6.063   8.893   9.009
31207WAT     H193863   6.156   8.908   9.043
31207WAT     H293864   6.067   8.845   8.921
31208WAT      O93865   6.583   2.923   7.723
31208WAT     H193866   6.635   3.001   7.759
31208WAT     H293867   6.492   2.954   7.695
31209WAT      O93868   6.233   9.628   7.675
31209WAT     H193869   6.195   9.684   7.602
31209WAT     H293870   6.182   9.542   7.681
31210WAT      O93871   0.639   7.705   5.500
31210WAT     H193872   0.604   7.617   5.468
31210WAT     H293873   0.667   7.697   5.596
31211WAT      O93874   8.813   1.752   4.741
31211WAT     H193875   8.736   1.813   4.761
31211WAT     H293876   8.779   1.659   4.727
31212WAT      O93877   5.973   2.084   4.303
31212WAT     H193878   5.996   2.181   4.296
31212WAT     H293879   5.939   2.051   4.215
31213WAT      O93880   7.519   8.232   5.651
31213WAT     H193881   7.513   8.247   5.749
31213WAT     H293882   7.611   8.202   5.627
31214WAT      O93883   2.118   1.777   2.425
31214WAT     H193884   2.151   1.854   2.371
31214WAT     H293885   2.195   1.718   2.450
31215WAT      O93886   8.422   0.487   0.293
31215WAT     H193887   8.399   0.532   0.206
31215WAT     H293888   8.518   0.504   0.314
31216WAT      O93889   4.979   1.098   2.667
31216WAT     H193890   4.996   1.182   2.719
31216WAT     H293891   4.919   1.118   2.590
31217WAT      O93892   0.376   7.013   4.515
31217WAT     H193893   0.331   6.940   4.464
31217WAT     H293894   0.426   7.072   4.452
31218WAT      O93895   6.029   5.949   0.635
31218WAT     H193896   6.044   5.959   0.537
31218WAT     H293897   6.096   5.884   0.672
31219WAT      O93898   1.414   0.241   8.145
31219WAT     H193899   1.492   0.302   8.135
31219WAT     H293900   1.339   0.274   8.087
31220WAT      O93901   5.692   5.485   8.734
31220WAT     H193902   5.713   5.558   8.799
31220WAT     H293903   5.741   5.402   8.759
31221WAT      O93904   2.753   2.539   5.432
31221WAT     H193905   2.781   2.635   5.436
31221WAT     H293906   2.834   2.481   5.421
31222WAT      O93907   6.163   0.068   0.782
31222WAT     H193908   6.249   0.017   0.795
31222WAT     H293909   6.163   0.148   0.843
31223WAT      O93910   6.248   8.124   6.161
31223WAT     H193911   6.252   8.074   6.074
31223WAT     H293912   6.213   8.064   6.233
31224WAT      O93913   5.007   1.302   6.758
31224WAT     H193914   4.965   1.241   6.825
31224WAT     H293915   5.019   1.392   6.799
31225WAT      O93916   0.637   6.134   4.362
31225WAT     H193917   0.582   6.129   4.446
31225WAT     H293918   0.730   6.162   4.386
31226WAT      O93919   6.685   3.206   4.648
31226WAT     H193920   6.673   3.109   4.671
31226WAT     H293921   6.608   3.258   4.682
31227WAT      O93922   4.574   3.334   2.857
31227WAT     H193923   4.476   3.328   2.876
31227WAT     H293924   4.623   3.354   2.942
31228WAT      O93925   5.944   3.206   2.076
31228WAT     H193926   5.958   3.130   2.139
31228WAT     H293927   5.874   3.182   2.009
31229WAT      O93928   2.233   9.504   4.601
31229WAT     H193929   2.147   9.547   4.573
31229WAT     H293930   2.219   9.453   4.686
31230WAT      O93931   8.498   6.283   9.371
31230WAT     H193932   8.473   6.378   9.354
31230WAT     H293933   8.517   6.270   9.468
31231WAT      O93934   7.228   2.896   3.778
31231WAT     H193935   7.179   2.824   3.728
31231WAT     H293936   7.220   2.880   3.876
31232WAT      O93937   5.574   7.249   5.634
31232WAT     H193938   5.541   7.266   5.727
31232WAT     H293939   5.575   7.151   5.616
31233WAT      O93940   8.987   7.746   9.755
31233WAT     H193941   9.033   7.818   9.701
31233WAT     H293942   8.907   7.713   9.706
31234WAT      O93943   2.367   0.625   7.126
31234WAT     H193944   2.348   0.709   7.177
31234WAT     H293945   2.293   0.609   7.060
31235WAT      O93946   4.787   8.373   8.728
31235WAT     H193947   4.689   8.355   8.727
31235WAT     H293948   4.831   8.317   8.797
31236WAT      O93949   5.962   8.914   1.933
31236WAT     H193950   5.864   8.899   1.920
31236WAT     H293951   5.984   8.904   2.030
31237WAT      O93952   4.333   8.657   0.443
31237WAT     H193953   4.263   8.592   0.471
31237WAT     H293954   4.380   8.622   0.362
31238WAT      O93955   1.397   4.511   0.707
31238WAT     H193956   1.447   4.480   0.627
31238WAT     H293957   1.373   4.432   0.764
31239WAT      O93958   1.687   3.630   6.180
31239WAT     H193959   1.658   3.672   6.266
31239WAT     H293960   1.770   3.577   6.194
31240WAT      O93961   9.336   1.808   4.740
31240WAT     H193962   9.326   1.762   4.828
31240WAT     H293963   9.410   1.875   4.746
31241WAT      O93964   2.040   8.818   5.757
31241WAT     H193965   2.062   8.876   5.679
31241WAT     H293966   2.084   8.729   5.746
31242WAT      O93967   0.450   3.231   9.398
31242WAT     H193968   0.396   3.160   9.444
31242WAT     H293969   0.388   3.295   9.352
31243WAT      O93970   7.095   6.248   8.578
31243WAT     H193971   7.006   6.239   8.533
31243WAT     H293972   7.097   6.331   8.634
31244WAT      O93973   5.772   6.594   6.535
31244WAT     H193974   5.840   6.633   6.597
31244WAT     H293975   5.688   6.648   6.539
31245WAT      O93976   4.319   4.433   3.983
31245WAT     H193977   4.255   4.437   4.059
31245WAT     H293978   4.278   4.382   3.908
31246WAT      O93979   8.864   8.113   2.069
31246WAT     H193980   8.845   8.080   2.162
31246WAT     H293981   8.963   8.119   2.056
31247WAT      O93982   1.209   6.272   8.782
31247WAT     H193983   1.132   6.260   8.719
31247WAT     H293984   1.176   6.267   8.876
31248WAT      O93985   4.871   3.803   4.606
31248WAT     H193986   4.952   3.777   4.658
31248WAT     H293987   4.851   3.900   4.622
31249WAT      O93988  -0.005   3.957   3.893
31249WAT     H193989   0.003   3.869   3.847
31249WAT     H293990   0.085   3.997   3.908
31250WAT      O93991   1.690   7.678   1.078
31250WAT     H193992   1.707   7.715   0.987
31250WAT     H293993   1.772   7.686   1.134
31251WAT      O93994   4.913   2.769   2.966
31251WAT     H193995   4.911   2.692   2.902
31251WAT     H293996   4.932   2.735   3.058
31252WAT      O93997   5.307   7.574   0.298
31252WAT     H193998   5.348   7.554   0.387
31252WAT     H293999   5.376   7.563   0.227
31253WAT      O94000   4.246   1.890   2.163
31253WAT     H194001   4.304   1.871   2.242
31253WAT     H294002   4.291   1.955   2.103
31254WAT      O94003   7.819   8.141   0.013
31254WAT     H194004   7.864   8.160   0.099
31254WAT     H294005   7.735   8.089   0.029
31255WAT      O94006   2.083   3.497   3.777
31255WAT     H194007   2.149   3.430   3.810
31255WAT     H294008   2.131   3.579   3.746
31256WAT      O94009   2.238   7.019   1.625
31256WAT     H194010   2.143   7.028   1.654
31256WAT     H294011   2.297   7.073   1.685
31257WAT      O94012   5.672   6.062   0.322
31257WAT     H194013   5.621   5.990   0.368
31257WAT     H294014   5.747   6.022   0.269
31258WAT      O94015   7.418   2.609   8.179
31258WAT     H194016   7.488   2.581   8.244
31258WAT     H294017   7.328   2.605   8.222
31259WAT      O94018   6.155   6.160   8.581
31259WAT     H194019   6.092   6.129   8.653
31259WAT     H294020   6.119   6.242   8.538
31260WAT      O94021   9.189   6.101   0.516
31260WAT     H194022   9.128   6.022   0.526
31260WAT     H294023   9.192   6.129   0.420
31261WAT      O94024   6.381   2.864   6.479
31261WAT     H194025   6.309   2.794   6.482
31261WAT     H294026   6.448   2.840   6.409
31262WAT      O94027   5.707   0.316   1.513
31262WAT     H194028   5.608   0.306   1.507
31262WAT     H294029   5.735   0.308   1.609
31263WAT      O94030   4.734   3.247   2.268
31263WAT     H194031   4.653   3.268   2.323
31263WAT     H294032   4.808   3.308   2.295
31264WAT      O94033   5.059   8.892   3.868
31264WAT     H194034   5.063   8.990   3.884
31264WAT     H294035   5.138   8.848   3.911
31265WAT      O94036   1.016   8.702   8.673
31265WAT     H194037   0.979   8.778   8.727
31265WAT     H294038   1.049   8.630   8.734
31266WAT      O94039   1.421   2.450   3.230
31266WAT     H194040   1.347   2.388   3.205
31266WAT     H294041   1.383   2.540   3.253
31267WAT      O94042   4.983   9.411   7.944
31267WAT     H194043   4.948   9.341   8.007
31267WAT     H294044   4.949   9.392   7.852
31268WAT      O94045   3.237   9.702   4.347
31268WAT     H194046   3.149   9.730   4.309
31268WAT     H294047   3.227   9.617   4.398
31269WAT      O94048   7.713   6.105   5.348
31269WAT     H194049   7.641   6.124   5.414
31269WAT     H294050   7.771   6.187   5.338
31270WAT      O94051   8.602   4.296   2.517
31270WAT     H194052   8.651   4.370   2.470
31270WAT     H294053   8.513   4.328   2.547
31271WAT      O94054   3.941   1.521   8.029
31271WAT     H194055   3.990   1.593   8.077
31271WAT     H294056   3.884   1.561   7.957
31272WAT      O94057   1.148   5.269   6.492
31272WAT     H194058   1.135   5.208   6.414
31272WAT     H294059   1.234   5.246   6.539
31273WAT      O94060   6.888   8.060   0.346
31273WAT     H194061   6.905   7.977   0.293
31273WAT     H294062   6.976   8.104   0.369
31274WAT      O94063   4.983   7.800   0.408
31274WAT     H194064   5.079   7.824   0.389
31274WAT     H294065   4.960   7.828   0.502
31275WAT      O94066   8.161   7.769   3.109
31275WAT     H194067   8.139   7.841   3.175
31275WAT     H294068   8.175   7.809   3.019
31276WAT      O94069   4.029   3.982   6.075
31276WAT     H194070   4.104   3.984   6.142
31276WAT     H294071   4.011   3.887   6.048
31277WAT      O94072   4.296   8.014   2.278
31277WAT     H194073   4.247   7.977   2.357
31277WAT     H294074   4.248   8.095   2.245
31278WAT      O94075   8.560   0.748   3.721
31278WAT     H194076   8.590   0.745   3.626
31278WAT     H294077   8.624   0.697   3.778
31279WAT      O94078   1.549   6.762   3.672
31279WAT     H194079   1.507   6.742   3.584
31279WAT     H294080   1.482   6.748   3.745
31280WAT      O94081   8.396   4.557   8.899
31280WAT     H194082   8.406   4.568   8.800
31280WAT     H294083   8.364   4.642   8.940
31281WAT      O94084   8.561   0.441   2.249
31281WAT     H194085   8.603   0.516   2.300
31281WAT     H294086   8.481   0.474   2.199
31282WAT      O94087   1.527   1.409   8.160
31282WAT     H194088   1.434   1.385   8.189
31282WAT     H294089   1.569   1.330   8.115
31283WAT      O94090   5.955   2.807   9.168
31283WAT     H194091   5.902   2.885   9.202
31283WAT     H294092   5.993   2.830   9.078
31284WAT      O94093   3.622   8.930   5.089
31284WAT     H194094   3.524   8.927   5.068
31284WAT     H294095   3.646   8.853   5.148
31285WAT      O94096   6.250   3.306   9.557
31285WAT     H194097   6.271   3.403   9.549
31285WAT     H294098   6.292   3.256   9.481
31286WAT      O94099   2.628   7.841   6.729
31286WAT     H194100   2.537   7.878   6.750
31286WAT     H294101   2.697   7.910   6.749
31287WAT      O94102   8.391   8.411   8.784
31287WAT     H194103   8.477   8.407   8.835
31287WAT     H294104   8.369   8.507   8.765
31288WAT      O94105   2.316   6.085   5.700
31288WAT     H194106   2.279   5.993   5.686
31288WAT     H294107   2.330   6.129   5.611
31289WAT      O94108   5.141   2.209   2.678
31289WAT     H194109   5.108   2.194   2.585
31289WAT     H294110   5.234   2.173   2.687
31290WAT      O94111   7.137   1.468   5.423
31290WAT     H194112   7.046   1.506   5.438
31290WAT     H294113   7.130   1.387   5.365
31291WAT      O94114   7.221   8.849   0.186
31291WAT     H194115   7.196   8.851   0.283
31291WAT     H294116   7.295   8.915   0.170
31292WAT      O94117   4.046   4.522   6.017
31292WAT     H194118   3.974   4.586   5.991
31292WAT     H294119   4.123   4.572   6.056
31293WAT      O94120   5.732   8.766   6.230
31293WAT     H194121   5.647   8.771   6.283
31293WAT     H294122   5.740   8.675   6.189
31294WAT      O94123   0.671   6.209   2.159
31294WAT     H194124   0.673   6.197   2.059
31294WAT     H294125   0.624   6.295   2.180
31295WAT      O94126   9.729   1.165   2.026
31295WAT     H194127   9.724   1.067   2.044
31295WAT     H294128   9.773   1.181   1.938
31296WAT      O94129   5.177   1.393   6.545
31296WAT     H194130   5.113   1.338   6.598
31296WAT     H294131   5.162   1.376   6.447
31297WAT      O94132   1.824   6.023   7.209
31297WAT     H194133   1.782   6.027   7.119
31297WAT     H294134   1.898   6.090   7.214
31298WAT      O94135   9.725   8.941   4.771
31298WAT     H194136   9.636   8.932   4.814
31298WAT     H294137   9.715   8.945   4.672
31299WAT      O94138   9.531   5.497   3.310
31299WAT     H194139   9.492   5.490   3.402
31299WAT     H294140   9.499   5.419   3.255
31300WAT      O94141   6.650   1.459   7.743
31300WAT     H194142   6.558   1.475   7.778
31300WAT     H294143   6.717   1.498   7.806
31301WAT      O94144   0.219   3.253   9.834
31301WAT     H194145   0.125   3.266   9.804
31301WAT     H294146   0.223   3.178   9.900
31302WAT      O94147   7.456   9.626   1.351
31302WAT     H194148   7.514   9.594   1.426
31302WAT     H294149   7.364   9.588   1.362
31303WAT      O94150   9.085   4.849   9.745
31303WAT     H194151   9.057   4.936   9.706
31303WAT     H294152   9.182   4.833   9.726
31304WAT      O94153   4.362   8.223   5.358
31304WAT     H194154   4.369   8.143   5.417
31304WAT     H294155   4.374   8.306   5.413
31305WAT      O94156   0.245   3.072   9.264
31305WAT     H194157   0.157   3.118   9.254
31305WAT     H294158   0.301   3.090   9.183
31306WAT      O94159   0.063   3.560   8.664
31306WAT     H194160   0.041   3.653   8.691
31306WAT     H294161   0.159   3.540   8.683
31307WAT      O94162   1.070   6.215   9.680
31307WAT     H194163   1.035   6.294   9.628
31307WAT     H294164   1.163   6.234   9.710
31308WAT      O94165   9.042   1.296   5.365
31308WAT     H194166   9.082   1.214   5.324
31308WAT     H294167   9.114   1.351   5.407
31309WAT      O94168   5.556   4.321   3.357
31309WAT     H194169   5.482   4.291   3.416
31309WAT     H294170   5.589   4.410   3.386
31310WAT      O94171   3.004   1.970   0.124
31310WAT     H194172   2.933   2.019   0.175
31310WAT     H294173   2.970   1.948   0.033
31311WAT      O94174   6.278   4.451   4.471
31311WAT     H194175   6.365   4.460   4.519
31311WAT     H294176   6.290   4.395   4.389
31312WAT      O94177   3.474   1.474   9.249
31312WAT     H194178   3.486   1.558   9.194
31312WAT     H294179   3.496   1.493   9.344
31313WAT      O94180   9.764   6.782   1.032
31313WAT     H194181   9.842   6.819   0.982
31313WAT     H294182   9.767   6.682   1.030
31314WAT      O94183   4.791   1.313   6.076
31314WAT     H194184   4.710   1.265   6.110
31314WAT     H294185   4.834   1.259   6.004
31315WAT      O94186   1.801   7.368   9.714
31315WAT     H194187   1.733   7.321   9.658
31315WAT     H294188   1.785   7.467   9.708
31316WAT      O94189   9.480   8.704   7.665
31316WAT     H194190   9.561   8.695   7.724
31316WAT     H294191   9.398   8.695   7.720
31317WAT      O94192   3.578   5.844   7.520
31317WAT     H194193   3.561   5.856   7.618
31317WAT     H294194   3.666   5.798   7.507
31318WAT      O94195   2.976   4.176   6.467
31318WAT     H194196   3.059   4.191   6.520
31318WAT     H294197   2.993   4.199   6.371
31319WAT      O94198   9.845   0.953   3.926
31319WAT     H194199   9.804   1.022   3.866
31319WAT     H294200   9.809   0.964   4.019
31320WAT      O94201   8.017   7.187   0.086
31320WAT     H194202   8.072   7.267   0.065
31320WAT     H294203   7.939   7.183   0.024
31321WAT      O94204   7.080   0.604   2.436
31321WAT     H194205   7.014   0.530   2.423
31321WAT     H294206   7.073   0.638   2.529
31322WAT      O94207   8.227   5.999   1.137
31322WAT     H194208   8.323   5.999   1.110
31322WAT     H294209   8.220   6.000   1.237
31323WAT      O94210   8.825   0.885   7.037
31323WAT     H194211   8.725   0.886   7.045
31323WAT     H294212   8.861   0.978   7.045
31324WAT      O94213   1.953   9.690   2.579
31324WAT     H194214   1.867   9.742   2.578
31324WAT     H294215   1.969   9.653   2.487
31325WAT      O94216   8.474   4.534   6.367
31325WAT     H194217   8.426   4.452   6.399
31325WAT     H294218   8.550   4.554   6.429
31326WAT      O94219   2.711   0.203   6.276
31326WAT     H194220   2.670   0.185   6.187
31326WAT     H294221   2.654   0.267   6.327
31327WAT      O94222   5.780   1.760   5.550
31327WAT     H194223   5.733   1.848   5.563
31327WAT     H294224   5.862   1.775   5.495
31328WAT      O94225   6.073   4.249   6.785
31328WAT     H194226   6.114   4.336   6.813
31328WAT     H294227   6.135   4.200   6.724
31329WAT      O94228   1.278   7.796   4.135
31329WAT     H194229   1.231   7.882   4.112
31329WAT     H294230   1.346   7.775   4.065
31330WAT      O94231   8.430   1.837   9.012
31330WAT     H194232   8.447   1.772   9.086
31330WAT     H294233   8.335   1.868   9.016
31331WAT      O94234   6.771   5.794   8.090
31331WAT     H194235   6.797   5.702   8.062
31331WAT     H294236   6.841   5.859   8.061
31332WAT      O94237   7.240   8.405   6.427
31332WAT     H194238   7.187   8.361   6.354
31332WAT     H294239   7.213   8.368   6.515
31333WAT      O94240   9.574   3.404   1.325
31333WAT     H194241   9.656   3.347   1.327
31333WAT     H294242   9.577   3.465   1.246
31334WAT      O94243   9.278   5.322   3.385
31334WAT     H194244   9.340   5.318   3.307
31334WAT     H294245   9.326   5.294   3.467
31335WAT      O94246   4.799   5.429   4.159
31335WAT     H194247   4.744   5.346   4.173
31335WAT     H294248   4.812   5.475   4.247
31336WAT      O94249   3.912   0.438   7.433
31336WAT     H194250   3.858   0.367   7.478
31336WAT     H294251   3.887   0.527   7.469
31337WAT      O94252   4.939   7.836   1.476
31337WAT     H194253   4.883   7.918   1.467
31337WAT     H294254   5.035   7.860   1.463
31338WAT      O94255   8.470   9.532   0.713
31338WAT     H194256   8.431   9.506   0.625
31338WAT     H294257   8.399   9.528   0.784
31339WAT      O94258   0.072   3.001   4.522
31339WAT     H194259   0.089   3.088   4.474
31339WAT     H294260   0.100   2.925   4.463
31340WAT      O94261   0.994   7.325   3.446
31340WAT     H194262   1.077   7.283   3.410
31340WAT     H294263   0.958   7.391   3.380
31341WAT      O94264   4.483   3.190   9.192
31341WAT     H194265   4.552   3.247   9.236
31341WAT     H294266   4.405   3.248   9.165
31342WAT      O94267   1.597   2.557   7.782
31342WAT     H194268   1.643   2.568   7.870
31342WAT     H294269   1.522   2.492   7.791
31343WAT      O94270   5.376   1.738   4.562
31343WAT     H194271   5.344   1.746   4.467
31343WAT     H294272   5.389   1.642   4.584
31344WAT      O94273   4.174   8.989   7.935
31344WAT     H194274   4.242   9.060   7.954
31344WAT     H294275   4.138   9.001   7.843
31345WAT      O94276   1.801   9.784   6.869
31345WAT     H194277   1.894   9.746   6.867
31345WAT     H294278   1.741   9.722   6.919
31346WAT      O94279   5.654   0.305   8.508
31346WAT     H194280   5.685   0.269   8.420
31346WAT     H294281   5.614   0.231   8.562
31347WAT      O94282   7.686   7.680   7.475
31347WAT     H194283   7.698   7.642   7.567
31347WAT     H294284   7.588   7.689   7.455
31348WAT      O94285   0.783   8.815   6.542
31348WAT     H194286   0.754   8.740   6.602
31348WAT     H294287   0.731   8.812   6.457
31349WAT      O94288   4.473   6.794   5.882
31349WAT     H194289   4.541   6.760   5.817
31349WAT     H294290   4.517   6.861   5.943
31350WAT      O94291   5.779   2.286   3.920
31350WAT     H194292   5.808   2.206   3.971
31350WAT     H294293   5.842   2.303   3.844
31351WAT      O94294   9.882   3.555   6.553
31351WAT     H194295   9.911   3.475   6.606
31351WAT     H294296   9.923   3.637   6.592
31352WAT      O94297   6.901   2.989   2.288
31352WAT     H194298   6.925   2.925   2.361
31352WAT     H294299   6.802   2.994   2.279
31353WAT      O94300   8.964   8.055   4.257
31353WAT     H194301   9.058   8.040   4.228
31353WAT     H294302   8.931   8.142   4.220
31354WAT      O94303   6.194   8.142   6.643
31354WAT     H194304   6.139   8.081   6.699
31354WAT     H294305   6.160   8.142   6.550
31355WAT      O94306   8.363   7.977   1.708
31355WAT     H194307   8.331   7.909   1.642
31355WAT     H294308   8.358   8.068   1.668
31356WAT      O94309   9.635   7.338   1.356
31356WAT     H194310   9.578   7.370   1.280
31356WAT     H294311   9.730   7.329   1.326
31357WAT      O94312   0.181   1.342   3.956
31357WAT     H194313   0.133   1.429   3.960
31357WAT     H294314   0.276   1.354   3.985
31358WAT      O94315   4.043   1.073   6.260
31358WAT     H194316   4.030   1.171   6.274
31358WAT     H294317   3.958   1.033   6.224
31359WAT      O94318   7.150   8.136   4.566
31359WAT     H194319   7.076   8.146   4.499
31359WAT     H294320   7.224   8.199   4.544
31360WAT      O94321   2.515   7.069   3.960
31360WAT     H194322   2.418   7.073   3.980
31360WAT     H294323   2.536   7.129   3.883
31361WAT      O94324   0.435   7.713   6.922
31361WAT     H194325   0.383   7.627   6.927
31361WAT     H294326   0.416   7.759   6.836
31362WAT      O94327   5.406   7.535   3.355
31362WAT     H194328   5.450   7.505   3.439
31362WAT     H294329   5.426   7.632   3.340
31363WAT      O94330   2.929   4.103   0.881
31363WAT     H194331   2.898   4.009   0.876
31363WAT     H294332   2.992   4.122   0.806
31364WAT      O94333   2.461   4.159   9.740
31364WAT     H194334   2.395   4.085   9.757
31364WAT     H294335   2.430   4.213   9.662
31365WAT      O94336   5.947   1.132   3.166
31365WAT     H194337   5.885   1.128   3.244
31365WAT     H294338   5.998   1.218   3.169
31366WAT      O94339   6.195   9.181   6.471
31366WAT     H194340   6.196   9.279   6.490
31366WAT     H294341   6.209   9.131   6.557
31367WAT      O94342   7.309   6.002   4.292
31367WAT     H194343   7.213   5.979   4.309
31367WAT     H294344   7.317   6.049   4.204
31368WAT      O94345   8.867   4.029   5.127
31368WAT     H194346   8.893   4.083   5.046
31368WAT     H294347   8.943   4.030   5.193
31369WAT      O94348   0.751   6.918   1.456
31369WAT     H194349   0.748   6.981   1.534
31369WAT     H294350   0.775   6.827   1.489
31370WAT      O94351   6.515   5.764   9.713
31370WAT     H194352   6.517   5.684   9.774
31370WAT     H294353   6.421   5.797   9.704
31371WAT      O94354   2.880   3.879   4.297
31371WAT     H194355   2.909   3.932   4.218
31371WAT     H294356   2.946   3.890   4.371
31372WAT      O94357   0.468   0.027   6.204
31372WAT     H194358   0.442   0.052   6.297
31372WAT     H294359   0.532  -0.050   6.207
31373WAT      O94360   3.592   9.542   5.052
31373WAT     H194361   3.563   9.636   5.072
31373WAT     H294362   3.692   9.540   5.045
31374WAT      O94363   3.668   8.310   0.485
31374WAT     H194364   3.619   8.377   0.541
31374WAT     H294365   3.616   8.224   0.482
31375WAT      O94366   9.572   9.077   3.063
31375WAT     H194367   9.570   8.982   3.094
31375WAT     H294368   9.479   9.108   3.046
31376WAT      O94369   6.027   5.829   9.312
31376WAT     H194370   5.936   5.819   9.352
31376WAT     H294371   6.095   5.789   9.374
31377WAT      O94372   4.966   9.777   1.387
31377WAT     H194373   5.020   9.757   1.305
31377WAT     H294374   5.016   9.842   1.444
31378WAT      O94375   2.461   3.730   9.199
31378WAT     H194376   2.545   3.771   9.164
31378WAT     H294377   2.452   3.749   9.297
31379WAT      O94378   5.538   3.247   4.233
31379WAT     H194379   5.555   3.281   4.140
31379WAT     H294380   5.600   3.171   4.253
31380WAT      O94381   9.319   5.785   7.358
31380WAT     H194382   9.369   5.701   7.339
31380WAT     H294383   9.318   5.842   7.276
31381WAT      O94384   0.022   3.367   8.469
31381WAT     H194385   0.104   3.317   8.440
31381WAT     H294386   0.039   3.412   8.557
31382WAT      O94387   4.843   3.004   5.762
31382WAT     H194388   4.920   3.031   5.820
31382WAT     H294389   4.765   2.978   5.818
31383WAT      O94390   1.174   7.147   7.908
31383WAT     H194391   1.267   7.135   7.943
31383WAT     H294392   1.123   7.207   7.970
31384WAT      O94393   9.208   5.080   7.463
31384WAT     H194394   9.170   5.171   7.477
31384WAT     H294395   9.186   5.049   7.370
31385WAT      O94396   9.399   1.138   4.986
31385WAT     H194397   9.317   1.110   5.036
31385WAT     H294398   9.435   1.222   5.027
31386WAT      O94399   7.553   5.895   9.501
31386WAT     H194400   7.629   5.907   9.565
31386WAT     H294401   7.586   5.851   9.417
31387WAT      O94402   2.171   0.531   3.845
31387WAT     H194403   2.093   0.545   3.784
31387WAT     H294404   2.253   0.570   3.803
31388WAT      O94405   4.223   7.432   3.987
31388WAT     H194406   4.149   7.367   3.970
31388WAT     H294407   4.185   7.521   4.012
31389WAT      O94408   7.842   3.056   9.208
31389WAT     H194409   7.790   2.996   9.270
31389WAT     H294410   7.879   3.001   9.133
31390WAT      O94411   6.367   0.855   5.502
31390WAT     H194412   6.348   0.942   5.548
31390WAT     H294413   6.337   0.861   5.407
31391WAT      O94414   1.599   0.133   9.378
31391WAT     H194415   1.697   0.140   9.398
31391WAT     H294416   1.586   0.122   9.280
31392WAT      O94417   5.657   0.265   9.605
31392WAT     H194418   5.636   0.273   9.507
31392WAT     H294419   5.696   0.351   9.638
31393WAT      O94420   0.762   8.359   4.788
31393WAT     H194421   0.749   8.339   4.691
31393WAT     H294422   0.778   8.274   4.838
31394WAT      O94423   8.224   0.276   4.204
31394WAT     H194424   8.307   0.230   4.237
31394WAT     H294425   8.249   0.365   4.165
31395WAT      O94426   1.296   7.042   2.069
31395WAT     H194427   1.239   7.078   2.143
31395WAT     H294428   1.391   7.070   2.083
31396WAT      O94429   8.297   6.087   9.259
31396WAT     H194430   8.284   6.152   9.333
31396WAT     H294431   8.393   6.089   9.228
31397WAT      O94432   5.094   4.389   8.060
31397WAT     H194433   5.021   4.344   8.112
31397WAT     H294434   5.067   4.395   7.964
31398WAT      O94435   5.307   9.020   3.540
31398WAT     H194436   5.299   8.921   3.537
31398WAT     H294437   5.234   9.061   3.485
31399WAT      O94438   8.943   7.238   2.010
31399WAT     H194439   8.999   7.183   1.948
31399WAT     H294440   8.889   7.303   1.956
31400WAT      O94441   9.413   7.831   9.508
31400WAT     H194442   9.497   7.875   9.541
31400WAT     H294443   9.396   7.748   9.560
31401WAT      O94444   5.259   9.575   3.136
31401WAT     H194445   5.303   9.492   3.171
31401WAT     H294446   5.164   9.554   3.113
31402WAT      O94447   6.637   4.508   7.209
31402WAT     H194448   6.552   4.527   7.160
31402WAT     H294449   6.680   4.427   7.169
31403WAT      O94450   0.031   0.389   9.181
31403WAT     H194451   0.115   0.440   9.166
31403WAT     H294452  -0.002   0.353   9.093
31404WAT      O94453   7.537   5.978   9.852
31404WAT     H194454   7.574   5.886   9.859
31404WAT     H294455   7.445   5.975   9.811
31405WAT      O94456   1.621   9.651   7.035
31405WAT     H194457   1.533   9.683   7.069
31405WAT     H294458   1.610   9.561   6.992
31406WAT      O94459   8.752   9.508   4.278
31406WAT     H194460   8.700   9.538   4.358
31406WAT     H294461   8.693   9.456   4.217
31407WAT      O94462   0.168   4.997   5.490
31407WAT     H194463   0.145   5.009   5.393
31407WAT     H294464   0.138   4.906   5.520
31408WAT      O94465   0.193   9.111   6.670
31408WAT     H194466   0.171   9.157   6.584
31408WAT     H294467   0.269   9.157   6.715
31409WAT      O94468   8.937   9.201   8.549
31409WAT     H194469   8.992   9.261   8.607
31409WAT     H294470   8.961   9.217   8.453
31410WAT      O94471   7.378   9.129   7.432
31410WAT     H194472   7.420   9.064   7.496
31410WAT     H294473   7.287   9.152   7.464
31411WAT      O94474   8.325   9.445   6.761
31411WAT     H194475   8.311   9.346   6.771
31411WAT     H294476   8.238   9.489   6.739
31412WAT      O94477   6.361   4.194   4.268
31412WAT     H194478   6.305   4.142   4.333
31412WAT     H294479   6.312   4.277   4.240
31413WAT      O94480   5.381   8.581   9.474
31413WAT     H194481   5.445   8.514   9.511
31413WAT     H294482   5.412   8.610   9.383
31414WAT      O94483   9.019   6.848   9.527
31414WAT     H194484   8.999   6.939   9.492
31414WAT     H294485   8.948   6.821   9.593
31415WAT      O94486   0.740   4.111   1.289
31415WAT     H194487   0.710   4.179   1.222
31415WAT     H294488   0.823   4.065   1.256
31416WAT      O94489   4.637   8.303   0.812
31416WAT     H194490   4.737   8.305   0.821
31416WAT     H294491   4.613   8.285   0.717
31417WAT      O94492   7.404   5.442   2.402
31417WAT     H194493   7.308   5.462   2.379
31417WAT     H294494   7.459   5.444   2.319
31418WAT      O94495   1.404   0.322   7.132
31418WAT     H194496   1.436   0.302   7.039
31418WAT     H294497   1.482   0.324   7.195
31419WAT      O94498   2.285   1.544   4.025
31419WAT     H194499   2.298   1.642   4.038
31419WAT     H294500   2.250   1.503   4.110
31420WAT      O94501   9.145   7.049   4.915
31420WAT     H194502   9.198   6.970   4.883
31420WAT     H294503   9.067   7.017   4.968
31421WAT      O94504   5.544   0.097   3.880
31421WAT     H194505   5.497   0.061   3.960
31421WAT     H294506   5.594   0.024   3.834
31422WAT      O94507   8.967   0.865   4.754
31422WAT     H194508   9.057   0.829   4.731
31422WAT     H294509   8.903   0.789   4.764
31423WAT      O94510   0.423   9.242   4.366
31423WAT     H194511   0.346   9.208   4.314
31423WAT     H294512   0.481   9.165   4.396
31424WAT      O94513   6.147   3.088   0.149
31424WAT     H194514   6.121   3.084   0.052
31424WAT     H294515   6.215   3.016   0.167
31425WAT      O94516   8.935   0.142   5.465
31425WAT     H194517   9.031   0.115   5.471
31425WAT     H294518   8.924   0.236   5.498
31426WAT      O94519   3.524   2.829   1.336
31426WAT     H194520   3.611   2.841   1.383
31426WAT     H294521   3.506   2.910   1.279
31427WAT      O94522   6.958   6.894   2.833
31427WAT     H194523   7.019   6.922   2.907
31427WAT     H294524   7.004   6.825   2.777
31428WAT      O94525   4.904   7.369   9.565
31428WAT     H194526   4.865   7.277   9.554
31428WAT     H294527   4.872   7.408   9.652
31429WAT      O94528   7.342   2.952   9.660
31429WAT     H194529   7.340   2.874   9.722
31429WAT     H294530   7.338   3.037   9.713
31430WAT      O94531   3.474   0.054   5.688
31430WAT     H194532   3.431  -0.034   5.711
31430WAT     H294533   3.549   0.038   5.624
31431WAT      O94534   7.527   5.652   0.621
31431WAT     H194535   7.521   5.624   0.717
31431WAT     H294536   7.555   5.573   0.565
31432WAT      O94537   3.314   0.278   5.704
31432WAT     H194538   3.368   0.194   5.708
31432WAT     H294539   3.217   0.255   5.702
31433WAT      O94540   0.368   7.510   3.831
31433WAT     H194541   0.357   7.412   3.848
31433WAT     H294542   0.461   7.528   3.800
31434WAT      O94543   3.186   6.474   6.626
31434WAT     H194544   3.251   6.438   6.693
31434WAT     H294545   3.131   6.545   6.669
31435WAT      O94546   7.434   4.776   0.379
31435WAT     H194547   7.531   4.752   0.372
31435WAT     H294548   7.424   4.864   0.425
31436WAT      O94549   1.102   0.089   5.377
31436WAT     H194550   1.018   0.051   5.336
31436WAT     H294551   1.078   0.159   5.444
31437WAT      O94552   8.900   1.727   5.213
31437WAT     H194553   8.824   1.724   5.277
31437WAT     H294554   8.949   1.639   5.215
31438WAT      O94555   3.952   6.180   7.035
31438WAT     H194556   3.861   6.218   7.053
31438WAT     H294557   3.995   6.229   6.959
31439WAT      O94558   8.381   8.000   6.552
31439WAT     H194559   8.289   8.029   6.579
31439WAT     H294560   8.402   8.036   6.461
31440WAT      O94561   0.212   6.646   2.324
31440WAT     H194562   0.305   6.648   2.359
31440WAT     H294563   0.205   6.580   2.250
31441WAT      O94564   1.859   9.317   3.089
31441WAT     H194565   1.810   9.250   3.032
31441WAT     H294566   1.802   9.341   3.168
31442WAT      O94567   0.375   8.136   7.031
31442WAT     H194568   0.413   8.059   7.082
31442WAT     H294569   0.447   8.178   6.976
31443WAT      O94570   1.275   8.087   5.544
31443WAT     H194571   1.360   8.067   5.592
31443WAT     H294572   1.240   8.003   5.500
31444WAT      O94573   9.079   9.147   3.071
31444WAT     H194574   9.151   9.078   3.073
31444WAT     H294575   9.017   9.130   2.994
31445WAT      O94576   4.116   1.358   9.269
31445WAT     H194577   4.057   1.389   9.344
31445WAT     H294578   4.112   1.423   9.193
31446WAT      O94579   9.323   0.407   4.707
31446WAT     H194580   9.230   0.428   4.737
31446WAT     H294581   9.376   0.491   4.702
31447WAT      O94582   2.889   9.074   1.964
31447WAT     H194583   2.889   9.138   1.887
31447WAT     H294584   2.970   9.091   2.021
31448WAT      O94585   7.923   6.403   5.043
31448WAT     H194586   8.020   6.427   5.033
31448WAT     H294587   7.908   6.313   5.002
31449WAT      O94588   3.501   4.400   5.876
31449WAT     H194589   3.484   4.361   5.785
31449WAT     H294590   3.450   4.486   5.885
31450WAT      O94591   0.938   8.276   2.514
31450WAT     H194592   0.898   8.197   2.560
31450WAT     H294593   0.864   8.339   2.488
31451WAT      O94594   2.604   1.157   5.830
31451WAT     H194595   2.684   1.117   5.785
31451WAT     H294596   2.522   1.133   5.778
31452WAT      O94597   6.322   4.723   3.658
31452WAT     H194598   6.414   4.762   3.663
31452WAT     H294599   6.272   4.766   3.582
31453WAT      O94600   7.135   9.593   1.052
31453WAT     H194601   7.180   9.531   0.987
31453WAT     H294602   7.181   9.586   1.140
31454WAT      O94603   8.515   8.936   7.662
31454WAT     H194604   8.486   8.982   7.578
31454WAT     H294605   8.608   8.963   7.684
31455WAT      O94606   2.503   6.520   2.029
31455WAT     H194607   2.419   6.495   1.982
31455WAT     H294608   2.566   6.563   1.964
31456WAT      O94609   3.485   3.244   6.150
31456WAT     H194610   3.475   3.230   6.051
31456WAT     H294611   3.425   3.180   6.199
31457WAT      O94612   9.418   8.190   7.410
31457WAT     H194613   9.492   8.187   7.477
31457WAT     H294614   9.429   8.115   7.344
31458WAT      O94615   2.634   1.878   9.463
31458WAT     H194616   2.658   1.880   9.560
31458WAT     H294617   2.695   1.940   9.412
31459WAT      O94618   3.684   1.707   3.464
31459WAT     H194619   3.771   1.753   3.448
31459WAT     H294620   3.668   1.639   3.391
31460WAT      O94621   1.225   0.470   6.504
31460WAT     H194622   1.249   0.455   6.600
31460WAT     H294623   1.137   0.427   6.485
31461WAT      O94624   7.872   3.922   3.583
31461WAT     H194625   7.788   3.969   3.608
31461WAT     H294626   7.911   3.965   3.502
31462WAT      O94627   1.062   7.097   0.242
31462WAT     H194628   0.994   7.034   0.279
31462WAT     H294629   1.150   7.082   0.287
31463WAT      O94630   4.612   1.628   2.675
31463WAT     H194631   4.578   1.661   2.764
31463WAT     H294632   4.572   1.682   2.602
31464WAT      O94633   6.001   9.114   5.592
31464WAT     H194634   5.999   9.179   5.515
31464WAT     H294635   5.944   9.148   5.666
31465WAT      O94636   7.964   7.943   0.515
31465WAT     H194637   8.009   7.873   0.572
31465WAT     H294638   7.874   7.963   0.553
31466WAT      O94639   4.229   6.894   0.477
31466WAT     H194640   4.187   6.906   0.567
31466WAT     H294641   4.159   6.863   0.412
31467WAT      O94642   7.575   0.081   4.397
31467WAT     H194643   7.651   0.061   4.459
31467WAT     H294644   7.598   0.159   4.339
31468WAT      O94645   4.021   1.045   1.610
31468WAT     H194646   4.080   1.126   1.622
31468WAT     H294647   4.078   0.965   1.593
31469WAT      O94648   2.635   7.723   1.352
31469WAT     H194649   2.664   7.740   1.446
31469WAT     H294650   2.670   7.635   1.322
31470WAT      O94651   9.595   9.762   3.011
31470WAT     H194652   9.614   9.702   3.089
31470WAT     H294653   9.548   9.711   2.940
31471WAT      O94654   3.737   8.404   4.524
31471WAT     H194655   3.830   8.429   4.553
31471WAT     H294656   3.707   8.324   4.577
31472WAT      O94657   2.543   1.875   7.781
31472WAT     H194658   2.479   1.948   7.806
31472WAT     H294659   2.584   1.837   7.864
31473WAT      O94660   6.206   8.435   0.544
31473WAT     H194661   6.124   8.435   0.602
31473WAT     H294662   6.209   8.350   0.491
31474WAT      O94663   5.940   5.576   1.933
31474WAT     H194664   5.900   5.654   1.981
31474WAT     H294665   6.003   5.527   1.993
31475WAT      O94666   5.382   3.954   0.322
31475WAT     H194667   5.455   3.897   0.285
31475WAT     H294668   5.419   4.014   0.393
31476WAT      O94669   3.742   3.001   0.682
31476WAT     H194670   3.733   3.031   0.587
31476WAT     H294671   3.704   2.910   0.692
31477WAT      O94672   1.828   6.365   2.275
31477WAT     H194673   1.781   6.295   2.220
31477WAT     H294674   1.771   6.447   2.280
31478WAT      O94675   7.537   6.855   9.003
31478WAT     H194676   7.488   6.936   9.035
31478WAT     H294677   7.509   6.775   9.056
31479WAT      O94678   5.819   1.360   7.781
31479WAT     H194679   5.867   1.391   7.863
31479WAT     H294680   5.870   1.284   7.739
31480WAT      O94681   1.977   1.604   5.971
31480WAT     H194682   2.042   1.608   5.895
31480WAT     H294683   1.942   1.511   5.979
31481WAT      O94684   5.912   0.124   7.445
31481WAT     H194685   5.865   0.149   7.360
31481WAT     H294686   5.851   0.141   7.523
31482WAT      O94687   3.341   5.413   5.435
31482WAT     H194688   3.421   5.432   5.492
31482WAT     H294689   3.320   5.315   5.439
31483WAT      O94690   5.299   8.015   4.863
31483WAT     H194691   5.368   8.082   4.893
31483WAT     H294692   5.273   7.957   4.940
31484WAT      O94693   5.982   1.368   3.745
31484WAT     H194694   6.054   1.351   3.812
31484WAT     H294695   5.897   1.325   3.776
31485WAT      O94696   6.080   7.172   2.356
31485WAT     H194697   6.090   7.239   2.282
31485WAT     H294698   6.115   7.211   2.441
31486WAT      O94699   0.056   7.309   6.737
31486WAT     H194700   0.128   7.353   6.790
31486WAT     H294701   0.090   7.222   6.701
31487WAT      O94702   6.891   9.189   3.894
31487WAT     H194703   6.872   9.155   3.802
31487WAT     H294704   6.987   9.217   3.900
31488WAT      O94705   1.701   6.357   1.238
31488WAT     H194706   1.674   6.448   1.269
31488WAT     H294707   1.620   6.301   1.222
31489WAT      O94708   2.557   8.238   6.457
31489WAT     H194709   2.505   8.239   6.543
31489WAT     H294710   2.506   8.188   6.388
31490WAT      O94711   7.480   7.008   7.227
31490WAT     H194712   7.564   6.954   7.220
31490WAT     H294713   7.472   7.045   7.319
31491WAT      O94714   8.079   5.615   8.342
31491WAT     H194715   8.071   5.555   8.262
31491WAT     H294716   8.108   5.561   8.421
31492WAT      O94717   2.853   5.547   5.499
31492WAT     H194718   2.819   5.550   5.405
31492WAT     H294719   2.852   5.639   5.538
31493WAT      O94720   2.627   9.554   8.255
31493WAT     H194721   2.605   9.484   8.324
31493WAT     H294722   2.544   9.603   8.230
31494WAT      O94723   8.129   7.095   4.719
31494WAT     H194724   8.046   7.054   4.758
31494WAT     H294725   8.189   7.023   4.685
31495WAT      O94726   0.276   4.985   8.330
31495WAT     H194727   0.249   5.077   8.358
31495WAT     H294728   0.277   4.924   8.409
31496WAT      O94729   7.953   1.950   8.122
31496WAT     H194730   7.900   1.942   8.207
31496WAT     H294731   7.903   1.905   8.048
31497WAT      O94732   2.878   7.185   3.015
31497WAT     H194733   2.967   7.144   3.036
31497WAT     H294734   2.836   7.217   3.099
31498WAT      O94735   7.801   6.262   6.532
31498WAT     H194736   7.724   6.246   6.594
31498WAT     H294737   7.821   6.179   6.481
31499WAT      O94738   2.630   5.921   1.994
31499WAT     H194739   2.570   5.841   1.995
31499WAT     H294740   2.725   5.892   1.996
31500WAT      O94741   3.253   1.496   8.609
31500WAT     H194742   3.276   1.425   8.543
31500WAT     H294743   3.263   1.586   8.565
31501WAT      O94744   8.143   8.427   3.227
31501WAT     H194745   8.144   8.453   3.324
31501WAT     H294746   8.228   8.457   3.183
31502WAT      O94747   1.233   1.906   8.653
31502WAT     H194748   1.154   1.866   8.700
31502WAT     H294749   1.221   1.898   8.554
31503WAT      O94750   3.280   2.627   3.462
31503WAT     H194751   3.219   2.706   3.465
31503WAT     H294752   3.258   2.566   3.537
31504WAT      O94753   7.018   0.960   4.257
31504WAT     H194754   7.013   0.880   4.198
31504WAT     H294755   7.062   1.035   4.208
31505WAT      O94756   8.634   5.262   4.949
31505WAT     H194757   8.659   5.279   4.854
31505WAT     H294758   8.610   5.166   4.960
31506WAT      O94759   4.394   2.486   1.422
31506WAT     H194760   4.388   2.426   1.341
31506WAT     H294761   4.421   2.432   1.501
31507WAT      O94762   5.254   1.158   8.980
31507WAT     H194763   5.272   1.204   9.067
31507WAT     H294764   5.263   1.059   8.992
31508WAT      O94765   5.804   5.205   1.015
31508WAT     H194766   5.742   5.271   1.058
31508WAT     H294767   5.751   5.134   0.968
31509WAT      O94768   6.476   8.984   5.019
31509WAT     H194769   6.461   9.061   4.958
31509WAT     H294770   6.463   9.013   5.114
31510WAT      O94771   8.915   4.423   2.908
31510WAT     H194772   8.852   4.403   2.983
31510WAT     H294773   9.009   4.405   2.938
31511WAT      O94774   0.239   1.000   2.628
31511WAT     H194775   0.257   0.905   2.651
31511WAT     H294776   0.162   1.034   2.683
31512WAT      O94777   5.506   8.722   3.748
31512WAT     H194778   5.472   8.813   3.772
31512WAT     H294779   5.601   8.713   3.780
31513WAT      O94780   9.240   0.812   4.678
31513WAT     H194781   9.277   0.904   4.694
31513WAT     H294782   9.315   0.746   4.678
31514WAT      O94783   7.843   6.841   8.300
31514WAT     H194784   7.901   6.891   8.236
31514WAT     H294785   7.842   6.888   8.388
31515WAT      O94786   7.643   2.589   8.725
31515WAT     H194787   7.641   2.551   8.817
31515WAT     H294788   7.583   2.535   8.665
31516WAT      O94789   3.994   3.448   6.000
31516WAT     H194790   3.974   3.352   5.982
31516WAT     H294791   3.949   3.475   6.086
31517WAT      O94792   4.741   1.335   9.146
31517WAT     H194793   4.759   1.265   9.215
31517WAT     H294794   4.694   1.293   9.068
31518WAT      O94795   0.942   1.482   6.155
31518WAT     H194796   0.925   1.576   6.183
31518WAT     H294797   1.019   1.479   6.091
31519WAT      O94798   3.979   4.119   2.403
31519WAT     H194799   3.896   4.095   2.353
31519WAT     H294800   4.055   4.064   2.368
31520WAT      O94801   0.896   9.752   5.334
31520WAT     H194802   0.803   9.725   5.360
31520WAT     H294803   0.955   9.671   5.336
31521WAT      O94804   2.285   4.971   0.016
31521WAT     H194805   2.230   4.952   0.098
31521WAT     H294806   2.365   5.026   0.042
31522WAT      O94807   4.605   1.804   5.063
31522WAT     H194808   4.624   1.885   5.007
31522WAT     H294809   4.616   1.827   5.160
31523WAT      O94810   0.702   0.536   3.174
31523WAT     H194811   0.679   0.607   3.108
31523WAT     H294812   0.787   0.561   3.220
31524WAT      O94813   0.905   1.637   4.416
31524WAT     H194814   0.835   1.577   4.378
31524WAT     H294815   0.888   1.731   4.387
31525WAT      O94816   0.897   8.478   9.029
31525WAT     H194817   0.932   8.426   9.107
31525WAT     H294818   0.972   8.498   8.966
31526WAT      O94819   6.089   7.615   4.301
31526WAT     H194820   6.029   7.624   4.380
31526WAT     H294821   6.068   7.529   4.253
31527WAT      O94822   5.406   3.277   8.346
31527WAT     H194823   5.498   3.313   8.362
31527WAT     H294824   5.358   3.270   8.433
31528WAT      O94825   5.521   7.277   1.756
31528WAT     H194826   5.425   7.285   1.784
31528WAT     H294827   5.567   7.211   1.816
31529WAT      O94828   2.247   3.960   1.701
31529WAT     H194829   2.235   4.055   1.732
31529WAT     H294830   2.195   3.947   1.616
31530WAT      O94831   3.736   5.902   5.183
31530WAT     H194832   3.712   5.808   5.160
31530WAT     H294833   3.657   5.947   5.225
31531WAT      O94834   8.567   3.918   3.751
31531WAT     H194835   8.617   3.889   3.670
31531WAT     H294836   8.474   3.882   3.747
31532WAT      O94837   0.156   1.589   6.632
31532WAT     H194838   0.070   1.632   6.661
31532WAT     H294839   0.136   1.510   6.574
31533WAT      O94840   9.071   3.119   2.861
31533WAT     H194841   8.977   3.150   2.845
31533WAT     H294842   9.088   3.034   2.812
31534WAT      O94843   4.796   3.408   3.035
31534WAT     H194844   4.848   3.465   2.970
31534WAT     H294845   4.856   3.381   3.110
31535WAT      O94846   1.867   2.812   4.943
31535WAT     H194847   1.951   2.845   4.987
31535WAT     H294848   1.794   2.879   4.958
31536WAT      O94849   5.950   8.724   1.670
31536WAT     H194850   6.050   8.718   1.673
31536WAT     H294851   5.923   8.820   1.680
31537WAT      O94852   0.618   1.689   5.466
31537WAT     H194853   0.608   1.778   5.511
31537WAT     H294854   0.714   1.662   5.465
31538WAT      O94855   7.989   1.885   1.060
31538WAT     H194856   7.968   1.982   1.051
31538WAT     H294857   7.968   1.854   1.153
31539WAT      O94858   4.553   7.591   0.786
31539WAT     H194859   4.480   7.523   0.796
31539WAT     H294860   4.520   7.681   0.814
31540WAT      O94861   0.613   6.621   2.974
31540WAT     H194862   0.709   6.629   2.947
31540WAT     H294863   0.600   6.667   3.062
31541WAT      O94864   4.542   3.972   0.657
31541WAT     H194865   4.494   3.935   0.737
31541WAT     H294866   4.640   3.957   0.669
31542WAT      O94867   1.472   7.263   9.739
31542WAT     H194868   1.478   7.261   9.839
31542WAT     H294869   1.378   7.243   9.711
31543WAT      O94870   5.823   7.738   4.439
31543WAT     H194871   5.815   7.782   4.349
31543WAT     H294872   5.815   7.639   4.428
31544WAT      O94873   3.803   5.266   6.887
31544WAT     H194874   3.823   5.178   6.929
31544WAT     H294875   3.705   5.275   6.871
31545WAT      O94876   7.424   6.754   4.601
31545WAT     H194877   7.407   6.724   4.695
31545WAT     H294878   7.337   6.770   4.555
31546WAT      O94879   5.278   0.459   0.196
31546WAT     H194880   5.260   0.445   0.293
31546WAT     H294881   5.200   0.505   0.154
31547WAT      O94882   1.298   4.185   0.443
31547WAT     H194883   1.344   4.154   0.360
31547WAT     H294884   1.253   4.273   0.426
31548WAT      O94885   3.326   8.716   2.912
31548WAT     H194886   3.362   8.808   2.897
31548WAT     H294887   3.395   8.649   2.887
31549WAT      O94888   9.520   2.308   0.809
31549WAT     H194889   9.490   2.345   0.721
31549WAT     H294890   9.592   2.241   0.794
31550WAT      O94891   1.344   7.187   0.077
31550WAT     H194892   1.261   7.201   0.023
31550WAT     H294893   1.318   7.166   0.172
31551WAT      O94894   6.247   8.648   9.839
31551WAT     H194895   6.162   8.699   9.829
31551WAT     H294896   6.302   8.658   9.756
31552WAT      O94897   3.941   1.302   2.581
31552WAT     H194898   3.931   1.256   2.669
31552WAT     H294899   4.038   1.310   2.558
31553WAT      O94900   4.000   2.190   8.243
31553WAT     H194901   4.015   2.097   8.207
31553WAT     H294902   3.947   2.243   8.178
31554WAT      O94903   6.236   7.175   5.482
31554WAT     H194904   6.208   7.086   5.447
31554WAT     H294905   6.304   7.162   5.555
31555WAT      O94906   6.320   2.069   8.087
31555WAT     H194907   6.326   2.058   7.987
31555WAT     H294908   6.359   1.988   8.131
31556WAT      O94909   1.008   0.902   6.954
31556WAT     H194910   1.099   0.927   6.922
31556WAT     H294911   1.013   0.819   7.009
31557WAT      O94912   6.607   3.978   9.260
31557WAT     H194913   6.580   3.990   9.355
31557WAT     H294914   6.527   3.952   9.206
31558WAT      O94915   0.192   3.247   5.485
31558WAT     H194916   0.176   3.312   5.410
31558WAT     H294917   0.286   3.214   5.479
31559WAT      O94918   6.148   8.453   7.850
31559WAT     H194919   6.112   8.374   7.900
31559WAT     H294920   6.243   8.469   7.876
31560WAT      O94921   5.324   8.611   5.079
31560WAT     H194922   5.391   8.548   5.039
31560WAT     H294923   5.318   8.593   5.178
31561WAT      O94924   6.746   7.650   6.781
31561WAT     H194925   6.797   7.670   6.698
31561WAT     H294926   6.805   7.605   6.847
31562WAT      O94927   6.123   5.522   2.412
31562WAT     H194928   6.049   5.459   2.392
31562WAT     H294929   6.202   5.471   2.447
31563WAT      O94930   0.644   2.711   3.708
31563WAT     H194931   0.698   2.742   3.630
31563WAT     H294932   0.588   2.787   3.742
31564WAT      O94933   4.823   6.381   3.977
31564WAT     H194934   4.858   6.300   3.931
31564WAT     H294935   4.851   6.463   3.928
31565WAT      O94936   8.269   5.613   1.126
31565WAT     H194937   8.193   5.678   1.123
31565WAT     H294938   8.259   5.554   1.206
31566WAT      O94939   3.754   7.789   1.480
31566WAT     H194940   3.743   7.691   1.462
31566WAT     H294941   3.749   7.839   1.393
31567WAT      O94942   2.195   9.670   8.104
31567WAT     H194943   2.265   9.717   8.051
31567WAT     H294944   2.232   9.642   8.192
31568WAT      O94945   9.769   7.999   3.260
31568WAT     H194946   9.700   8.021   3.329
31568WAT     H294947   9.738   8.032   3.171
31569WAT      O94948   0.273   2.854   8.665
31569WAT     H194949   0.285   2.951   8.643
31569WAT     H294950   0.239   2.844   8.758
31570WAT      O94951   9.451   6.592   6.643
31570WAT     H194952   9.497   6.503   6.638
31570WAT     H294953   9.503   6.652   6.704
31571WAT      O94954   5.336   5.886   6.816
31571WAT     H194955   5.291   5.823   6.880
31571WAT     H294956   5.433   5.863   6.809
31572WAT      O94957   5.642   8.469   8.609
31572WAT     H194958   5.688   8.438   8.692
31572WAT     H294959   5.663   8.407   8.534
31573WAT      O94960   7.099   3.795   0.251
31573WAT     H194961   7.050   3.718   0.293
31573WAT     H294962   7.068   3.881   0.292
31574WAT      O94963   2.557   8.600   0.187
31574WAT     H194964   2.483   8.643   0.135
31574WAT     H294965   2.615   8.671   0.227
31575WAT      O94966   2.794   5.154   3.415
31575WAT     H194967   2.694   5.167   3.412
31575WAT     H294968   2.834   5.217   3.481
31576WAT      O94969   0.902   0.571   0.563
31576WAT     H194970   0.979   0.510   0.542
31576WAT     H294971   0.858   0.599   0.478
31577WAT      O94972   2.471   7.993   2.777
31577WAT     H194973   2.464   7.893   2.777
31577WAT     H294974   2.463   8.027   2.870
31578WAT      O94975   2.146   8.525   4.399
31578WAT     H194976   2.092   8.608   4.411
31578WAT     H294977   2.238   8.539   4.435
31579WAT      O94978   8.412   2.027   1.591
31579WAT     H194979   8.326   2.073   1.613
31579WAT     H294980   8.467   2.018   1.673
31580WAT      O94981   6.364   3.585   9.805
31580WAT     H194982   6.430   3.522   9.764
31580WAT     H294983   6.292   3.533   9.850
31581WAT      O94984   1.983   5.616   4.589
31581WAT     H194985   1.936   5.656   4.511
31581WAT     H294986   1.968   5.672   4.670
31582WAT      O94987   3.946   8.761   4.103
31582WAT     H194988   4.045   8.770   4.092
31582WAT     H294989   3.925   8.745   4.200
31583WAT      O94990   4.106   2.531   9.730
31583WAT     H194991   4.195   2.533   9.686
31583WAT     H294992   4.063   2.442   9.716
31584WAT      O94993   4.128   2.169   1.905
31584WAT     H194994   4.089   2.145   1.994
31584WAT     H294995   4.068   2.136   1.832
31585WAT      O94996   1.191   8.734   0.427
31585WAT     H194997   1.188   8.686   0.515
31585WAT     H294998   1.283   8.771   0.413
31586WAT      O94999   7.828   2.915   7.725
31586WAT     H195000   7.881   2.971   7.787
31586WAT     H295001   7.841   2.818   7.748
31587WAT      O95002   2.469   5.413   1.809
31587WAT     H195003   2.469   5.313   1.806
31587WAT     H295004   2.434   5.444   1.897
31588WAT      O95005   2.322   9.502   4.348
31588WAT     H195006   2.372   9.586   4.330
31588WAT     H295007   2.308   9.491   4.446
31589WAT      O95008   8.191   4.711   2.872
31589WAT     H195009   8.117   4.672   2.817
31589WAT     H295010   8.222   4.797   2.831
31590WAT      O95011   8.358   1.122   4.385
31590WAT     H195012   8.268   1.109   4.344
31590WAT     H295013   8.368   1.217   4.413
31591WAT      O95014   9.235   2.239   1.608
31591WAT     H195015   9.328   2.202   1.613
31591WAT     H295016   9.224   2.290   1.523
31592WAT      O95017   8.050   3.663   5.698
31592WAT     H195018   8.001   3.599   5.757
31592WAT     H295019   8.018   3.652   5.603
31593WAT      O95020   5.522   2.280   5.835
31593WAT     H195021   5.617   2.248   5.845
31593WAT     H295022   5.484   2.297   5.926
31594WAT      O95023   3.087   5.605   5.845
31594WAT     H195024   3.149   5.681   5.824
31594WAT     H295025   3.140   5.523   5.866
31595WAT      O95026   8.834   6.173   9.619
31595WAT     H195027   8.770   6.121   9.564
31595WAT     H295028   8.906   6.211   9.561
31596WAT      O95029   2.124   1.257   0.043
31596WAT     H195030   2.108   1.218  -0.048
31596WAT     H295031   2.174   1.191   0.099
31597WAT      O95032   5.739   7.298   1.109
31597WAT     H195033   5.695   7.367   1.052
31597WAT     H295034   5.793   7.236   1.051
31598WAT      O95035   4.415   3.689   6.133
31598WAT     H195036   4.360   3.658   6.210
31598WAT     H295037   4.511   3.665   6.150
31599WAT      O95038   8.106   1.491   8.470
31599WAT     H195039   8.142   1.405   8.436
31599WAT     H295040   8.168   1.566   8.445
31600WAT      O95041   3.234   2.651   4.599
31600WAT     H195042   3.224   2.728   4.536
31600WAT     H295043   3.292   2.679   4.677
31601WAT      O95044   4.980   8.821   5.614
31601WAT     H195045   4.952   8.726   5.626
31601WAT     H295046   4.940   8.857   5.530
31602WAT      O95047   0.097   8.077   7.749
31602WAT     H195048   0.159   8.026   7.690
31602WAT     H295049   0.147   8.110   7.829
31603WAT      O95050   7.243   4.235   1.746
31603WAT     H195051   7.297   4.233   1.661
31603WAT     H295052   7.305   4.232   1.824
31604WAT      O95053   0.686  -0.000   8.906
31604WAT     H195054   0.708   0.097   8.898
31604WAT     H295055   0.714  -0.033   8.997
31605WAT      O95056   4.222   3.289   3.876
31605WAT     H195057   4.297   3.354   3.874
31605WAT     H295058   4.171   3.295   3.790
31606WAT      O95059   3.983   3.517   2.850
31606WAT     H195060   4.000   3.580   2.774
31606WAT     H295061   4.007   3.424   2.822
31607WAT      O95062   0.850   3.313   8.218
31607WAT     H195063   0.864   3.407   8.187
31607WAT     H295064   0.888   3.250   8.151
31608WAT      O95065   8.236   3.089   1.017
31608WAT     H195066   8.199   3.001   1.047
31608WAT     H295067   8.216   3.102   0.920
31609WAT      O95068   5.516   3.620   4.467
31609WAT     H195069   5.420   3.647   4.466
31609WAT     H295070   5.574   3.702   4.469
31610WAT      O95071   4.195   2.145   6.244
31610WAT     H195072   4.122   2.089   6.203
31610WAT     H295073   4.183   2.240   6.216
31611WAT      O95074   9.590   2.798   8.578
31611WAT     H195075   9.689   2.807   8.592
31611WAT     H295076   9.542   2.835   8.657
31612WAT      O95077   2.316   1.695   4.539
31612WAT     H195078   2.374   1.770   4.572
31612WAT     H295079   2.374   1.623   4.501
31613WAT      O95080   5.951   6.067   5.003
31613WAT     H195081   6.040   6.089   4.963
31613WAT     H295082   5.954   6.086   5.101
31614WAT      O95083   6.286   1.568   2.598
31614WAT     H195084   6.205   1.563   2.540
31614WAT     H295085   6.319   1.662   2.601
31615WAT      O95086   3.913   1.602   8.594
31615WAT     H195087   3.967   1.685   8.586
31615WAT     H295088   3.883   1.590   8.689
31616WAT      O95089   1.330   0.033   0.191
31616WAT     H195090   1.270   0.066   0.119
31616WAT     H295091   1.398  -0.029   0.153
31617WAT      O95092   4.617   1.599   8.578
31617WAT     H195093   4.699   1.657   8.581
31617WAT     H295094   4.603   1.566   8.485
31618WAT      O95095   9.183   3.393   4.742
31618WAT     H195096   9.085   3.399   4.725
31618WAT     H295097   9.210   3.459   4.811
31619WAT      O95098   3.250   8.774   6.430
31619WAT     H195099   3.174   8.745   6.372
31619WAT     H295100   3.306   8.695   6.455
31620WAT      O95101   2.874   8.740   2.638
31620WAT     H195102   2.962   8.712   2.675
31620WAT     H295103   2.800   8.690   2.684
31621WAT      O95104   0.521   2.043   0.934
31621WAT     H195105   0.594   2.067   0.998
31621WAT     H295106   0.507   2.119   0.871
31622WAT      O95107   1.770   6.680   1.082
31622WAT     H195108   1.823   6.637   1.009
31622WAT     H295109   1.709   6.749   1.043
31623WAT      O95110   6.247   9.735   0.367
31623WAT     H195111   6.286   9.782   0.288
31623WAT     H295112   6.148   9.751   0.371
31624WAT      O95113   7.042   1.733   5.612
31624WAT     H195114   7.056   1.817   5.665
31624WAT     H295115   7.100   1.660   5.649
31625WAT      O95116   9.071   6.280   6.153
31625WAT     H195117   9.103   6.267   6.247
31625WAT     H295118   9.104   6.368   6.119
31626WAT      O95119   5.084   3.812   7.300
31626WAT     H195120   5.098   3.810   7.399
31626WAT     H295121   5.088   3.907   7.269
31627WAT      O95122   5.649   7.659   6.790
31627WAT     H195123   5.627   7.711   6.708
31627WAT     H295124   5.571   7.659   6.853
31628WAT      O95125   8.136   3.439   2.187
31628WAT     H195126   8.157   3.346   2.216
31628WAT     H295127   8.044   3.441   2.148
31629WAT      O95128   4.438   4.951   6.436
31629WAT     H195129   4.374   4.934   6.511
31629WAT     H295130   4.402   4.910   6.352
31630WAT      O95131   7.667   8.889   7.520
31630WAT     H195132   7.571   8.861   7.516
31630WAT     H295133   7.725   8.808   7.527
31631WAT      O95134   9.383   5.157   2.668
31631WAT     H195135   9.367   5.069   2.625
31631WAT     H295136   9.475   5.189   2.645
31632WAT      O95137   1.265   4.466   0.404
31632WAT     H195138   1.257   4.539   0.336
31632WAT     H295139   1.190   4.473   0.469
31633WAT      O95140   2.825   9.589   3.919
31633WAT     H195141   2.883   9.538   3.855
31633WAT     H295142   2.771   9.524   3.973
31634WAT      O95143   5.568   3.957   1.796
31634WAT     H195144   5.652   3.966   1.741
31634WAT     H295145   5.490   3.946   1.735
31635WAT      O95146   9.206   6.697   2.329
31635WAT     H195147   9.169   6.656   2.246
31635WAT     H295148   9.131   6.717   2.392
31636WAT      O95149   1.247   5.147   8.325
31636WAT     H195150   1.167   5.206   8.325
31636WAT     H295151   1.300   5.162   8.409
31637WAT      O95152   5.448   3.208   1.661
31637WAT     H195153   5.398   3.221   1.576
31637WAT     H295154   5.546   3.203   1.641
31638WAT      O95155   3.823   4.141   2.688
31638WAT     H195156   3.869   4.155   2.600
31638WAT     H295157   3.814   4.230   2.734
31639WAT      O95158   7.526   9.036   9.085
31639WAT     H195159   7.480   9.013   8.999
31639WAT     H295160   7.616   8.994   9.087
31640WAT      O95161   8.049   0.672   1.852
31640WAT     H195162   8.008   0.590   1.893
31640WAT     H295163   8.104   0.645   1.773
31641WAT      O95164   5.908   0.999   6.105
31641WAT     H195165   5.812   0.975   6.121
31641WAT     H295166   5.958   0.918   6.073
31642WAT      O95167   5.341   2.877   2.958
31642WAT     H195168   5.273   2.939   2.920
31642WAT     H295169   5.340   2.883   3.058
31643WAT      O95170   9.428   5.419   8.488
31643WAT     H195171   9.486   5.434   8.407
31643WAT     H295172   9.483   5.428   8.571
31644WAT      O95173   7.006   5.081   2.535
31644WAT     H195174   6.937   5.098   2.465
31644WAT     H295175   7.096   5.111   2.502
31645WAT      O95176   2.163   5.243   6.018
31645WAT     H195177   2.154   5.330   5.969
31645WAT     H295178   2.111   5.173   5.969
31646WAT      O95179   8.737   6.593   9.154
31646WAT     H195180   8.765   6.649   9.232
31646WAT     H295181   8.800   6.517   9.143
31647WAT      O95182   4.832   3.802   6.451
31647WAT     H195183   4.840   3.735   6.377
31647WAT     H295184   4.903   3.784   6.520
31648WAT      O95185   9.779   2.424   8.637
31648WAT     H195186   9.741   2.422   8.545
31648WAT     H295187   9.788   2.330   8.671
31649WAT      O95188   4.647   4.722   7.889
31649WAT     H195189   4.702   4.646   7.853
31649WAT     H295190   4.683   4.808   7.854
31650WAT      O95191   1.031   9.438   4.839
31650WAT     H195192   0.999   9.531   4.855
31650WAT     H295193   0.969   9.391   4.777
31651WAT      O95194   7.195   4.174   0.890
31651WAT     H195195   7.245   4.248   0.845
31651WAT     H295196   7.224   4.166   0.985
31652WAT      O95197   9.305   9.520   6.870
31652WAT     H195198   9.292   9.433   6.917
31652WAT     H295199   9.394   9.558   6.894
31653WAT      O95200   3.146   7.768   7.703
31653WAT     H195201   3.178   7.673   7.693
31653WAT     H295202   3.201   7.827   7.645
31654WAT      O95203   9.064   9.061   9.818
31654WAT     H195204   9.077   9.122   9.740
31654WAT     H295205   8.989   8.998   9.800
31655WAT      O95206   6.967   0.162   8.265
31655WAT     H195207   6.927   0.228   8.202
31655WAT     H295208   6.898   0.095   8.292
31656WAT      O95209   2.834   1.506   1.801
31656WAT     H195210   2.766   1.578   1.815
31656WAT     H295211   2.870   1.512   1.708
31657WAT      O95212   1.979   9.471   4.744
31657WAT     H195213   1.968   9.417   4.827
31657WAT     H295214   1.928   9.429   4.669
31658WAT      O95215   5.930   3.483   5.122
31658WAT     H195216   6.010   3.458   5.068
31658WAT     H295217   5.854   3.424   5.099
31659WAT      O95218   0.351   7.477   8.739
31659WAT     H195219   0.264   7.457   8.694
31659WAT     H295220   0.339   7.554   8.801
31660WAT      O95221   1.684   7.691   5.586
31660WAT     H195222   1.614   7.743   5.537
31660WAT     H295223   1.654   7.675   5.680
31661WAT      O95224   8.647   4.602   7.253
31661WAT     H195225   8.559   4.591   7.298
31661WAT     H295226   8.720   4.568   7.313
31662WAT      O95227   3.708   9.262   5.419
31662WAT     H195228   3.690   9.163   5.426
31662WAT     H295229   3.790   9.276   5.365
31663WAT      O95230   3.403   3.223   3.382
31663WAT     H195231   3.385   3.232   3.480
31663WAT     H295232   3.417   3.314   3.342
31664WAT      O95233   7.118   7.570   8.365
31664WAT     H195234   7.114   7.591   8.267
31664WAT     H295235   7.044   7.507   8.389
31665WAT      O95236   1.010   2.395   0.235
31665WAT     H195237   1.042   2.399   0.330
31665WAT     H295238   1.089   2.400   0.174
31666WAT      O95239   8.408   7.606   4.477
31666WAT     H195240   8.451   7.565   4.558
31666WAT     H295241   8.474   7.606   4.402
31667WAT      O95242   2.311   1.015   6.744
31667WAT     H195243   2.231   1.075   6.748
31667WAT     H295244   2.382   1.049   6.806
31668WAT      O95245   0.811   9.517   5.652
31668WAT     H195246   0.755   9.489   5.574
31668WAT     H295247   0.908   9.519   5.625
31669WAT      O95248   8.691   3.807   9.654
31669WAT     H195249   8.595   3.785   9.639
31669WAT     H295250   8.744   3.723   9.662
31670WAT      O95251   2.831   0.917   4.625
31670WAT     H195252   2.767   0.874   4.562
31670WAT     H295253   2.903   0.965   4.574
31671WAT      O95254   0.661   4.400   6.849
31671WAT     H195255   0.718   4.318   6.852
31671WAT     H295256   0.701   4.472   6.906
31672WAT      O95257   2.486   1.529   4.429
31672WAT     H195258   2.540   1.448   4.449
31672WAT     H295259   2.484   1.544   4.330
31673WAT      O95260   5.770   4.077   8.424
31673WAT     H195261   5.686   4.028   8.449
31673WAT     H295262   5.782   4.073   8.325
31674WAT      O95263   8.700   5.619   0.997
31674WAT     H195264   8.724   5.531   1.037
31674WAT     H295265   8.621   5.657   1.044
31675WAT      O95266   3.176   0.680   9.358
31675WAT     H195267   3.177   0.626   9.274
31675WAT     H295268   3.239   0.640   9.424
31676WAT      O95269   7.324   1.376   5.116
31676WAT     H195270   7.337   1.315   5.038
31676WAT     H295271   7.273   1.458   5.087
31677WAT      O95272   3.521   6.367   6.121
31677WAT     H195273   3.442   6.388   6.064
31677WAT     H295274   3.603   6.362   6.063
31678WAT      O95275   0.647   0.510   6.368
31678WAT     H195276   0.660   0.593   6.313
31678WAT     H295277   0.622   0.434   6.309
31679WAT      O95278   7.239   3.977   4.489
31679WAT     H195279   7.318   4.013   4.441
31679WAT     H295280   7.201   3.900   4.438
31680WAT      O95281   7.732   1.363   9.167
31680WAT     H195282   7.707   1.361   9.070
31680WAT     H295283   7.649   1.368   9.223
31681WAT      O95284   2.067   6.809   5.530
31681WAT     H195285   2.045   6.880   5.597
31681WAT     H295286   2.154   6.830   5.487
31682WAT      O95287   4.213   0.966   6.819
31682WAT     H195288   4.230   0.874   6.784
31682WAT     H295289   4.295   0.999   6.865
31683WAT      O95290   7.036   7.075   4.538
31683WAT     H195291   6.965   7.121   4.590
31683WAT     H295292   7.048   7.120   4.450
31684WAT      O95293   5.769   1.769   7.057
31684WAT     H195294   5.782   1.808   6.966
31684WAT     H295295   5.855   1.727   7.088
31685WAT      O95296   9.560   7.580   4.102
31685WAT     H195297   9.482   7.521   4.081
31685WAT     H295298   9.535   7.675   4.088
31686WAT      O95299   2.628   3.698   5.273
31686WAT     H195300   2.621   3.694   5.372
31686WAT     H295301   2.547   3.745   5.237
31687WAT      O95302   5.162   2.503   1.783
31687WAT     H195303   5.084   2.557   1.751
31687WAT     H295304   5.202   2.453   1.706
31688WAT      O95305   0.548   1.710   1.932
31688WAT     H195306   0.540   1.636   2.000
31688WAT     H295307   0.616   1.776   1.963
31689WAT      O95308   9.453   1.382   6.995
31689WAT     H195309   9.375   1.379   6.932
31689WAT     H295310   9.465   1.475   7.029
31690WAT      O95311   6.171   0.022   4.357
31690WAT     H195312   6.138  -0.034   4.281
31690WAT     H295313   6.252  -0.020   4.397
31691WAT      O95314   7.708   4.496   3.790
31691WAT     H195315   7.722   4.579   3.736
31691WAT     H295316   7.724   4.516   3.887
31692WAT      O95317   7.079   4.344   1.352
31692WAT     H195318   7.054   4.304   1.263
31692WAT     H295319   7.145   4.286   1.398
31693WAT      O95320   7.470   4.215   1.896
31693WAT     H195321   7.465   4.191   1.993
31693WAT     H295322   7.507   4.307   1.887
31694WAT      O95323   7.063   3.840   6.980
31694WAT     H195324   7.040   3.795   7.066
31694WAT     H295325   7.015   3.928   6.975
31695WAT      O95326   6.492   5.765   7.090
31695WAT     H195327   6.415   5.828   7.097
31695WAT     H295328   6.552   5.794   7.015
31696WAT      O95329   9.251   4.207   8.000
31696WAT     H195330   9.333   4.205   7.943
31696WAT     H295331   9.273   4.173   8.092
31697WAT      O95332   6.221   2.181   7.080
31697WAT     H195333   6.170   2.098   7.099
31697WAT     H295334   6.272   2.170   6.995
31698WAT      O95335   3.246   8.213   3.197
31698WAT     H195336   3.323   8.222   3.260
31698WAT     H295337   3.161   8.200   3.249
31699WAT      O95338   9.446   0.170   2.981
31699WAT     H195339   9.532   0.218   2.965
31699WAT     H295340   9.459   0.072   2.965
31700WAT      O95341   4.978   3.998   8.913
31700WAT     H195342   5.003   3.905   8.938
31700WAT     H295343   4.964   4.052   8.996
31701WAT      O95344   5.808   4.802   9.530
31701WAT     H195345   5.886   4.740   9.540
31701WAT     H295346   5.838   4.896   9.548
31702WAT      O95347   4.500   8.235   5.700
31702WAT     H195348   4.479   8.138   5.691
31702WAT     H295349   4.467   8.268   5.788
31703WAT      O95350   1.313   1.140   0.422
31703WAT     H195351   1.287   1.047   0.445
31703WAT     H295352   1.381   1.139   0.349
31704WAT      O95353   1.342   3.442   3.142
31704WAT     H195354   1.380   3.531   3.168
31704WAT     H295355   1.306   3.447   3.048
31705WAT      O95356   7.104   5.597   5.705
31705WAT     H195357   7.093   5.563   5.798
31705WAT     H295358   7.137   5.523   5.646
31706WAT      O95359   2.333   3.308   6.733
31706WAT     H195360   2.404   3.346   6.673
31706WAT     H295361   2.243   3.330   6.696
31707WAT      O95362   2.924   4.399   3.313
31707WAT     H195363   2.940   4.469   3.382
31707WAT     H295364   2.829   4.403   3.281
31708WAT      O95365   0.718   9.525   3.898
31708WAT     H195366   0.782   9.493   3.828
31708WAT     H295367   0.666   9.603   3.862
31709WAT      O95368   2.772   0.533   7.017
31709WAT     H195369   2.793   0.436   7.020
31709WAT     H295370   2.696   0.548   6.953
31710WAT      O95371   4.374   7.337   2.273
31710WAT     H195372   4.380   7.313   2.176
31710WAT     H295373   4.285   7.309   2.309
31711WAT      O95374   4.420   6.399   0.584
31711WAT     H195375   4.342   6.461   0.569
31711WAT     H295376   4.395   6.330   0.652
31712WAT      O95377   9.095   1.582   9.058
31712WAT     H195378   8.998   1.557   9.064
31712WAT     H295379   9.152   1.500   9.065
31713WAT      O95380   7.251   1.199   6.522
31713WAT     H195381   7.329   1.202   6.459
31713WAT     H295382   7.186   1.271   6.498
31714WAT      O95383   3.163   5.827   0.392
31714WAT     H195384   3.184   5.854   0.298
31714WAT     H295385   3.105   5.745   0.392
31715WAT      O95386   4.622   8.552   6.594
31715WAT     H195387   4.711   8.564   6.550
31715WAT     H295388   4.574   8.640   6.594
31716WAT      O95389   4.168   5.791   7.948
31716WAT     H195390   4.241   5.773   7.882
31716WAT     H295391   4.081   5.801   7.900
31717WAT      O95392   1.101   1.790   6.880
31717WAT     H195393   1.045   1.708   6.868
31717WAT     H295394   1.195   1.764   6.899
31718WAT      O95395   0.643   4.438   5.067
31718WAT     H195396   0.712   4.376   5.032
31718WAT     H295397   0.681   4.493   5.141
31719WAT      O95398   5.804   2.837   0.969
31719WAT     H195399   5.788   2.902   0.894
31719WAT     H295400   5.754   2.752   0.951
31720WAT      O95401   8.294   2.950   5.332
31720WAT     H195402   8.247   2.901   5.259
31720WAT     H295403   8.368   2.893   5.368
31721WAT      O95404   1.371   6.709   2.460
31721WAT     H195405   1.407   6.695   2.368
31721WAT     H295406   1.439   6.758   2.516
31722WAT      O95407   0.498   0.316   7.801
31722WAT     H195408   0.409   0.362   7.805
31722WAT     H295409   0.568   0.381   7.771
31723WAT      O95410   1.715   0.473   2.236
31723WAT     H195411   1.644   0.433   2.178
31723WAT     H295412   1.679   0.555   2.281
31724WAT      O95413   6.507   6.777   2.688
31724WAT     H195414   6.537   6.789   2.594
31724WAT     H295415   6.428   6.715   2.690
31725WAT      O95416   8.679   1.763   1.937
31725WAT     H195417   8.776   1.755   1.962
31725WAT     H295418   8.628   1.690   1.983
31726WAT      O95419   1.111   2.068   2.074
31726WAT     H195420   1.067   2.008   2.141
31726WAT     H295421   1.180   2.016   2.023
31727WAT      O95422   0.314   8.892   1.925
31727WAT     H195423   0.372   8.969   1.952
31727WAT     H295424   0.250   8.922   1.855
31728WAT      O95425   4.463   3.573   7.928
31728WAT     H195426   4.510   3.485   7.924
31728WAT     H295427   4.410   3.580   8.012
31729WAT      O95428   8.152   1.498   0.191
31729WAT     H195429   8.199   1.506   0.278
31729WAT     H295430   8.166   1.582   0.138
31730WAT      O95431   9.727   0.780   4.916
31730WAT     H195432   9.748   0.825   5.003
31730WAT     H295433   9.628   0.785   4.899
31731WAT      O95434   3.822   6.071   4.845
31731WAT     H195435   3.851   6.147   4.902
31731WAT     H295436   3.733   6.091   4.805
31732WAT      O95437   6.585   0.211   1.072
31732WAT     H195438   6.553   0.305   1.059
31732WAT     H295439   6.512   0.158   1.115
31733WAT      O95440   6.858   8.482   8.335
31733WAT     H195441   6.881   8.496   8.431
31733WAT     H295442   6.907   8.402   8.300
31734WAT      O95443   7.310   5.759   2.941
31734WAT     H195444   7.259   5.823   2.998
31734WAT     H295445   7.295   5.781   2.845
31735WAT      O95446   2.895   8.070   1.043
31735WAT     H195447   2.845   8.092   0.959
31735WAT     H295448   2.947   7.985   1.029
31736WAT      O95449   3.986   0.225   7.694
31736WAT     H195450   4.043   0.303   7.718
31736WAT     H295451   4.002   0.151   7.759
31737WAT      O95452   2.572   3.705   0.684
31737WAT     H195453   2.566   3.625   0.624
31737WAT     H295454   2.600   3.677   0.775
31738WAT      O95455   0.348   3.648   1.921
31738WAT     H195456   0.355   3.696   1.833
31738WAT     H295457   0.303   3.560   1.907
31739WAT      O95458   6.604   0.953   0.716
31739WAT     H195459   6.516   0.985   0.682
31739WAT     H295460   6.674   1.021   0.697
31740WAT      O95461   5.346   1.590   2.736
31740WAT     H195462   5.364   1.497   2.770
31740WAT     H295463   5.288   1.584   2.655
31741WAT      O95464   3.064   7.888   6.799
31741WAT     H195465   3.151   7.937   6.794
31741WAT     H295466   2.989   7.951   6.779
31742WAT      O95467   0.429   0.527   4.311
31742WAT     H195468   0.351   0.554   4.368
31742WAT     H295469   0.402   0.523   4.215
31743WAT      O95470   2.087   8.866   7.391
31743WAT     H195471   2.184   8.885   7.378
31743WAT     H295472   2.050   8.928   7.461
31744WAT      O95473   2.457   3.093   2.594
31744WAT     H195474   2.360   3.114   2.592
31744WAT     H295475   2.509   3.178   2.602
31745WAT      O95476   9.515   3.802   6.993
31745WAT     H195477   9.425   3.845   6.987
31745WAT     H295478   9.578   3.864   7.040
31746WAT      O95479   6.562   4.179   1.848
31746WAT     H195480   6.645   4.207   1.897
31746WAT     H295481   6.484   4.230   1.884
31747WAT      O95482   4.617   7.901   0.961
31747WAT     H195483   4.611   7.965   1.037
31747WAT     H295484   4.528   7.896   0.914
31748WAT      O95485   6.675   4.305   4.232
31748WAT     H195486   6.624   4.326   4.148
31748WAT     H295487   6.666   4.208   4.253
31749WAT      O95488   9.392   0.421   9.041
31749WAT     H195489   9.311   0.448   9.094
31749WAT     H295490   9.451   0.500   9.026
31750WAT      O95491   5.825   5.762   3.866
31750WAT     H195492   5.914   5.780   3.907
31750WAT     H295493   5.761   5.835   3.893
31751WAT      O95494   6.915   2.422   5.588
31751WAT     H195495   6.866   2.498   5.629
31751WAT     H295496   6.944   2.445   5.496
31752WAT      O95497   1.587   6.103   3.945
31752WAT     H195498   1.592   6.007   3.972
31752WAT     H295499   1.564   6.159   4.024
31753WAT      O95500   1.915   5.798   9.283
31753WAT     H195501   1.839   5.741   9.249
31753WAT     H295502   1.937   5.771   9.377
31754WAT      O95503   0.320   7.285   6.288
31754WAT     H195504   0.371   7.233   6.356
31754WAT     H295505   0.231   7.241   6.272
31755WAT      O95506   6.482   1.305   2.915
31755WAT     H195507   6.431   1.231   2.872
31755WAT     H295508   6.420   1.364   2.966
31756WAT      O95509   9.779   5.542   7.600
31756WAT     H195510   9.761   5.621   7.659
31756WAT     H295511   9.843   5.481   7.645
31757WAT      O95512   9.873   1.203   3.432
31757WAT     H195513   9.845   1.261   3.355
31757WAT     H295514   9.796   1.145   3.460
31758WAT      O95515   4.490   5.466   4.708
31758WAT     H195516   4.441   5.533   4.763
31758WAT     H295517   4.507   5.503   4.617
31759WAT      O95518   9.461   9.755   0.528
31759WAT     H195519   9.431   9.660   0.532
31759WAT     H295520   9.495   9.776   0.436
31760WAT      O95521   9.070   1.077   9.094
31760WAT     H195522   9.036   1.074   9.188
31760WAT     H295523   9.143   1.009   9.083
31761WAT      O95524   8.321   4.200   1.377
31761WAT     H195525   8.279   4.175   1.464
31761WAT     H295526   8.364   4.289   1.384
31762WAT      O95527   0.935   1.270   5.969
31762WAT     H195528   0.913   1.201   6.038
31762WAT     H295529   0.982   1.347   6.013
31763WAT      O95530   2.973   0.462   0.171
31763WAT     H195531   2.949   0.552   0.137
31763WAT     H295532   2.930   0.447   0.260
31764WAT      O95533   1.807   0.289   5.917
31764WAT     H195534   1.746   0.239   5.979
31764WAT     H295535   1.823   0.381   5.954
31765WAT      O95536   1.474   0.517   9.872
31765WAT     H195537   1.504   0.491   9.964
31765WAT     H295538   1.410   0.448   9.837
31766WAT      O95539   2.292   1.742   9.543
31766WAT     H195540   2.223   1.716   9.476
31766WAT     H295541   2.263   1.824   9.592
31767WAT      O95542   2.971   7.578   1.663
31767WAT     H195543   3.020   7.498   1.629
31767WAT     H295544   3.025   7.660   1.643
31768WAT      O95545   8.373   0.331   8.500
31768WAT     H195546   8.322   0.367   8.422
31768WAT     H295547   8.312   0.281   8.561
31769WAT      O95548   5.115   5.318   4.351
31769WAT     H195549   5.044   5.257   4.317
31769WAT     H295550   5.205   5.275   4.340
31770WAT      O95551   8.643   7.586   3.115
31770WAT     H195552   8.549   7.551   3.120
31770WAT     H295553   8.657   7.653   3.188
31771WAT      O95554   2.884   1.217   1.274
31771WAT     H195555   2.805   1.197   1.216
31771WAT     H295556   2.928   1.302   1.244
31772WAT      O95557   6.236   0.646   9.622
31772WAT     H195558   6.287   0.728   9.597
31772WAT     H295559   6.212   0.595   9.539
31773WAT      O95560   0.757   6.656   7.995
31773WAT     H195561   0.697   6.730   7.965
31773WAT     H295562   0.852   6.688   7.995
31774WAT      O95563   8.355   3.319   9.147
31774WAT     H195564   8.280   3.383   9.159
31774WAT     H295565   8.334   3.256   9.073
31775WAT      O95566   5.748   0.142   6.569
31775WAT     H195567   5.739   0.230   6.521
31775WAT     H295568   5.837   0.101   6.547
31776WAT      O95569   2.180   2.190   7.580
31776WAT     H195570   2.128   2.221   7.501
31776WAT     H295571   2.126   2.204   7.663
31777WAT      O95572   4.056   4.460   0.804
31777WAT     H195573   4.069   4.552   0.841
31777WAT     H295574   4.034   4.397   0.879
31778WAT      O95575   1.577   4.783   1.078
31778WAT     H195576   1.625   4.708   1.124
31778WAT     H295577   1.641   4.857   1.059
31779WAT      O95578   6.527   3.772   0.140
31779WAT     H195579   6.581   3.775   0.056
31779WAT     H295580   6.580   3.812   0.215
31780WAT      O95581   1.732   2.947   7.286
31780WAT     H195582   1.659   2.961   7.352
31780WAT     H295583   1.703   2.977   7.196
31781WAT      O95584   2.546   8.258   7.712
31781WAT     H195585   2.511   8.180   7.661
31781WAT     H295586   2.474   8.295   7.770
31782WAT      O95587   1.476   9.129   2.199
31782WAT     H195588   1.451   9.195   2.270
31782WAT     H295589   1.565   9.089   2.222
31783WAT      O95590   3.507   5.708   3.480
31783WAT     H195591   3.495   5.716   3.381
31783WAT     H295592   3.566   5.630   3.500
31784WAT      O95593   2.830   4.743   9.692
31784WAT     H195594   2.885   4.758   9.774
31784WAT     H295595   2.743   4.700   9.716
31785WAT      O95596   0.523   5.375   5.629
31785WAT     H195597   0.519   5.423   5.542
31785WAT     H295598   0.538   5.442   5.703
31786WAT      O95599   6.207   8.250   8.898
31786WAT     H195600   6.198   8.340   8.942
31786WAT     H295601   6.130   8.236   8.836
31787WAT      O95602   0.961   0.194   6.841
31787WAT     H195603   0.954   0.205   6.941
31787WAT     H295604   1.052   0.160   6.818
31788WAT      O95605   2.529   4.224   1.581
31788WAT     H195606   2.465   4.189   1.514
31788WAT     H295607   2.497   4.203   1.674
31789WAT      O95608   7.464   8.016   9.746
31789WAT     H195609   7.531   8.023   9.820
31789WAT     H295610   7.375   8.049   9.780
31790WAT      O95611   6.120   7.831   7.456
31790WAT     H195612   6.128   7.842   7.357
31790WAT     H295613   6.086   7.739   7.477
31791WAT      O95614   8.336   3.470   5.675
31791WAT     H195615   8.242   3.500   5.692
31791WAT     H295616   8.343   3.372   5.692
31792WAT      O95617   6.299   3.364   1.425
31792WAT     H195618   6.299   3.265   1.435
31792WAT     H295619   6.205   3.395   1.406
31793WAT      O95620   9.686   7.344   7.854
31793WAT     H195621   9.591   7.314   7.851
31793WAT     H295622   9.706   7.396   7.770
31794WAT      O95623   0.747   8.170   8.174
31794WAT     H195624   0.846   8.186   8.181
31794WAT     H295625   0.707   8.175   8.265
31795WAT      O95626   1.668   2.184   6.968
31795WAT     H195627   1.760   2.155   6.942
31795WAT     H295628   1.672   2.233   7.055
31796WAT      O95629   8.644   9.211   9.469
31796WAT     H195630   8.717   9.179   9.409
31796WAT     H295631   8.635   9.310   9.460
31797WAT      O95632   8.762   5.753   4.042
31797WAT     H195633   8.826   5.763   3.966
31797WAT     H295634   8.714   5.665   4.035
31798WAT      O95635   1.481   4.489   9.666
31798WAT     H195636   1.422   4.569   9.662
31798WAT     H295637   1.577   4.517   9.660
31799WAT      O95638   9.673   5.171   8.983
31799WAT     H195639   9.711   5.261   9.005
31799WAT     H295640   9.582   5.163   9.023
31800WAT      O95641   2.586   4.478   9.500
31800WAT     H195642   2.572   4.533   9.418
31800WAT     H295643   2.548   4.386   9.485
31801WAT      O95644   8.653   7.021   0.142
31801WAT     H195645   8.571   7.064   0.105
31801WAT     H295646   8.685   7.072   0.222
31802WAT      O95647   7.651   3.243   5.960
31802WAT     H195648   7.582   3.177   5.929
31802WAT     H295649   7.741   3.200   5.957
31803WAT      O95650   3.083   1.200   8.850
31803WAT     H195651   2.994   1.173   8.815
31803WAT     H295652   3.087   1.300   8.857
31804WAT      O95653   4.961   2.019   2.819
31804WAT     H195654   4.994   1.925   2.823
31804WAT     H295655   5.033   2.079   2.784
31805WAT      O95656   5.628   9.523   4.035
31805WAT     H195657   5.554   9.572   4.080
31805WAT     H295658   5.597   9.431   4.010
31806WAT      O95659   7.261   3.520   2.297
31806WAT     H195660   7.202   3.551   2.223
31806WAT     H295661   7.215   3.534   2.385
31807WAT      O95662   7.161   9.617   9.187
31807WAT     H195663   7.170   9.714   9.208
31807WAT     H295664   7.083   9.603   9.126
31808WAT      O95665   0.372   1.396   5.130
31808WAT     H195666   0.471   1.387   5.144
31808WAT     H295667   0.338   1.473   5.182
31809WAT      O95668   2.172   8.105   6.717
31809WAT     H195669   2.152   8.044   6.640
31809WAT     H295670   2.177   8.199   6.685
31810WAT      O95671   2.341   2.603   3.718
31810WAT     H195672   2.370   2.513   3.685
31810WAT     H295673   2.251   2.595   3.762
31811WAT      O95674   5.341   7.374   4.456
31811WAT     H195675   5.286   7.449   4.492
31811WAT     H295676   5.430   7.373   4.502
31812WAT      O95677   3.980   6.216   5.793
31812WAT     H195678   3.946   6.220   5.699
31812WAT     H295679   4.010   6.307   5.822
31813WAT      O95680   2.677   7.634   6.121
31813WAT     H195681   2.685   7.731   6.098
31813WAT     H295682   2.731   7.579   6.057
31814WAT      O95683   8.855   0.132   0.923
31814WAT     H195684   8.780   0.112   0.860
31814WAT     H295685   8.917   0.198   0.881
31815WAT      O95686   0.448   8.062   0.946
31815WAT     H195687   0.451   8.013   1.034
31815WAT     H295688   0.384   8.016   0.885
31816WAT      O95689   1.712   5.140   1.555
31816WAT     H195690   1.736   5.235   1.537
31816WAT     H295691   1.774   5.080   1.503
31817WAT      O95692   1.059   9.239   9.038
31817WAT     H195693   0.964   9.269   9.044
31817WAT     H295694   1.104   9.252   9.126
31818WAT      O95695   2.326   0.947   5.927
31818WAT     H195696   2.238   0.936   5.974
31818WAT     H295697   2.314   1.008   5.849
31819WAT      O95698   1.741   6.887   1.680
31819WAT     H195699   1.723   6.889   1.778
31819WAT     H295700   1.837   6.907   1.663
31820WAT      O95701   7.747   0.798   1.094
31820WAT     H195702   7.774   0.794   0.998
31820WAT     H295703   7.754   0.706   1.134
31821WAT      O95704   0.013   2.877   7.823
31821WAT     H195705   0.052   2.938   7.755
31821WAT     H295706  -0.020   2.930   7.901
31822WAT      O95707   1.544   5.323   7.312
31822WAT     H195708   1.594   5.236   7.306
31822WAT     H295709   1.545   5.369   7.223
31823WAT      O95710   0.814   5.125   8.116
31823WAT     H195711   0.881   5.068   8.069
31823WAT     H295712   0.722   5.104   8.082
31824WAT      O95713   6.765   9.254   4.464
31824WAT     H195714   6.782   9.302   4.550
31824WAT     H295715   6.852   9.235   4.418
31825WAT      O95716   9.852   5.956   9.176
31825WAT     H195717   9.855   5.945   9.077
31825WAT     H295718   9.945   5.954   9.212
31826WAT      O95719   6.155   9.022   7.203
31826WAT     H195720   6.233   8.959   7.209
31826WAT     H295721   6.174   9.091   7.133
31827WAT      O95722   4.058   2.604   2.787
31827WAT     H195723   4.025   2.665   2.859
31827WAT     H295724   4.063   2.511   2.823
31828WAT      O95725   9.733   4.299   6.674
31828WAT     H195726   9.800   4.230   6.647
31828WAT     H295727   9.766   4.348   6.755
31829WAT      O95728   2.085   5.540   9.395
31829WAT     H195729   2.119   5.577   9.308
31829WAT     H295730   2.140   5.461   9.422
31830WAT      O95731   2.291   0.926   1.735
31830WAT     H195732   2.377   0.875   1.745
31830WAT     H295733   2.289   0.970   1.645
31831WAT      O95734   6.289   5.767   8.110
31831WAT     H195735   6.365   5.745   8.049
31831WAT     H295736   6.213   5.705   8.092
31832WAT      O95737   0.420   4.953   8.864
31832WAT     H195738   0.321   4.946   8.861
31832WAT     H295739   0.448   4.994   8.951
31833WAT      O95740   2.529   3.885   7.973
31833WAT     H195741   2.519   3.960   8.039
31833WAT     H295742   2.511   3.798   8.019
31834WAT      O95743   5.196   8.641   7.992
31834WAT     H195744   5.224   8.546   7.997
31834WAT     H295745   5.162   8.662   7.900
31835WAT      O95746   3.654   1.831   0.933
31835WAT     H195747   3.656   1.845   1.032
31835WAT     H295748   3.592   1.755   0.912
31836WAT      O95749   3.772   8.398   1.280
31836WAT     H195750   3.776   8.463   1.356
31836WAT     H295751   3.768   8.447   1.194
31837WAT      O95752   9.428   6.506   0.287
31837WAT     H195753   9.330   6.524   0.297
31837WAT     H295754   9.479   6.591   0.301
31838WAT      O95755   9.797   2.024   6.658
31838WAT     H195756   9.891   2.024   6.623
31838WAT     H295757   9.780   2.108   6.709
31839WAT      O95758   0.169   2.898   5.387
31839WAT     H195759   0.099   2.861   5.448
31839WAT     H295760   0.234   2.826   5.363
31840WAT      O95761   4.179   3.988   6.886
31840WAT     H195762   4.274   3.962   6.900
31840WAT     H295763   4.164   4.081   6.919
31841WAT      O95764   3.824   0.564   0.749
31841WAT     H195765   3.777   0.595   0.832
31841WAT     H295766   3.896   0.499   0.774
31842WAT      O95767   1.684   8.318   7.200
31842WAT     H195768   1.697   8.219   7.201
31842WAT     H295769   1.615   8.342   7.131
31843WAT      O95770   0.927   3.626   9.220
31843WAT     H195771   0.880   3.617   9.308
31843WAT     H295772   1.015   3.672   9.233
31844WAT      O95773   5.536   3.450   5.709
31844WAT     H195774   5.606   3.401   5.762
31844WAT     H295775   5.470   3.491   5.771
31845WAT      O95776   1.613   2.717   8.956
31845WAT     H195777   1.601   2.619   8.941
31845WAT     H295778   1.706   2.736   8.987
31846WAT      O95779   9.405   8.632   2.416
31846WAT     H195780   9.470   8.648   2.490
31846WAT     H295781   9.429   8.548   2.367
31847WAT      O95782   7.042   3.033   9.819
31847WAT     H195783   6.985   3.009   9.898
31847WAT     H295784   7.042   2.957   9.754
31848WAT      O95785   0.522   5.228   4.538
31848WAT     H195786   0.590   5.289   4.497
31848WAT     H295787   0.453   5.283   4.586
31849WAT      O95788   4.779   6.481   5.881
31849WAT     H195789   4.700   6.541   5.868
31849WAT     H295790   4.842   6.523   5.946
31850WAT      O95791   3.509   7.600   5.279
31850WAT     H195792   3.564   7.542   5.339
31850WAT     H295793   3.416   7.564   5.273
31851WAT      O95794   8.836   9.178   1.605
31851WAT     H195795   8.839   9.089   1.649
31851WAT     H295796   8.914   9.188   1.543
31852WAT      O95797   7.450   9.402   5.476
31852WAT     H195798   7.396   9.337   5.424
31852WAT     H295799   7.544   9.402   5.443
31853WAT      O95800   5.561   4.715   0.817
31853WAT     H195801   5.551   4.805   0.775
31853WAT     H295802   5.471   4.681   0.844
31854WAT      O95803   4.933   3.441   1.820
31854WAT     H195804   4.878   3.392   1.887
31854WAT     H295805   5.022   3.397   1.811
31855WAT      O95806   1.084   3.993   2.237
31855WAT     H195807   1.040   4.077   2.270
31855WAT     H295808   1.183   4.000   2.248
31856WAT      O95809   7.581   3.305   5.577
31856WAT     H195810   7.581   3.219   5.526
31856WAT     H295811   7.487   3.334   5.594
31857WAT      O95812   1.642   0.321   7.265
31857WAT     H195813   1.703   0.283   7.334
31857WAT     H295814   1.665   0.282   7.175
31858WAT      O95815   6.518   8.941   9.406
31858WAT     H195816   6.567   9.018   9.448
31858WAT     H295817   6.537   8.939   9.308
31859WAT      O95818   1.151   2.737   7.078
31859WAT     H195819   1.074   2.799   7.093
31859WAT     H295820   1.236   2.788   7.077
31860WAT      O95821   0.553   1.255   2.074
31860WAT     H195822   0.585   1.222   2.163
31860WAT     H295823   0.621   1.316   2.033
31861WAT      O95824   2.512   2.962   8.038
31861WAT     H195825   2.542   3.026   7.967
31861WAT     H295826   2.448   2.896   7.999
31862WAT      O95827   4.339   3.436   4.837
31862WAT     H195828   4.435   3.439   4.809
31862WAT     H295829   4.291   3.516   4.802
31863WAT      O95830   9.448   8.381   1.254
31863WAT     H195831   9.373   8.422   1.203
31863WAT     H295832   9.479   8.445   1.325
31864WAT      O95833   3.378   3.851   4.630
31864WAT     H195834   3.315   3.792   4.680
31864WAT     H295835   3.468   3.808   4.626
31865WAT      O95836   6.106   7.146   1.287
31865WAT     H195837   6.159   7.065   1.265
31865WAT     H295838   6.028   7.121   1.345
31866WAT      O95839   0.049   3.572   7.600
31866WAT     H195840   0.039   3.591   7.503
31866WAT     H295841  -0.001   3.488   7.624
31867WAT      O95842   0.190   8.034   1.429
31867WAT     H195843   0.102   8.021   1.383
31867WAT     H295844   0.264   8.020   1.364
31868WAT      O95845   1.851   5.120   7.527
31868WAT     H195846   1.857   5.220   7.533
31868WAT     H295847   1.771   5.088   7.576
31869WAT      O95848   3.373   0.589   2.633
31869WAT     H195849   3.450   0.637   2.589
31869WAT     H295850   3.298   0.582   2.568
31870WAT      O95851   3.113   8.629   5.975
31870WAT     H195852   3.047   8.594   5.909
31870WAT     H295853   3.203   8.636   5.931
31871WAT      O95854   0.822   5.583   7.155
31871WAT     H195855   0.843   5.491   7.188
31871WAT     H295856   0.792   5.579   7.060
31872WAT      O95857   0.266   5.579   9.047
31872WAT     H195858   0.298   5.609   9.136
31872WAT     H295859   0.216   5.493   9.056
31873WAT      O95860   0.012   2.524   5.206
31873WAT     H195861  -0.000   2.470   5.123
31873WAT     H295862   0.023   2.621   5.182
31874WAT      O95863   3.858   4.411   8.352
31874WAT     H195864   3.853   4.329   8.294
31874WAT     H295865   3.835   4.386   8.446
31875WAT      O95866   5.392   9.594   3.690
31875WAT     H195867   5.334   9.605   3.609
31875WAT     H295868   5.356   9.520   3.747
31876WAT      O95869   7.565   9.523   3.610
31876WAT     H195870   7.664   9.520   3.628
31876WAT     H295871   7.534   9.618   3.612
31877WAT      O95872   4.812   5.663   3.310
31877WAT     H195873   4.905   5.625   3.318
31877WAT     H295874   4.746   5.592   3.334
31878WAT      O95875   0.957   5.041   4.989
31878WAT     H195876   0.969   4.994   4.901
31878WAT     H295877   0.889   4.993   5.044
31879WAT      O95878   0.089   0.772   6.459
31879WAT     H195879   0.114   0.798   6.552
31879WAT     H295880   0.004   0.819   6.433
31880WAT      O95881   6.681   5.798   7.389
31880WAT     H195882   6.678   5.836   7.297
31880WAT     H295883   6.772   5.813   7.429
31881WAT      O95884   0.968   3.102   9.243
31881WAT     H195885   1.017   3.163   9.180
31881WAT     H295886   0.874   3.090   9.210
31882WAT      O95887   3.011   5.704   2.970
31882WAT     H195888   3.008   5.763   3.050
31882WAT     H295889   3.106   5.691   2.942
31883WAT      O95890   0.841   5.998   6.832
31883WAT     H195891   0.817   6.093   6.812
31883WAT     H295892   0.939   5.992   6.851
31884WAT      O95893   2.984   4.679   7.751
31884WAT     H195894   2.978   4.616   7.829
31884WAT     H295895   2.934   4.640   7.674
31885WAT      O95896   1.413   3.168   0.209
31885WAT     H195897   1.355   3.224   0.268
31885WAT     H295898   1.475   3.227   0.158
31886WAT      O95899   1.267   0.132   0.891
31886WAT     H195900   1.339   0.126   0.822
31886WAT     H295901   1.297   0.085   0.974
31887WAT      O95902   6.622   1.245   1.123
31887WAT     H195903   6.705   1.193   1.144
31887WAT     H295904   6.550   1.221   1.188
31888WAT      O95905   5.215   3.022   2.634
31888WAT     H195906   5.254   2.931   2.622
31888WAT     H295907   5.140   3.035   2.569
31889WAT      O95908   4.399   7.705   7.104
31889WAT     H195909   4.482   7.697   7.160
31889WAT     H295910   4.354   7.793   7.124
31890WAT      O95911   6.586   5.095   5.801
31890WAT     H195912   6.585   5.034   5.881
31890WAT     H295913   6.511   5.160   5.807
31891WAT      O95914   3.120   3.221   9.406
31891WAT     H195915   3.026   3.250   9.390
31891WAT     H295916   3.139   3.139   9.352
31892WAT      O95917   0.453   8.011   1.875
31892WAT     H195918   0.539   7.969   1.844
31892WAT     H295919   0.466   8.110   1.882
31893WAT      O95920   7.836   2.386   8.450
31893WAT     H195921   7.808   2.311   8.510
31893WAT     H295922   7.933   2.404   8.461
31894WAT      O95923   4.829   8.584   7.143
31894WAT     H195924   4.808   8.646   7.218
31894WAT     H295925   4.746   8.536   7.115
31895WAT      O95926   7.463   7.679   8.419
31895WAT     H195927   7.562   7.664   8.411
31895WAT     H295928   7.419   7.594   8.446
31896WAT      O95929   0.546   0.789   8.821
31896WAT     H195930   0.638   0.758   8.797
31896WAT     H295931   0.483   0.711   8.817
31897WAT      O95932   9.193   2.724   4.103
31897WAT     H195933   9.100   2.708   4.135
31897WAT     H295934   9.256   2.718   4.180
31898WAT      O95935   2.717   6.807   2.687
31898WAT     H195936   2.749   6.728   2.739
31898WAT     H295937   2.617   6.812   2.693
31899WAT      O95938   2.965   2.849   9.489
31899WAT     H195939   2.989   2.881   9.580
31899WAT     H295940   2.951   2.750   9.491
   9.88928    9.84380    9.89279 
