GROningen MAchine for Chemical Simulation
95940
    1G5    HO5'    1   5.393   3.782   2.376
    1G5     O5'    2   5.433   3.754   2.459
    1G5     C5'    3   5.462   3.612   2.456
    1G5     H5'    4   5.399   3.571   2.378
    1G5    H5''    5   5.439   3.558   2.548
    1G5     C4'    6   5.609   3.580   2.423
    1G5     H4'    7   5.625   3.472   2.434
    1G5     O4'    8   5.646   3.637   2.291
    1G5     C1'    9   5.776   3.689   2.306
    1G5     H1'   10   5.849   3.655   2.232
    1G5      N9   11   5.761   3.837   2.290
    1G5      C8   12   5.656   3.901   2.231
    1G5      H8   13   5.569   3.849   2.193
    1G5      N7   14   5.673   4.027   2.220
    1G5      C5   15   5.806   4.049   2.260
    1G5      C6   16   5.885   4.167   2.263
    1G5      O6   17   5.848   4.282   2.233
    1G5      N1   18   6.017   4.146   2.299
    1G5      H1   19   6.071   4.231   2.305
    1G5      C2   20   6.061   4.020   2.327
    1G5      N2   21   6.187   4.021   2.351
    1G5     H21   22   6.242   4.105   2.360
    1G5     H22   23   6.222   3.932   2.384
    1G5      N3   24   5.990   3.911   2.336
    1G5      C4   25   5.859   3.932   2.303
    1G5     C3'   26   5.709   3.641   2.517
    1G5     H3'   27   5.674   3.741   2.544
    1G5     C2'   28   5.835   3.645   2.436
    1G5     H2'   29   5.906   3.713   2.482
    1G5     O2'   30   5.888   3.520   2.408
    1G5    HO2'   31   5.908   3.474   2.490
    1G5     O3'   32   5.736   3.558   2.632
    2G        P   33   5.747   3.611   2.775
    2G      OP1   34   5.794   3.498   2.864
    2G      OP2   35   5.621   3.680   2.805
    2G      O5'   36   5.856   3.717   2.773
    2G      C5'   37   5.990   3.686   2.765
    2G      H5'   38   6.005   3.625   2.676
    2G     H5''   39   6.010   3.619   2.849
    2G      C4'   40   6.084   3.817   2.769
    2G      H4'   41   6.189   3.789   2.772
    2G      O4'   42   6.078   3.894   2.649
    2G      C1'   43   6.096   4.028   2.676
    2G      H1'   44   6.182   4.071   2.624
    2G       N9   45   5.978   4.107   2.642
    2G       C8   46   5.860   4.052   2.601
    2G       H8   47   5.827   3.949   2.599
    2G       N7   48   5.764   4.141   2.576
    2G       C5   49   5.828   4.268   2.604
    2G       C6   50   5.783   4.406   2.608
    2G       O6   51   5.673   4.453   2.570
    2G       N1   52   5.881   4.495   2.640
    2G       H1   53   5.860   4.594   2.632
    2G       C2   54   6.002   4.456   2.687
    2G       N2   55   6.064   4.550   2.749
    2G      H21   56   6.031   4.645   2.736
    2G      H22   57   6.161   4.535   2.771
    2G       N3   58   6.051   4.331   2.689
    2G       C4   59   5.958   4.242   2.641
    2G      C3'   60   6.048   3.916   2.888
    2G      H3'   61   5.942   3.940   2.879
    2G      C2'   62   6.125   4.034   2.830
    2G      H2'   63   6.082   4.127   2.867
    2G      O2'   64   6.265   4.033   2.852
    2G     HO2'   65   6.292   3.980   2.928
    2G      O3'   66   6.085   3.866   3.015
    3G        P   67   5.995   3.895   3.142
    3G      OP1   68   6.048   3.806   3.248
    3G      OP2   69   5.852   3.893   3.106
    3G      O5'   70   6.031   4.045   3.178
    3G      C5'   71   6.161   4.090   3.201
    3G      H5'   72   6.236   4.055   3.130
    3G     H5''   73   6.197   4.068   3.301
    3G      C4'   74   6.156   4.243   3.193
    3G      H4'   75   6.257   4.273   3.219
    3G      O4'   76   6.133   4.292   3.063
    3G      C1'   77   6.036   4.388   3.074
    3G      H1'   78   6.068   4.480   3.025
    3G       N9   79   5.902   4.358   3.022
    3G       C8   80   5.857   4.237   2.964
    3G       H8   81   5.912   4.145   2.973
    3G       N7   82   5.746   4.243   2.907
    3G       C5   83   5.711   4.380   2.926
    3G       C6   84   5.592   4.455   2.886
    3G       O6   85   5.485   4.416   2.837
    3G       N1   86   5.599   4.591   2.919
    3G       H1   87   5.536   4.657   2.876
    3G       C2   88   5.709   4.645   2.972
    3G       N2   89   5.708   4.773   2.972
    3G      H21   90   5.620   4.815   2.943
    3G      H22   91   5.785   4.837   2.981
    3G       N3   92   5.820   4.580   3.006
    3G       C4   93   5.813   4.449   2.981
    3G      C3'   94   6.055   4.303   3.291
    3G      H3'   95   5.970   4.236   3.285
    3G      C2'   96   6.024   4.434   3.222
    3G      H2'   97   5.920   4.457   3.246
    3G      O2'   98   6.115   4.540   3.245
    3G     HO2'   99   6.104   4.568   3.336
    3G      O3'  100   6.116   4.314   3.415
    4U        P  101   6.025   4.361   3.544
    4U      OP1  102   6.114   4.345   3.658
    4U      OP2  103   5.894   4.292   3.529
    4U      O5'  104   5.992   4.511   3.524
    4U      C5'  105   6.090   4.608   3.571
    4U      H5'  106   6.178   4.596   3.508
    4U     H5''  107   6.096   4.595   3.679
    4U      C4'  108   6.030   4.746   3.537
    4U      H4'  109   6.102   4.825   3.561
    4U      O4'  110   5.995   4.767   3.400
    4U      C1'  111   5.887   4.861   3.403
    4U      H1'  112   5.936   4.949   3.361
    4U       N1  113   5.763   4.803   3.340
    4U       C6  114   5.726   4.673   3.347
    4U       H6  115   5.794   4.603   3.394
    4U       C5  116   5.602   4.630   3.303
    4U       H5  117   5.573   4.528   3.323
    4U       C4  118   5.509   4.716   3.247
    4U       O4  119   5.398   4.687   3.207
    4U       N3  120   5.558   4.848   3.236
    4U       H3  121   5.489   4.914   3.204
    4U       C2  122   5.677   4.896   3.282
    4U       O2  123   5.698   5.017   3.275
    4U      C3'  124   5.908   4.764   3.619
    4U      H3'  125   5.836   4.684   3.605
    4U      C2'  126   5.856   4.887   3.550
    4U      H2'  127   5.748   4.902   3.561
    4U      O2'  128   5.918   5.010   3.592
    4U     HO2'  129   5.972   4.990   3.669
    4U      O3'  130   5.934   4.798   3.759
    5U        P  131   5.834   4.754   3.869
    5U      OP1  132   5.883   4.810   3.995
    5U      OP2  133   5.814   4.606   3.847
    5U      O5'  134   5.708   4.835   3.824
    5U      C5'  135   5.691   4.979   3.834
    5U      H5'  136   5.774   5.028   3.783
    5U     H5''  137   5.688   4.995   3.942
    5U      C4'  138   5.549   5.027   3.784
    5U      H4'  139   5.536   5.136   3.784
    5U      O4'  140   5.527   4.979   3.651
    5U      C1'  141   5.388   4.941   3.626
    5U      H1'  142   5.347   4.997   3.543
    5U       N1  143   5.379   4.801   3.584
    5U       C6  144   5.477   4.705   3.611
    5U       H6  145   5.563   4.734   3.668
    5U       C5  146   5.457   4.579   3.565
    5U       H5  147   5.529   4.501   3.585
    5U       C4  148   5.348   4.534   3.490
    5U       O4  149   5.326   4.422   3.447
    5U       N3  150   5.255   4.630   3.471
    5U       H3  151   5.183   4.610   3.402
    5U       C2  152   5.257   4.760   3.520
    5U       O2  153   5.162   4.832   3.501
    5U      C3'  154   5.429   4.960   3.851
    5U      H3'  155   5.438   4.853   3.865
    5U      C2'  156   5.312   4.971   3.756
    5U      H2'  157   5.248   4.889   3.787
    5U      O2'  158   5.245   5.099   3.742
    5U     HO2'  159   5.282   5.165   3.800
    5U      O3'  160   5.398   5.019   3.970
    6A        P  161   5.348   4.941   4.096
    6A      OP1  162   5.338   5.038   4.206
    6A      OP2  163   5.437   4.826   4.117
    6A      O5'  164   5.200   4.886   4.069
    6A      C5'  165   5.093   4.976   4.036
    6A      H5'  166   5.132   5.054   3.970
    6A     H5''  167   5.064   5.023   4.130
    6A      C4'  168   4.971   4.908   3.980
    6A      H4'  169   4.892   4.984   3.983
    6A      O4'  170   4.995   4.857   3.852
    6A      C1'  171   4.929   4.732   3.833
    6A      H1'  172   4.863   4.733   3.746
    6A       N9  173   5.036   4.629   3.825
    6A       C8  174   5.168   4.636   3.858
    6A       H8  175   5.218   4.726   3.889
    6A       N7  176   5.235   4.520   3.845
    6A       C5  177   5.130   4.436   3.790
    6A       C6  178   5.119   4.299   3.764
    6A       N6  179   5.214   4.205   3.779
    6A      H61  180   5.188   4.126   3.722
    6A      H62  181   5.309   4.238   3.788
    6A       N1  182   5.002   4.244   3.718
    6A       C2  183   4.900   4.326   3.699
    6A       H2  184   4.811   4.285   3.652
    6A       N3  185   4.887   4.455   3.729
    6A       C4  186   5.011   4.503   3.781
    6A      C3'  187   4.919   4.791   4.063
    6A      H3'  188   5.005   4.747   4.114
    6A      C2'  189   4.851   4.702   3.964
    6A      H2'  190   4.845   4.596   3.990
    6A      O2'  191   4.720   4.743   3.943
    6A     HO2'  192   4.690   4.770   4.030
    6A      O3'  193   4.819   4.823   4.158
    7G        P  194   4.817   4.745   4.303
    7G      OP1  195   4.694   4.784   4.379
    7G      OP2  196   4.951   4.767   4.358
    7G      O5'  197   4.805   4.590   4.265
    7G      C5'  198   4.684   4.524   4.215
    7G      H5'  199   4.654   4.560   4.117
    7G     H5''  200   4.603   4.556   4.281
    7G      C4'  201   4.688   4.359   4.209
    7G      H4'  202   4.583   4.328   4.207
    7G      O4'  203   4.756   4.308   4.094
    7G      C1'  204   4.850   4.211   4.136
    7G      H1'  205   4.856   4.120   4.077
    7G       N9  206   4.984   4.267   4.144
    7G       C8  207   5.023   4.401   4.126
    7G       H8  208   4.961   4.489   4.135
    7G       N7  209   5.152   4.420   4.137
    7G       C5  210   5.201   4.288   4.151
    7G       C6  211   5.333   4.238   4.151
    7G       O6  212   5.438   4.291   4.132
    7G       N1  213   5.341   4.097   4.152
    7G       H1  214   5.428   4.055   4.123
    7G       C2  215   5.233   4.018   4.162
    7G       N2  216   5.241   3.886   4.154
    7G      H21  217   5.333   3.846   4.164
    7G      H22  218   5.169   3.826   4.191
    7G       N3  219   5.107   4.063   4.155
    7G       C4  220   5.096   4.197   4.150
    7G      C3'  221   4.752   4.299   4.334
    7G      H3'  222   4.833   4.362   4.369
    7G      C2'  223   4.815   4.177   4.279
    7G      H2'  224   4.907   4.162   4.336
    7G      O2'  225   4.719   4.064   4.289
    7G     HO2'  226   4.665   4.088   4.364
    7G      O3'  227   4.664   4.254   4.432
    8G        P  228   4.694   4.278   4.588
    8G      OP1  229   4.588   4.201   4.651
    8G      OP2  230   4.713   4.420   4.622
    8G      O5'  231   4.831   4.210   4.615
    8G      C5'  232   4.848   4.067   4.625
    8G      H5'  233   4.788   4.005   4.558
    8G     H5''  234   4.814   4.034   4.723
    8G      C4'  235   4.994   4.019   4.612
    8G      H4'  236   4.986   3.910   4.609
    8G      O4'  237   5.058   4.067   4.489
    8G      C1'  238   5.189   4.086   4.532
    8G      H1'  239   5.256   4.032   4.465
    8G       N9  240   5.230   4.225   4.512
    8G       C8  241   5.158   4.342   4.489
    8G       H8  242   5.051   4.345   4.503
    8G       N7  243   5.228   4.449   4.462
    8G       C5  244   5.357   4.408   4.466
    8G       C6  245   5.479   4.478   4.439
    8G       O6  246   5.496   4.593   4.401
    8G       N1  247   5.595   4.401   4.454
    8G       H1  248   5.678   4.459   4.457
    8G       C2  249   5.589   4.272   4.502
    8G       N2  250   5.705   4.212   4.514
    8G      H21  251   5.790   4.265   4.506
    8G      H22  252   5.704   4.119   4.554
    8G       N3  253   5.478   4.200   4.520
    8G       C4  254   5.367   4.274   4.499
    8G      C3'  255   5.080   4.056   4.734
    8G      H3'  256   5.058   4.159   4.761
    8G      C2'  257   5.215   4.034   4.674
    8G      H2'  258   5.294   4.084   4.730
    8G      O2'  259   5.256   3.901   4.658
    8G     HO2'  260   5.199   3.847   4.602
    8G      O3'  261   5.047   3.981   4.852
    9G        P  262   5.056   4.053   4.988
    9G      OP1  263   5.024   3.946   5.090
    9G      OP2  264   4.986   4.184   4.981
    9G      O5'  265   5.216   4.082   4.999
    9G      C5'  266   5.313   3.978   5.029
    9G      H5'  267   5.303   3.893   4.962
    9G     H5''  268   5.297   3.940   5.130
    9G      C4'  269   5.457   4.029   5.013
    9G      H4'  270   5.535   3.954   5.028
    9G      O4'  271   5.479   4.083   4.879
    9G      C1'  272   5.581   4.191   4.889
    9G      H1'  273   5.672   4.169   4.834
    9G       N9  274   5.521   4.318   4.847
    9G       C8  275   5.393   4.347   4.841
    9G       H8  276   5.314   4.282   4.875
    9G       N7  277   5.354   4.456   4.778
    9G       C5  278   5.479   4.517   4.763
    9G       C6  279   5.518   4.644   4.701
    9G       O6  280   5.448   4.735   4.653
    9G       N1  281   5.656   4.664   4.710
    9G       H1  282   5.692   4.734   4.647
    9G       C2  283   5.748   4.577   4.759
    9G       N2  284   5.874   4.614   4.751
    9G      H21  285   5.897   4.692   4.690
    9G      H22  286   5.940   4.555   4.799
    9G       N3  287   5.711   4.465   4.816
    9G       C4  288   5.582   4.434   4.807
    9G      C3'  289   5.493   4.142   5.106
    9G      H3'  290   5.416   4.219   5.117
    9G      C2'  291   5.620   4.207   5.042
    9G      H2'  292   5.617   4.311   5.073
    9G      O2'  293   5.751   4.143   5.079
    9G     HO2'  294   5.733   4.058   5.119
    9G      O3'  295   5.528   4.090   5.233
   10U        P  296   5.481   4.146   5.365
   10U      OP1  297   5.534   4.067   5.479
   10U      OP2  298   5.336   4.172   5.353
   10U      O5'  299   5.556   4.290   5.374
   10U      C5'  300   5.698   4.315   5.402
   10U      H5'  301   5.744   4.234   5.345
   10U     H5''  302   5.709   4.305   5.510
   10U      C4'  303   5.742   4.460   5.354
   10U      H4'  304   5.847   4.479   5.377
   10U      O4'  305   5.725   4.479   5.221
   10U      C1'  306   5.701   4.624   5.197
   10U      H1'  307   5.778   4.685   5.151
   10U       N1  308   5.572   4.646   5.118
   10U       C6  309   5.463   4.571   5.144
   10U       H6  310   5.476   4.490   5.215
   10U       C5  311   5.345   4.600   5.086
   10U       H5  312   5.251   4.546   5.091
   10U       C4  313   5.326   4.713   4.993
   10U       O4  314   5.221   4.742   4.932
   10U       N3  315   5.443   4.784   4.970
   10U       H3  316   5.433   4.854   4.897
   10U       C2  317   5.563   4.762   5.036
   10U       O2  318   5.657   4.835   5.015
   10U      C3'  319   5.655   4.567   5.429
   10U      H3'  320   5.551   4.535   5.424
   10U      C2'  321   5.683   4.684   5.337
   10U      H2'  322   5.596   4.750   5.339
   10U      O2'  323   5.804   4.749   5.374
   10U     HO2'  324   5.783   4.800   5.453
   10U      O3'  325   5.671   4.587   5.569
   11U        P  326   5.589   4.709   5.643
   11U      OP1  327   5.572   4.679   5.787
   11U      OP2  328   5.463   4.732   5.557
   11U      O5'  329   5.680   4.844   5.626
   11U      C5'  330   5.791   4.876   5.716
   11U      H5'  331   5.879   4.818   5.686
   11U     H5''  332   5.761   4.849   5.817
   11U      C4'  333   5.815   5.027   5.692
   11U      H4'  334   5.894   5.060   5.760
   11U      O4'  335   5.864   5.042   5.557
   11U      C1'  336   5.827   5.174   5.526
   11U      H1'  337   5.922   5.217   5.494
   11U       N1  338   5.751   5.181   5.403
   11U       C6  339   5.672   5.073   5.360
   11U       H6  340   5.640   5.001   5.434
   11U       C5  341   5.612   5.075   5.241
   11U       H5  342   5.546   5.001   5.198
   11U       C4  343   5.623   5.190   5.150
   11U       O4  344   5.577   5.191   5.035
   11U       N3  345   5.691   5.302   5.202
   11U       H3  346   5.699   5.377   5.135
   11U       C2  347   5.765   5.301   5.323
   11U       O2  348   5.827   5.397   5.366
   11U      C3'  349   5.694   5.118   5.712
   11U      H3'  350   5.605   5.076   5.665
   11U      C2'  351   5.759   5.240   5.648
   11U      H2'  352   5.680   5.308   5.615
   11U      O2'  353   5.855   5.311   5.735
   11U     HO2'  354   5.803   5.335   5.812
   11U      O3'  355   5.660   5.165   5.840
   12A        P  356   5.515   5.203   5.883
   12A      OP1  357   5.517   5.265   6.016
   12A      OP2  358   5.433   5.084   5.856
   12A      O5'  359   5.459   5.305   5.782
   12A      C5'  360   5.486   5.444   5.803
   12A      H5'  361   5.592   5.461   5.824
   12A     H5''  362   5.432   5.482   5.889
   12A      C4'  363   5.442   5.513   5.681
   12A      H4'  364   5.468   5.618   5.694
   12A      O4'  365   5.500   5.466   5.563
   12A      C1'  366   5.413   5.470   5.450
   12A      H1'  367   5.457   5.526   5.367
   12A       N9  368   5.367   5.342   5.400
   12A       C8  369   5.364   5.228   5.465
   12A       H8  370   5.392   5.225   5.570
   12A       N7  371   5.328   5.125   5.394
   12A       C5  372   5.295   5.181   5.270
   12A       C6  373   5.252   5.129   5.147
   12A       N6  374   5.217   5.001   5.128
   12A      H61  375   5.191   4.963   5.038
   12A      H62  376   5.221   4.941   5.209
   12A       N1  377   5.233   5.215   5.049
   12A       C2  378   5.248   5.340   5.072
   12A       H2  379   5.230   5.404   4.987
   12A       N3  380   5.283   5.403   5.177
   12A       C4  381   5.318   5.316   5.273
   12A      C3'  382   5.292   5.502   5.660
   12A      H3'  383   5.250   5.402   5.668
   12A      C2'  384   5.289   5.536   5.511
   12A      H2'  385   5.202   5.498   5.456
   12A      O2'  386   5.295   5.677   5.484
   12A     HO2'  387   5.289   5.678   5.388
   12A      O3'  388   5.216   5.592   5.738
   13G        P  389   5.059   5.571   5.747
   13G      OP1  390   5.007   5.675   5.832
   13G      OP2  391   5.037   5.431   5.788
   13G      O5'  392   4.994   5.581   5.604
   13G      C5'  393   4.986   5.702   5.533
   13G      H5'  394   5.084   5.749   5.533
   13G     H5''  395   4.928   5.778   5.586
   13G      C4'  396   4.929   5.685   5.394
   13G      H4'  397   4.927   5.788   5.356
   13G      O4'  398   5.006   5.588   5.319
   13G      C1'  399   4.929   5.535   5.214
   13G      H1'  400   4.972   5.566   5.119
   13G       N9  401   4.924   5.382   5.239
   13G       C8  402   4.984   5.309   5.335
   13G       H8  403   5.017   5.364   5.422
   13G       N7  404   4.970   5.172   5.327
   13G       C5  405   4.907   5.163   5.205
   13G       C6  406   4.860   5.044   5.127
   13G       O6  407   4.863   4.925   5.157
   13G       N1  408   4.791   5.081   5.015
   13G       H1  409   4.769   5.006   4.950
   13G       C2  410   4.801   5.200   4.960
   13G       N2  411   4.765   5.214   4.836
   13G      H21  412   4.730   5.129   4.794
   13G      H22  413   4.762   5.299   4.782
   13G       N3  414   4.839   5.309   5.023
   13G       C4  415   4.892   5.283   5.145
   13G      C3'  416   4.799   5.626   5.376
   13G      H3'  417   4.801   5.528   5.425
   13G      C2'  418   4.792   5.596   5.230
   13G      H2'  419   4.723   5.514   5.212
   13G      O2'  420   4.784   5.710   5.150
   13G     HO2'  421   4.695   5.711   5.113
   13G      O3'  422   4.704   5.704   5.429
   14G        P  423   4.574   5.642   5.485
   14G      OP1  424   4.481   5.753   5.517
   14G      OP2  425   4.613   5.545   5.588
   14G      O5'  426   4.518   5.553   5.366
   14G      C5'  427   4.427   5.590   5.269
   14G      H5'  428   4.468   5.671   5.208
   14G     H5''  429   4.335   5.617   5.321
   14G      C4'  430   4.379   5.470   5.178
   14G      H4'  431   4.328   5.508   5.090
   14G      O4'  432   4.491   5.391   5.125
   14G      C1'  433   4.449   5.254   5.125
   14G      H1'  434   4.461   5.210   5.026
   14G       N9  435   4.532   5.172   5.222
   14G       C8  436   4.623   5.214   5.323
   14G       H8  437   4.657   5.316   5.330
   14G       N7  438   4.655   5.107   5.396
   14G       C5  439   4.592   4.996   5.343
   14G       C6  440   4.598   4.854   5.375
   14G       O6  441   4.676   4.794   5.455
   14G       N1  442   4.518   4.782   5.292
   14G       H1  443   4.544   4.685   5.288
   14G       C2  444   4.441   4.835   5.190
   14G       N2  445   4.391   4.751   5.104
   14G      H21  446   4.415   4.653   5.106
   14G      H22  447   4.344   4.782   5.020
   14G       N3  448   4.428   4.961   5.163
   14G       C4  449   4.510   5.035   5.245
   14G      C3'  450   4.287   5.379   5.257
   14G      H3'  451   4.334   5.362   5.354
   14G      C2'  452   4.302   5.251   5.172
   14G      H2'  453   4.268   5.162   5.224
   14G      O2'  454   4.223   5.262   5.051
   14G     HO2'  455   4.146   5.318   5.061
   14G      O3'  456   4.150   5.414   5.269
   15G        P  457   4.079   5.408   5.418
   15G      OP1  458   3.954   5.483   5.425
   15G      OP2  459   4.180   5.433   5.523
   15G      O5'  460   4.035   5.252   5.429
   15G      C5'  461   3.937   5.193   5.344
   15G      H5'  462   3.971   5.195   5.240
   15G     H5''  463   3.843   5.244   5.362
   15G      C4'  464   3.921   5.050   5.401
   15G      H4'  465   3.834   5.002   5.357
   15G      O4'  466   4.033   4.975   5.365
   15G      C1'  467   4.073   4.880   5.474
   15G      H1'  468   4.076   4.783   5.425
   15G       N9  469   4.194   4.913   5.550
   15G       C8  470   4.274   5.025   5.527
   15G       H8  471   4.255   5.110   5.464
   15G       N7  472   4.389   5.016   5.592
   15G       C5  473   4.384   4.898   5.667
   15G       C6  474   4.481   4.843   5.751
   15G       O6  475   4.593   4.885   5.786
   15G       N1  476   4.432   4.741   5.824
   15G       H1  477   4.493   4.701   5.893
   15G       C2  478   4.311   4.684   5.797
   15G       N2  479   4.284   4.577   5.870
   15G      H21  480   4.338   4.546   5.950
   15G      H22  481   4.214   4.513   5.835
   15G       N3  482   4.224   4.716   5.704
   15G       C4  483   4.262   4.833   5.642
   15G      C3'  484   3.902   5.021   5.549
   15G      H3'  485   3.963   5.088   5.608
   15G      C2'  486   3.955   4.884   5.572
   15G      H2'  487   3.982   4.869   5.676
   15G      O2'  488   3.864   4.784   5.539
   15G     HO2'  489   3.845   4.746   5.625
   15G      O3'  490   3.766   5.033   5.588
   16U        P  491   3.732   5.109   5.721
   16U      OP1  492   3.587   5.092   5.755
   16U      OP2  493   3.785   5.244   5.713
   16U      O5'  494   3.808   5.032   5.835
   16U      C5'  495   3.773   4.899   5.889
   16U      H5'  496   3.768   4.818   5.816
   16U     H5''  497   3.668   4.907   5.916
   16U      C4'  498   3.872   4.858   6.001
   16U      H4'  499   3.841   4.766   6.051
   16U      O4'  500   4.001   4.833   5.947
   16U      C1'  501   4.091   4.851   6.058
   16U      H1'  502   4.136   4.757   6.088
   16U       N1  503   4.193   4.948   6.027
   16U       C6  504   4.168   5.047   5.931
   16U       H6  505   4.073   5.048   5.878
   16U       C5  506   4.262   5.140   5.897
   16U       H5  507   4.236   5.215   5.823
   16U       C4  508   4.400   5.129   5.946
   16U       O4  509   4.492   5.196   5.905
   16U       N3  510   4.423   5.026   6.036
   16U       H3  511   4.521   5.004   6.053
   16U       C2  512   4.327   4.925   6.068
   16U       O2  513   4.354   4.824   6.131
   16U      C3'  514   3.881   4.959   6.109
   16U      H3'  515   3.888   5.062   6.074
   16U      C2'  516   4.012   4.913   6.175
   16U      H2'  517   4.065   4.999   6.214
   16U      O2'  518   4.013   4.810   6.275
   16U     HO2'  519   3.977   4.842   6.358
   16U      O3'  520   3.774   4.945   6.202
   17U        P  521   3.776   5.039   6.337
   17U      OP1  522   3.636   5.048   6.383
   17U      OP2  523   3.848   5.168   6.306
   17U      O5'  524   3.868   4.965   6.452
   17U      C5'  525   3.815   4.873   6.540
   17U      H5'  526   3.779   4.781   6.494
   17U     H5''  527   3.734   4.918   6.597
   17U      C4'  528   3.926   4.841   6.644
   17U      H4'  529   3.878   4.768   6.709
   17U      O4'  530   4.034   4.776   6.585
   17U      C1'  531   4.147   4.797   6.672
   17U      H1'  532   4.183   4.701   6.708
   17U       N1  533   4.260   4.855   6.583
   17U       C6  534   4.235   4.945   6.481
   17U       H6  535   4.134   4.975   6.456
   17U       C5  536   4.333   4.992   6.410
   17U       H5  537   4.316   5.069   6.336
   17U       C4  538   4.477   4.969   6.445
   17U       O4  539   4.577   5.009   6.382
   17U       N3  540   4.494   4.876   6.544
   17U       H3  541   4.587   4.838   6.554
   17U       C2  542   4.392   4.807   6.611
   17U       O2  543   4.419   4.729   6.697
   17U      C3'  544   3.979   4.950   6.735
   17U      H3'  545   3.992   5.040   6.675
   17U      C2'  546   4.104   4.884   6.788
   17U      H2'  547   4.173   4.964   6.815
   17U      O2'  548   4.091   4.799   6.892
   17U     HO2'  549   4.022   4.830   6.950
   17U      O3'  550   3.892   4.974   6.850
   18A        P  551   3.840   5.122   6.882
   18A      OP1  552   3.782   5.126   7.015
   18A      OP2  553   3.772   5.167   6.758
   18A      O5'  554   3.984   5.199   6.884
   18A      C5'  555   4.077   5.194   6.991
   18A      H5'  556   4.098   5.089   7.011
   18A     H5''  557   4.035   5.226   7.086
   18A      C4'  558   4.203   5.270   6.975
   18A      H4'  559   4.272   5.262   7.059
   18A      O4'  560   4.273   5.228   6.859
   18A      C1'  561   4.340   5.332   6.788
   18A      H1'  562   4.445   5.304   6.784
   18A       N9  563   4.289   5.325   6.651
   18A       C8  564   4.161   5.294   6.610
   18A       H8  565   4.079   5.273   6.677
   18A       N7  566   4.149   5.282   6.477
   18A       C5  567   4.272   5.321   6.436
   18A       C6  568   4.342   5.343   6.308
   18A       N6  569   4.283   5.328   6.192
   18A      H61  570   4.326   5.385   6.120
   18A      H62  571   4.183   5.325   6.185
   18A       N1  572   4.463   5.389   6.294
   18A       C2  573   4.532   5.405   6.405
   18A       H2  574   4.630   5.449   6.392
   18A       N3  575   4.489   5.379   6.531
   18A       C4  576   4.357   5.342   6.537
   18A      C3'  577   4.191   5.423   6.950
   18A      H3'  578   4.108   5.445   6.882
   18A      C2'  579   4.314   5.455   6.874
   18A      H2'  580   4.297   5.542   6.810
   18A      O2'  581   4.433   5.471   6.953
   18A     HO2'  582   4.499   5.478   6.884
   18A      O3'  583   4.184   5.502   7.069
   19G        P  584   4.093   5.633   7.060
   19G      OP1  585   4.099   5.701   7.191
   19G      OP2  586   3.966   5.616   6.997
   19G      O5'  587   4.173   5.723   6.957
   19G      C5'  588   4.295   5.783   6.998
   19G      H5'  589   4.375   5.713   7.021
   19G     H5''  590   4.266   5.842   7.084
   19G      C4'  591   4.354   5.877   6.890
   19G      H4'  592   4.435   5.940   6.926
   19G      O4'  593   4.396   5.801   6.781
   19G      C1'  594   4.374   5.864   6.658
   19G      H1'  595   4.473   5.873   6.613
   19G       N9  596   4.279   5.784   6.577
   19G       C8  597   4.195   5.685   6.612
   19G       H8  598   4.154   5.668   6.711
   19G       N7  599   4.138   5.616   6.511
   19G       C5  600   4.185   5.681   6.398
   19G       C6  601   4.157   5.654   6.263
   19G       O6  602   4.084   5.574   6.205
   19G       N1  603   4.219   5.751   6.179
   19G       H1  604   4.221   5.740   6.079
   19G       C2  605   4.296   5.854   6.228
   19G       N2  606   4.336   5.943   6.143
   19G      H21  607   4.312   5.920   6.047
   19G      H22  608   4.403   6.015   6.163
   19G       N3  609   4.330   5.875   6.357
   19G       C4  610   4.270   5.783   6.436
   19G      C3'  611   4.254   5.981   6.829
   19G      H3'  612   4.166   5.921   6.809
   19G      C2'  613   4.327   6.011   6.695
   19G      H2'  614   4.249   6.045   6.627
   19G      O2'  615   4.433   6.104   6.711
   19G     HO2'  616   4.414   6.152   6.792
   19G      O3'  617   4.227   6.101   6.905
   20G        P  618   4.115   6.204   6.862
   20G      OP1  619   4.157   6.330   6.920
   20G      OP2  620   3.986   6.144   6.897
   20G      O5'  621   4.120   6.227   6.704
   20G      C5'  622   4.183   6.349   6.639
   20G      H5'  623   4.291   6.345   6.654
   20G     H5''  624   4.155   6.445   6.682
   20G      C4'  625   4.150   6.350   6.490
   20G      H4'  626   4.216   6.419   6.437
   20G      O4'  627   4.182   6.229   6.433
   20G      C1'  628   4.086   6.187   6.341
   20G      H1'  629   4.133   6.168   6.244
   20G       N9  630   4.018   6.069   6.391
   20G       C8  631   3.980   6.028   6.518
   20G       H8  632   3.997   6.088   6.606
   20G       N7  633   3.910   5.916   6.520
   20G       C5  634   3.907   5.872   6.392
   20G       C6  635   3.843   5.756   6.336
   20G       O6  636   3.786   5.669   6.398
   20G       N1  637   3.851   5.746   6.198
   20G       H1  638   3.833   5.662   6.145
   20G       C2  639   3.907   5.843   6.128
   20G       N2  640   3.895   5.843   6.001
   20G      H21  641   3.837   5.770   5.962
   20G      H22  642   3.942   5.900   5.933
   20G       N3  643   3.956   5.961   6.177
   20G       C4  644   3.961   5.969   6.312
   20G      C3'  645   4.002   6.382   6.464
   20G      H3'  646   3.936   6.336   6.539
   20G      C2'  647   3.987   6.307   6.333
   20G      H2'  648   3.886   6.268   6.319
   20G      O2'  649   4.018   6.379   6.215
   20G     HO2'  650   3.944   6.410   6.163
   20G      O3'  651   3.985   6.524   6.443
   21G3       P  652   3.836   6.579   6.463
   21G3     OP1  653   3.840   6.723   6.466
   21G3     OP2  654   3.761   6.518   6.576
   21G3     O5'  655   3.758   6.529   6.341
   21G3     C5'  656   3.779   6.587   6.214
   21G3     H5'  657   3.887   6.598   6.197
   21G3    H5''  658   3.751   6.691   6.203
   21G3     C4'  659   3.714   6.512   6.110
   21G3     H4'  660   3.716   6.561   6.013
   21G3     O4'  661   3.760   6.378   6.103
   21G3     C1'  662   3.655   6.288   6.070
   21G3     H1'  663   3.688   6.229   5.985
   21G3      N9  664   3.632   6.189   6.182
   21G3      C8  665   3.625   6.203   6.317
   21G3      H8  666   3.645   6.299   6.363
   21G3      N7  667   3.601   6.096   6.382
   21G3      C5  668   3.576   6.000   6.285
   21G3      C6  669   3.538   5.859   6.298
   21G3      O6  670   3.532   5.782   6.398
   21G3      N1  671   3.507   5.808   6.169
   21G3      H1  672   3.471   5.714   6.166
   21G3      C2  673   3.540   5.868   6.054
   21G3      N2  674   3.503   5.811   5.945
   21G3     H21  675   3.449   5.725   5.951
   21G3     H22  676   3.516   5.849   5.853
   21G3      N3  677   3.579   5.993   6.039
   21G3      C4  678   3.607   6.053   6.162
   21G3     C3'  679   3.565   6.490   6.128
   21G3     H3'  680   3.535   6.473   6.231
   21G3     C2'  681   3.529   6.371   6.050
   21G3     H2'  682   3.442   6.319   6.090
   21G3     O2'  683   3.519   6.405   5.906
   21G3    HO2'  684   3.526   6.501   5.908
   21G3     O3'  685   3.498   6.610   6.082
   21G3    HO3'  686   3.417   6.620   6.132
   22Cl-    Cl-  687   1.390   8.695   8.919
   23Cl-    Cl-  688   0.285   2.656   0.824
   24Cl-    Cl-  689   8.899   2.115   2.674
   25Cl-    Cl-  690   9.547   3.306   5.221
   26Cl-    Cl-  691   0.443   6.238   2.581
   27Cl-    Cl-  692   7.364   7.285   2.320
   28Cl-    Cl-  693   9.343   8.606   3.825
   29Cl-    Cl-  694   6.962   5.492   4.308
   30Cl-    Cl-  695   8.166   1.151   0.478
   31Cl-    Cl-  696   9.663   4.760   0.883
   32Cl-    Cl-  697   8.958   7.156   7.226
   33Cl-    Cl-  698   9.065   5.404   6.148
   34Cl-    Cl-  699   0.855   8.893   6.326
   35Cl-    Cl-  700   3.687   5.159   9.625
   36Cl-    Cl-  701   7.754   1.702   6.557
   37Cl-    Cl-  702   3.286   0.567   1.379
   38Cl-    Cl-  703   8.084   9.265   2.906
   39Cl-    Cl-  704   2.198   6.699   4.503
   40Cl-    Cl-  705   1.341   3.058   6.286
   41Cl-    Cl-  706   5.959   2.251   9.089
   42Cl-    Cl-  707   0.218   2.713   4.462
   43Cl-    Cl-  708   4.439   0.947   3.786
   44Cl-    Cl-  709   2.933   0.058   2.650
   45Cl-    Cl-  710   6.408   5.186   6.794
   46Cl-    Cl-  711   5.983   5.502   4.952
   47Cl-    Cl-  712   8.992   8.193   9.160
   48Cl-    Cl-  713   2.471   7.948   9.598
   49Cl-    Cl-  714   3.650   3.542   6.212
   50Cl-    Cl-  715   5.524   7.678   4.251
   51Cl-    Cl-  716   0.709   5.183   3.042
   52Cl-    Cl-  717   7.478   5.775   8.839
   53Cl-    Cl-  718   4.342   2.058   2.306
   54Cl-    Cl-  719   2.849   9.016   1.937
   55Cl-    Cl-  720   4.218   6.617   9.749
   56Cl-    Cl-  721   1.527   7.949   0.577
   57Cl-    Cl-  722   5.151   7.374   2.603
   58Cl-    Cl-  723   0.792   0.243   6.272
   59Cl-    Cl-  724   8.106   4.711   6.647
   60Cl-    Cl-  725   4.998   4.685   7.224
   61Cl-    Cl-  726   4.253   3.471   1.636
   62Cl-    Cl-  727   5.033   1.634   3.607
   63Cl-    Cl-  728   8.995   6.640   8.030
   64Cl-    Cl-  729   5.297   0.685   5.424
   65Cl-    Cl-  730   2.494   2.204   9.796
   66Cl-    Cl-  731   0.997   2.858   4.646
   67Cl-    Cl-  732   4.910   0.680   4.788
   68Cl-    Cl-  733   4.548   9.070   0.763
   69Cl-    Cl-  734   3.967   8.526   1.415
   70Cl-    Cl-  735   4.831   8.478   6.738
   71Cl-    Cl-  736   2.830   6.264   4.835
   72Cl-    Cl-  737   8.274   5.790   3.353
   73Cl-    Cl-  738   3.467   8.374   3.739
   74Cl-    Cl-  739   7.158   7.237   0.811
   75Cl-    Cl-  740   1.488   7.734   4.880
   76Cl-    Cl-  741   6.558   9.631   6.726
   77Cl-    Cl-  742   1.596   5.724   7.889
   78Cl-    Cl-  743   1.732   2.969   1.943
   79Cl-    Cl-  744   0.020   9.728   7.255
   80Cl-    Cl-  745   8.105   6.191   6.452
   81Cl-    Cl-  746   9.853   6.643   8.277
   82Cl-    Cl-  747   9.248   4.893   1.392
   83Cl-    Cl-  748   9.769   7.917   8.612
   84Cl-    Cl-  749   8.685   7.528   1.987
   85Cl-    Cl-  750   1.698   5.878   1.204
   86Cl-    Cl-  751   3.852   8.733   1.800
   87Cl-    Cl-  752   2.723   1.611   0.470
   88Cl-    Cl-  753   0.012   4.371   0.542
   89Cl-    Cl-  754   7.597   3.037   8.239
   90Cl-    Cl-  755   3.144   9.720   6.346
   91Cl-    Cl-  756   7.245   0.384   8.177
   92Cl-    Cl-  757   5.602   5.715   6.719
   93Cl-    Cl-  758   6.076   1.032   6.453
   94Cl-    Cl-  759   0.101   8.367   2.450
   95Cl-    Cl-  760   1.267   3.715   8.751
   96Cl-    Cl-  761   1.825   3.474   0.454
   97Cl-    Cl-  762   5.584   2.261   2.406
   98Cl-    Cl-  763   7.567   9.034   9.272
   99Cl-    Cl-  764   8.319   0.103   4.721
  100Cl-    Cl-  765   6.353   8.663   7.919
  101Cl-    Cl-  766   7.544   9.343   3.375
  102Cl-    Cl-  767   9.690   2.935   1.331
  103Cl-    Cl-  768   5.258   6.348   8.057
  104Cl-    Cl-  769   3.498   4.718   7.751
  105Cl-    Cl-  770   0.082   8.158   6.311
  106Cl-    Cl-  771   9.811   9.758   9.578
  107K+      K+  772   2.766   8.314   3.764
  108K+      K+  773   1.740   2.101   0.043
  109K+      K+  774   7.154   2.845   3.899
  110K+      K+  775   9.842   2.416   7.595
  111K+      K+  776   3.923   5.430   6.378
  112K+      K+  777   0.885   3.312   9.735
  113K+      K+  778   5.398   4.576   4.084
  114K+      K+  779   1.734   2.658   0.968
  115K+      K+  780   2.622   0.985   6.867
  116K+      K+  781   9.795   2.839   3.928
  117K+      K+  782   9.263   5.529   1.088
  118K+      K+  783   4.629   5.356   6.075
  119K+      K+  784   8.328   8.986   4.690
  120K+      K+  785   9.680   2.152   0.734
  121K+      K+  786   7.013   8.269   7.877
  122K+      K+  787   4.924   4.916   5.432
  123K+      K+  788   0.119   9.810   0.206
  124K+      K+  789   7.204   5.216   3.986
  125K+      K+  790   8.660   6.618   8.844
  126K+      K+  791   9.633   5.666   5.615
  127K+      K+  792   9.096   5.060   0.955
  128K+      K+  793   8.460   3.498   9.514
  129K+      K+  794   8.610   5.798   2.907
  130K+      K+  795   3.440   9.106   0.720
  131K+      K+  796   3.636   5.753   6.650
  132K+      K+  797   4.869   1.268   2.886
  133K+      K+  798   7.371   7.501   0.015
  134K+      K+  799   9.528   9.252   6.755
  135K+      K+  800   4.841   1.177   3.919
  136K+      K+  801   5.974   9.019   0.609
  137K+      K+  802   0.605   5.418   2.322
  138K+      K+  803   3.867   5.692   7.335
  139K+      K+  804   5.592   8.457   1.492
  140K+      K+  805   8.198   0.897   4.572
  141K+      K+  806   5.066   9.465   6.071
  142K+      K+  807   4.493   5.385   3.917
  143K+      K+  808   2.272   9.137   5.527
  144K+      K+  809   0.427   2.760   5.813
  145K+      K+  810   0.972   6.514   3.764
  146K+      K+  811   5.266   1.136   1.142
  147K+      K+  812   7.829   2.082   7.287
  148K+      K+  813   5.145   4.615   4.710
  149K+      K+  814   1.625   4.827   0.010
  150K+      K+  815   7.822   8.310   3.779
  151K+      K+  816   5.978   5.684   4.128
  152K+      K+  817   4.623   5.172   5.669
  153K+      K+  818   4.497   7.894   9.043
  154K+      K+  819   0.420   3.863   2.243
  155K+      K+  820   0.820   8.412   1.809
  156K+      K+  821   4.522   4.597   6.942
  157K+      K+  822   2.924   0.198   6.626
  158K+      K+  823   3.631   4.864   5.417
  159K+      K+  824   6.173   3.266   2.632
  160K+      K+  825   0.386   6.435   8.494
  161K+      K+  826   3.456   0.361   8.255
  162K+      K+  827   5.844   5.077   1.745
  163K+      K+  828   6.470   1.260   6.502
  164K+      K+  829   5.547   4.108   2.757
  165K+      K+  830   8.353   5.552   7.763
  166K+      K+  831   9.147   6.895   0.944
  167K+      K+  832   4.732   0.666   5.771
  168K+      K+  833   8.491   9.621   7.162
  169K+      K+  834   4.714   7.171   2.807
  170K+      K+  835   3.231   6.502   8.890
  171K+      K+  836   9.885   7.448   5.244
  172K+      K+  837   2.964   7.338   1.322
  173K+      K+  838   4.936   1.633   2.104
  174K+      K+  839   8.959   6.961   5.138
  175K+      K+  840   4.096   0.672   2.942
  176K+      K+  841   2.129   4.041   4.218
  177K+      K+  842   5.022   6.446   3.991
  178K+      K+  843   2.905   1.717   1.060
  179K+      K+  844   3.876   7.078   9.278
  180K+      K+  845   6.142   2.821   0.674
  181K+      K+  846   9.353   7.746   0.331
  182K+      K+  847   5.643   8.158   7.410
  183K+      K+  848   2.833   4.145   9.851
  184K+      K+  849   9.829   2.330   5.679
  185K+      K+  850   2.771   4.267   8.061
  186K+      K+  851   4.882   6.955   8.122
  187K+      K+  852   0.018   7.847   5.683
  188K+      K+  853   5.439   1.776   8.607
  189K+      K+  854   6.782   9.346   8.522
  190K+      K+  855   5.418   4.837   4.412
  191K+      K+  856   9.270   4.076   8.287
  192K+      K+  857   5.041   3.824   3.952
  193K+      K+  858   5.139   5.874   6.029
  194K+      K+  859   0.604   5.715   4.641
  195K+      K+  860   6.450   6.098   7.035
  196K+      K+  861   6.660   7.395   2.711
  197K+      K+  862   7.687   3.379   0.631
  198K+      K+  863   5.521   5.100   6.296
  199K+      K+  864   2.980   3.287   0.827
  200K+      K+  865   5.141   5.232   6.572
  201K+      K+  866   9.382   7.717   3.448
  202K+      K+  867   2.773   4.323   7.417
  203K+      K+  868   9.147   8.123   7.102
  204K+      K+  869   5.771   3.887   6.803
  205K+      K+  870   8.091   2.692   4.921
  206K+      K+  871   2.695   5.537   6.676
  207K+      K+  872   3.039   6.646   5.855
  208K+      K+  873   5.095   4.336   6.174
  209K+      K+  874   0.516   1.038   8.987
  210K+      K+  875   5.094   7.312   5.921
  211K+      K+  876   4.828   0.114   4.182
  212WAT      O  877   4.854   1.637   6.696
  212WAT     H1  878   4.923   1.564   6.691
  212WAT     H2  879   4.792   1.619   6.772
  213WAT      O  880   7.431   0.095   3.820
  213WAT     H1  881   7.411   0.178   3.767
  213WAT     H2  882   7.451   0.020   3.757
  214WAT      O  883   7.170   6.448   7.475
  214WAT     H1  884   7.147   6.519   7.542
  214WAT     H2  885   7.250   6.397   7.506
  215WAT      O  886   8.169   3.635   2.885
  215WAT     H1  887   8.264   3.664   2.893
  215WAT     H2  888   8.112   3.712   2.858
  216WAT      O  889   9.707   7.268   9.041
  216WAT     H1  890   9.615   7.280   9.005
  216WAT     H2  891   9.766   7.227   8.971
  217WAT      O  892   1.522   5.677   3.389
  217WAT     H1  893   1.486   5.664   3.482
  217WAT     H2  894   1.485   5.607   3.329
  218WAT      O  895   3.155   5.032   4.116
  218WAT     H1  896   3.249   5.038   4.084
  218WAT     H2  897   3.149   5.068   4.209
  219WAT      O  898   6.806   1.271   7.425
  219WAT     H1  899   6.862   1.353   7.430
  219WAT     H2  900   6.850   1.197   7.476
  220WAT      O  901   5.614   9.597   5.675
  220WAT     H1  902   5.558   9.575   5.595
  220WAT     H2  903   5.654   9.513   5.712
  221WAT      O  904   2.818   0.279   8.024
  221WAT     H1  905   2.902   0.313   8.066
  221WAT     H2  906   2.805   0.183   8.047
  222WAT      O  907   8.036   0.016   8.614
  222WAT     H1  908   7.942   0.034   8.643
  222WAT     H2  909   8.055  -0.082   8.623
  223WAT      O  910   1.014   7.647   1.704
  223WAT     H1  911   1.088   7.627   1.640
  223WAT     H2  912   0.966   7.729   1.674
  224WAT      O  913   4.459   5.666   2.361
  224WAT     H1  914   4.535   5.603   2.376
  224WAT     H2  915   4.492   5.747   2.312
  225WAT      O  916   5.412   3.100   8.861
  225WAT     H1  917   5.448   3.176   8.915
  225WAT     H2  918   5.338   3.055   8.912
  226WAT      O  919   2.586   5.216   1.715
  226WAT     H1  920   2.553   5.309   1.695
  226WAT     H2  921   2.627   5.214   1.806
  227WAT      O  922   3.051   9.088   8.924
  227WAT     H1  923   3.000   9.005   8.947
  227WAT     H2  924   2.990   9.154   8.880
  228WAT      O  925   0.072   2.953   3.005
  228WAT     H1  926   0.047   3.024   3.070
  228WAT     H2  927   0.012   2.959   2.925
  229WAT      O  928   5.010   1.506   9.648
  229WAT     H1  929   4.977   1.411   9.643
  229WAT     H2  930   5.087   1.511   9.711
  230WAT      O  931   7.762   7.920   4.459
  230WAT     H1  932   7.849   7.950   4.419
  230WAT     H2  933   7.694   7.910   4.386
  231WAT      O  934   6.622   3.503   5.059
  231WAT     H1  935   6.666   3.416   5.038
  231WAT     H2  936   6.537   3.511   5.007
  232WAT      O  937   7.248   8.589   5.253
  232WAT     H1  938   7.271   8.621   5.345
  232WAT     H2  939   7.243   8.667   5.191
  233WAT      O  940   2.026   2.026   4.737
  233WAT     H1  941   2.090   2.059   4.668
  233WAT     H2  942   2.060   1.940   4.776
  234WAT      O  943   6.580   6.096   2.948
  234WAT     H1  944   6.498   6.039   2.950
  234WAT     H2  945   6.554   6.192   2.939
  235WAT      O  946   4.894   1.640   3.298
  235WAT     H1  947   4.946   1.606   3.377
  235WAT     H2  948   4.898   1.739   3.296
  236WAT      O  949   9.163   0.385   0.658
  236WAT     H1  950   9.077   0.435   0.663
  236WAT     H2  951   9.153   0.308   0.595
  237WAT      O  952   9.700   1.975   4.296
  237WAT     H1  953   9.692   1.957   4.394
  237WAT     H2  954   9.626   2.035   4.266
  238WAT      O  955   3.190   0.973   7.304
  238WAT     H1  956   3.199   0.931   7.395
  238WAT     H2  957   3.129   1.052   7.310
  239WAT      O  958   4.094   3.940   4.564
  239WAT     H1  959   4.072   3.908   4.472
  239WAT     H2  960   4.023   4.002   4.597
  240WAT      O  961   4.620   0.555   4.483
  240WAT     H1  962   4.697   0.616   4.498
  240WAT     H2  963   4.620   0.482   4.552
  241WAT      O  964   2.167   9.439   5.278
  241WAT     H1  965   2.244   9.382   5.250
  241WAT     H2  966   2.085   9.413   5.226
  242WAT      O  967   8.938   8.236   1.758
  242WAT     H1  968   8.903   8.172   1.827
  242WAT     H2  969   8.865   8.295   1.727
  243WAT      O  970   9.728   6.843   2.776
  243WAT     H1  971   9.756   6.820   2.869
  243WAT     H2  972   9.752   6.768   2.714
  244WAT      O  973   9.474   4.407   1.323
  244WAT     H1  974   9.458   4.502   1.297
  244WAT     H2  975   9.572   4.388   1.318
  245WAT      O  976   5.488   7.717   9.702
  245WAT     H1  977   5.428   7.796   9.695
  245WAT     H2  978   5.469   7.653   9.627
  246WAT      O  979   6.622   3.090   9.141
  246WAT     H1  980   6.554   3.017   9.145
  246WAT     H2  981   6.576   3.179   9.145
  247WAT      O  982   4.888   2.847   0.705
  247WAT     H1  983   4.941   2.845   0.790
  247WAT     H2  984   4.799   2.805   0.720
  248WAT      O  985   0.449   1.276   2.182
  248WAT     H1  986   0.396   1.360   2.195
  248WAT     H2  987   0.435   1.215   2.259
  249WAT      O  988   8.318   0.881   7.362
  249WAT     H1  989   8.325   0.804   7.425
  249WAT     H2  990   8.379   0.954   7.392
  250WAT      O  991   3.689   2.472   0.038
  250WAT     H1  992   3.705   2.444  -0.057
  250WAT     H2  993   3.771   2.452   0.092
  251WAT      O  994   5.038   8.705   3.113
  251WAT     H1  995   5.040   8.749   3.203
  251WAT     H2  996   4.943   8.683   3.089
  252WAT      O  997   7.094   4.926   6.894
  252WAT     H1  998   7.122   4.940   6.989
  252WAT     H2  999   7.164   4.962   6.832
  253WAT      O 1000   2.104   4.136   4.479
  253WAT     H1 1001   2.092   4.235   4.469
  253WAT     H2 1002   2.193   4.117   4.519
  254WAT      O 1003   9.888   5.560   5.159
  254WAT     H1 1004   9.823   5.514   5.098
  254WAT     H2 1005   9.974   5.510   5.160
  255WAT      O 1006   3.612   2.303   2.028
  255WAT     H1 1007   3.533   2.349   2.069
  255WAT     H2 1008   3.582   2.252   1.947
  256WAT      O 1009   4.381   3.749   7.778
  256WAT     H1 1010   4.368   3.682   7.851
  256WAT     H2 1011   4.397   3.702   7.691
  257WAT      O 1012   3.388   3.732   5.743
  257WAT     H1 1013   3.435   3.683   5.816
  257WAT     H2 1014   3.449   3.804   5.708
  258WAT      O 1015   7.046   1.313   2.450
  258WAT     H1 1016   6.980   1.385   2.473
  258WAT     H2 1017   7.138   1.341   2.478
  259WAT      O 1018   0.923   6.211   3.241
  259WAT     H1 1019   0.970   6.231   3.327
  259WAT     H2 1020   0.956   6.272   3.170
  260WAT      O 1021   6.248   0.789   3.019
  260WAT     H1 1022   6.253   0.806   2.921
  260WAT     H2 1023   6.181   0.718   3.038
  261WAT      O 1024   1.406   7.352   4.385
  261WAT     H1 1025   1.485   7.292   4.373
  261WAT     H2 1026   1.322   7.299   4.373
  262WAT      O 1027   0.751   4.654   8.570
  262WAT     H1 1028   0.659   4.693   8.573
  262WAT     H2 1029   0.793   4.661   8.661
  263WAT      O 1030   4.664   5.560   0.607
  263WAT     H1 1031   4.573   5.602   0.610
  263WAT     H2 1032   4.678   5.505   0.689
  264WAT      O 1033   9.581   8.614   8.909
  264WAT     H1 1034   9.671   8.622   8.953
  264WAT     H2 1035   9.580   8.668   8.825
  265WAT      O 1036   0.700   4.973   1.045
  265WAT     H1 1037   0.771   5.039   1.071
  265WAT     H2 1038   0.728   4.881   1.071
  266WAT      O 1039   4.633   3.598   9.402
  266WAT     H1 1040   4.719   3.641   9.429
  266WAT     H2 1041   4.597   3.644   9.321
  267WAT      O 1042   3.996   9.586   7.828
  267WAT     H1 1043   3.995   9.642   7.744
  267WAT     H2 1044   4.076   9.526   7.827
  268WAT      O 1045   5.599   1.368   3.445
  268WAT     H1 1046   5.525   1.430   3.471
  268WAT     H2 1047   5.687   1.415   3.457
  269WAT      O 1048   8.203   9.508   4.762
  269WAT     H1 1049   8.110   9.523   4.793
  269WAT     H2 1050   8.263   9.578   4.801
  270WAT      O 1051   8.892   0.296   7.023
  270WAT     H1 1052   8.986   0.329   7.027
  270WAT     H2 1053   8.860   0.274   7.115
  271WAT      O 1054   5.013   2.779   5.189
  271WAT     H1 1055   4.946   2.845   5.224
  271WAT     H2 1056   4.969   2.717   5.124
  272WAT      O 1057   0.090   7.410   1.155
  272WAT     H1 1058   0.067   7.500   1.194
  272WAT     H2 1059   0.189   7.398   1.159
  273WAT      O 1060   6.476   7.096   8.233
  273WAT     H1 1061   6.415   7.133   8.163
  273WAT     H2 1062   6.522   7.014   8.198
  274WAT      O 1063   7.540   0.585   0.753
  274WAT     H1 1064   7.445   0.612   0.740
  274WAT     H2 1065   7.547   0.486   0.749
  275WAT      O 1066   2.836   8.549   2.842
  275WAT     H1 1067   2.890   8.624   2.880
  275WAT     H2 1068   2.752   8.585   2.803
  276WAT      O 1069   0.949   8.833   7.300
  276WAT     H1 1070   0.929   8.736   7.309
  276WAT     H2 1071   1.029   8.846   7.241
  277WAT      O 1072   9.594   1.866   1.504
  277WAT     H1 1073   9.619   1.814   1.586
  277WAT     H2 1074   9.587   1.805   1.426
  278WAT      O 1075   4.016   6.362   4.950
  278WAT     H1 1076   4.000   6.355   4.852
  278WAT     H2 1077   3.940   6.318   4.999
  279WAT      O 1078   6.990   2.419   7.868
  279WAT     H1 1079   6.924   2.493   7.853
  279WAT     H2 1080   6.967   2.371   7.953
  280WAT      O 1081   7.057   8.745   7.463
  280WAT     H1 1082   7.080   8.666   7.520
  280WAT     H2 1083   7.070   8.829   7.515
  281WAT      O 1084   8.647   8.975   4.355
  281WAT     H1 1085   8.664   9.074   4.359
  281WAT     H2 1086   8.581   8.955   4.282
  282WAT      O 1087   4.482   9.068   3.701
  282WAT     H1 1088   4.463   9.113   3.614
  282WAT     H2 1089   4.422   8.988   3.711
  283WAT      O 1090   7.132   5.075   7.325
  283WAT     H1 1091   7.097   5.159   7.284
  283WAT     H2 1092   7.132   5.002   7.256
  284WAT      O 1093   7.556   0.024   8.489
  284WAT     H1 1094   7.533  -0.073   8.485
  284WAT     H2 1095   7.592   0.053   8.400
  285WAT      O 1096   5.137   7.766   6.687
  285WAT     H1 1097   5.100   7.859   6.675
  285WAT     H2 1098   5.192   7.742   6.608
  286WAT      O 1099   2.693   9.301   8.960
  286WAT     H1 1100   2.616   9.364   8.962
  286WAT     H2 1101   2.772   9.343   9.004
  287WAT      O 1102   1.447   4.838   2.218
  287WAT     H1 1103   1.424   4.741   2.223
  287WAT     H2 1104   1.466   4.873   2.309
  288WAT      O 1105   3.865   6.227   2.304
  288WAT     H1 1106   3.907   6.172   2.375
  288WAT     H2 1107   3.871   6.179   2.216
  289WAT      O 1108   0.026   5.597   7.513
  289WAT     H1 1109   0.028   5.507   7.470
  289WAT     H2 1110   0.047   5.667   7.445
  290WAT      O 1111   5.512   1.041   6.583
  290WAT     H1 1112   5.530   1.090   6.498
  290WAT     H2 1113   5.473   0.951   6.562
  291WAT      O 1114   0.620   7.847   0.041
  291WAT     H1 1115   0.716   7.876   0.032
  291WAT     H2 1116   0.588   7.810  -0.046
  292WAT      O 1117   4.638   0.327   9.054
  292WAT     H1 1118   4.733   0.339   9.024
  292WAT     H2 1119   4.631   0.348   9.152
  293WAT      O 1120   4.786   2.492   3.580
  293WAT     H1 1121   4.843   2.520   3.658
  293WAT     H2 1122   4.751   2.574   3.534
  294WAT      O 1123   1.188   5.105   4.677
  294WAT     H1 1124   1.129   5.024   4.668
  294WAT     H2 1125   1.240   5.098   4.763
  295WAT      O 1126   0.972   3.077   0.886
  295WAT     H1 1127   0.967   3.048   0.791
  295WAT     H2 1128   0.909   3.021   0.941
  296WAT      O 1129   5.131   6.958   6.249
  296WAT     H1 1130   5.098   6.928   6.339
  296WAT     H2 1131   5.192   6.888   6.212
  297WAT      O 1132   3.501   3.214   8.903
  297WAT     H1 1133   3.420   3.172   8.943
  297WAT     H2 1134   3.560   3.249   8.976
  298WAT      O 1135   6.964   5.178   4.422
  298WAT     H1 1136   6.953   5.272   4.390
  298WAT     H2 1137   7.010   5.124   4.351
  299WAT      O 1138   1.602   3.251   7.994
  299WAT     H1 1139   1.698   3.241   7.967
  299WAT     H2 1140   1.595   3.316   8.069
  300WAT      O 1141   7.727   4.925   1.063
  300WAT     H1 1142   7.650   4.981   1.032
  300WAT     H2 1143   7.755   4.953   1.155
  301WAT      O 1144   8.966   7.471   2.106
  301WAT     H1 1145   8.890   7.505   2.051
  301WAT     H2 1146   8.932   7.406   2.173
  302WAT      O 1147   2.412   1.114   4.088
  302WAT     H1 1148   2.406   1.070   3.998
  302WAT     H2 1149   2.492   1.079   4.137
  303WAT      O 1150   4.763   3.912   7.986
  303WAT     H1 1151   4.743   3.857   8.068
  303WAT     H2 1152   4.741   3.859   7.904
  304WAT      O 1153   7.713   4.459   4.041
  304WAT     H1 1154   7.658   4.479   4.122
  304WAT     H2 1155   7.670   4.499   3.960
  305WAT      O 1156   8.482   8.618   8.746
  305WAT     H1 1157   8.390   8.592   8.775
  305WAT     H2 1158   8.548   8.548   8.775
  306WAT      O 1159   4.378   8.011   4.092
  306WAT     H1 1160   4.467   8.057   4.084
  306WAT     H2 1161   4.316   8.048   4.023
  307WAT      O 1162   1.017   3.272   8.287
  307WAT     H1 1163   0.922   3.300   8.293
  307WAT     H2 1164   1.027   3.199   8.219
  308WAT      O 1165   5.591   0.064   6.543
  308WAT     H1 1166   5.499   0.100   6.527
  308WAT     H2 1167   5.626   0.024   6.458
  309WAT      O 1168   7.884   2.161   5.921
  309WAT     H1 1169   7.922   2.174   6.012
  309WAT     H2 1170   7.786   2.141   5.928
  310WAT      O 1171   2.012   2.248   2.234
  310WAT     H1 1172   2.081   2.319   2.219
  310WAT     H2 1173   1.924   2.290   2.254
  311WAT      O 1174   7.987   5.249   2.829
  311WAT     H1 1175   8.069   5.281   2.782
  311WAT     H2 1176   7.912   5.239   2.762
  312WAT      O 1177   3.141   4.285   6.326
  312WAT     H1 1178   3.055   4.254   6.367
  312WAT     H2 1179   3.159   4.379   6.354
  313WAT      O 1180   4.785   8.314   1.855
  313WAT     H1 1181   4.782   8.255   1.936
  313WAT     H2 1182   4.750   8.263   1.776
  314WAT      O 1183   9.042   2.076   0.365
  314WAT     H1 1184   8.955   2.078   0.314
  314WAT     H2 1185   9.026   2.110   0.458
  315WAT      O 1186   0.461   9.826   5.279
  315WAT     H1 1187   0.542   9.867   5.236
  315WAT     H2 1188   0.447   9.865   5.370
  316WAT      O 1189   0.216   4.126   4.475
  316WAT     H1 1190   0.179   4.217   4.497
  316WAT     H2 1191   0.152   4.078   4.415
  317WAT      O 1192   1.517   2.126   8.997
  317WAT     H1 1193   1.454   2.054   8.966
  317WAT     H2 1194   1.514   2.202   8.933
  318WAT      O 1195   9.205   1.870   0.243
  318WAT     H1 1196   9.173   1.795   0.301
  318WAT     H2 1197   9.145   1.949   0.255
  319WAT      O 1198   6.475   4.733   6.318
  319WAT     H1 1199   6.547   4.793   6.354
  319WAT     H2 1200   6.388   4.782   6.319
  320WAT      O 1201   3.122   5.836   8.581
  320WAT     H1 1202   3.207   5.848   8.530
  320WAT     H2 1203   3.056   5.788   8.525
  321WAT      O 1204   5.152   3.668   1.581
  321WAT     H1 1205   5.184   3.581   1.543
  321WAT     H2 1206   5.214   3.742   1.552
  322WAT      O 1207   7.287   7.632   9.046
  322WAT     H1 1208   7.250   7.723   9.031
  322WAT     H2 1209   7.281   7.579   8.961
  323WAT      O 1210   6.101   8.085   3.602
  323WAT     H1 1211   6.013   8.053   3.566
  323WAT     H2 1212   6.126   8.031   3.682
  324WAT      O 1213   3.624   7.099   8.302
  324WAT     H1 1214   3.673   7.069   8.220
  324WAT     H2 1215   3.560   7.172   8.277
  325WAT      O 1216   1.659   4.715   2.818
  325WAT     H1 1217   1.659   4.722   2.917
  325WAT     H2 1218   1.642   4.621   2.790
  326WAT      O 1219   6.607   5.742   4.637
  326WAT     H1 1220   6.524   5.773   4.684
  326WAT     H2 1221   6.598   5.645   4.613
  327WAT      O 1222   4.162   2.288   4.559
  327WAT     H1 1223   4.122   2.377   4.539
  327WAT     H2 1224   4.150   2.266   4.656
  328WAT      O 1225   8.863   7.917   8.267
  328WAT     H1 1226   8.780   7.973   8.270
  328WAT     H2 1227   8.943   7.977   8.270
  329WAT      O 1228   8.537   7.507   8.622
  329WAT     H1 1229   8.519   7.563   8.703
  329WAT     H2 1230   8.632   7.520   8.593
  330WAT      O 1231   6.849   9.363   4.579
  330WAT     H1 1232   6.889   9.391   4.666
  330WAT     H2 1233   6.751   9.346   4.592
  331WAT      O 1234   4.538   0.772   6.367
  331WAT     H1 1235   4.464   0.715   6.402
  331WAT     H2 1236   4.600   0.796   6.442
  332WAT      O 1237   2.831   1.712   2.906
  332WAT     H1 1238   2.861   1.759   2.990
  332WAT     H2 1239   2.741   1.670   2.922
  333WAT      O 1240   3.200   3.304   6.428
  333WAT     H1 1241   3.209   3.394   6.471
  333WAT     H2 1242   3.266   3.296   6.353
  334WAT      O 1243   8.463   5.211   5.928
  334WAT     H1 1244   8.467   5.238   5.832
  334WAT     H2 1245   8.374   5.236   5.966
  335WAT      O 1246   6.209   3.638   7.234
  335WAT     H1 1247   6.142   3.698   7.189
  335WAT     H2 1248   6.283   3.618   7.169
  336WAT      O 1249   8.762   5.370   0.535
  336WAT     H1 1250   8.836   5.304   0.552
  336WAT     H2 1251   8.674   5.329   0.560
  337WAT      O 1252   1.807   6.500   1.642
  337WAT     H1 1253   1.841   6.416   1.600
  337WAT     H2 1254   1.778   6.481   1.735
  338WAT      O 1255   1.962   9.017   1.612
  338WAT     H1 1256   1.993   8.997   1.519
  338WAT     H2 1257   1.865   8.995   1.620
  339WAT      O 1258   5.467   4.056   8.555
  339WAT     H1 1259   5.559   4.063   8.518
  339WAT     H2 1260   5.469   4.076   8.653
  340WAT      O 1261   4.679   6.616   5.031
  340WAT     H1 1262   4.691   6.519   5.008
  340WAT     H2 1263   4.638   6.664   4.954
  341WAT      O 1264   2.921   4.326   4.284
  341WAT     H1 1265   2.959   4.285   4.201
  341WAT     H2 1266   2.940   4.424   4.285
  342WAT      O 1267   6.242   8.144   8.646
  342WAT     H1 1268   6.258   8.045   8.651
  342WAT     H2 1269   6.149   8.164   8.675
  343WAT      O 1270   1.778   2.178   3.415
  343WAT     H1 1271   1.708   2.106   3.415
  343WAT     H2 1272   1.776   2.227   3.502
  344WAT      O 1273   9.331   4.384   0.692
  344WAT     H1 1274   9.292   4.421   0.777
  344WAT     H2 1275   9.368   4.458   0.637
  345WAT      O 1276   1.845   7.346   9.158
  345WAT     H1 1277   1.889   7.265   9.196
  345WAT     H2 1278   1.792   7.322   9.077
  346WAT      O 1279   5.001   8.380   2.675
  346WAT     H1 1280   4.916   8.357   2.721
  346WAT     H2 1281   5.079   8.352   2.732
  347WAT      O 1282   4.076   6.256   4.303
  347WAT     H1 1283   4.084   6.198   4.221
  347WAT     H2 1284   3.995   6.229   4.355
  348WAT      O 1285   5.879   9.082   2.632
  348WAT     H1 1286   5.844   9.127   2.714
  348WAT     H2 1287   5.817   9.098   2.556
  349WAT      O 1288   4.104   6.889   9.650
  349WAT     H1 1289   4.149   6.806   9.680
  349WAT     H2 1290   4.127   6.964   9.712
  350WAT      O 1291   1.666   4.888   1.226
  350WAT     H1 1292   1.659   4.901   1.127
  350WAT     H2 1293   1.757   4.856   1.249
  351WAT      O 1294   7.356   9.502   6.935
  351WAT     H1 1295   7.357   9.572   7.007
  351WAT     H2 1296   7.270   9.507   6.885
  352WAT      O 1297   4.427   3.106   2.848
  352WAT     H1 1298   4.333   3.079   2.830
  352WAT     H2 1299   4.465   3.049   2.921
  353WAT      O 1300   0.464   7.424   0.908
  353WAT     H1 1301   0.426   7.394   0.820
  353WAT     H2 1302   0.560   7.449   0.896
  354WAT      O 1303   2.343   4.826   2.514
  354WAT     H1 1304   2.263   4.771   2.490
  354WAT     H2 1305   2.419   4.801   2.453
  355WAT      O 1306   0.720   9.385   9.031
  355WAT     H1 1307   0.658   9.359   8.957
  355WAT     H2 1308   0.680   9.461   9.082
  356WAT      O 1309   9.844   6.815   7.815
  356WAT     H1 1310   9.893   6.774   7.892
  356WAT     H2 1311   9.909   6.859   7.754
  357WAT      O 1312   6.697   9.263   9.158
  357WAT     H1 1313   6.715   9.283   9.062
  357WAT     H2 1314   6.648   9.340   9.200
  358WAT      O 1315   9.615   6.146   6.946
  358WAT     H1 1316   9.563   6.222   6.984
  358WAT     H2 1317   9.710   6.175   6.931
  359WAT      O 1318   3.446   4.191   4.060
  359WAT     H1 1319   3.484   4.133   4.132
  359WAT     H2 1320   3.520   4.227   4.003
  360WAT      O 1321   9.336   6.754   7.467
  360WAT     H1 1322   9.275   6.742   7.546
  360WAT     H2 1323   9.380   6.666   7.446
  361WAT      O 1324   6.966   1.126   8.006
  361WAT     H1 1325   7.030   1.051   7.995
  361WAT     H2 1326   6.878   1.091   8.038
  362WAT      O 1327   6.804   8.689   8.484
  362WAT     H1 1328   6.717   8.640   8.475
  362WAT     H2 1329   6.868   8.634   8.538
  363WAT      O 1330   5.440   7.252   2.084
  363WAT     H1 1331   5.373   7.279   2.154
  363WAT     H2 1332   5.496   7.177   2.119
  364WAT      O 1333   7.969   2.726   7.363
  364WAT     H1 1334   7.948   2.819   7.332
  364WAT     H2 1335   7.910   2.703   7.440
  365WAT      O 1336   6.198   5.806   8.228
  365WAT     H1 1337   6.192   5.852   8.317
  365WAT     H2 1338   6.289   5.821   8.189
  366WAT      O 1339   6.836   4.881   1.938
  366WAT     H1 1340   6.759   4.836   1.982
  366WAT     H2 1341   6.806   4.966   1.895
  367WAT      O 1342   6.353   4.362   7.270
  367WAT     H1 1343   6.253   4.357   7.273
  367WAT     H2 1344   6.382   4.457   7.279
  368WAT      O 1345   2.386   4.603   8.040
  368WAT     H1 1346   2.314   4.627   8.106
  368WAT     H2 1347   2.353   4.532   7.979
  369WAT      O 1348   2.945   0.751   0.906
  369WAT     H1 1349   2.932   0.757   1.005
  369WAT     H2 1350   3.043   0.760   0.884
  370WAT      O 1351   1.765   2.026   4.771
  370WAT     H1 1352   1.860   2.048   4.747
  370WAT     H2 1353   1.705   2.100   4.742
  371WAT      O 1354   2.219   8.504   3.955
  371WAT     H1 1355   2.310   8.500   3.997
  371WAT     H2 1356   2.153   8.458   4.014
  372WAT      O 1357   2.569   8.736   7.424
  372WAT     H1 1358   2.470   8.727   7.412
  372WAT     H2 1359   2.596   8.701   7.514
  373WAT      O 1360   3.501   1.331   8.100
  373WAT     H1 1361   3.428   1.323   8.168
  373WAT     H2 1362   3.487   1.264   8.027
  374WAT      O 1363   2.927   7.695   7.979
  374WAT     H1 1364   2.848   7.668   8.032
  374WAT     H2 1365   2.901   7.709   7.883
  375WAT      O 1366   2.158   4.950   9.282
  375WAT     H1 1367   2.253   4.958   9.251
  375WAT     H2 1368   2.153   4.882   9.355
  376WAT      O 1369   3.823   8.159   9.415
  376WAT     H1 1370   3.754   8.134   9.348
  376WAT     H2 1371   3.816   8.099   9.495
  377WAT      O 1372   0.776   1.671   1.823
  377WAT     H1 1373   0.816   1.755   1.859
  377WAT     H2 1374   0.693   1.648   1.875
  378WAT      O 1375   3.396   3.288   4.922
  378WAT     H1 1376   3.306   3.307   4.883
  378WAT     H2 1377   3.405   3.335   5.010
  379WAT      O 1378   0.582   6.433   0.471
  379WAT     H1 1379   0.642   6.371   0.421
  379WAT     H2 1380   0.527   6.381   0.536
  380WAT      O 1381   9.447   7.328   3.111
  380WAT     H1 1382   9.523   7.386   3.080
  380WAT     H2 1383   9.368   7.341   3.051
  381WAT      O 1384   9.701   4.888   1.219
  381WAT     H1 1385   9.654   4.843   1.143
  381WAT     H2 1386   9.733   4.978   1.189
  382WAT      O 1387   8.852   4.403   0.084
  382WAT     H1 1388   8.843   4.367   0.177
  382WAT     H2 1389   8.766   4.445   0.056
  383WAT      O 1390   4.275   4.020   6.399
  383WAT     H1 1391   4.260   3.939   6.454
  383WAT     H2 1392   4.362   4.012   6.350
  384WAT      O 1393   5.840   4.405   7.587
  384WAT     H1 1394   5.858   4.314   7.624
  384WAT     H2 1395   5.808   4.397   7.493
  385WAT      O 1396   3.993   1.161   9.748
  385WAT     H1 1397   3.963   1.211   9.667
  385WAT     H2 1398   3.918   1.159   9.815
  386WAT      O 1399   1.660   7.700   7.236
  386WAT     H1 1400   1.755   7.697   7.205
  386WAT     H2 1401   1.658   7.700   7.336
  387WAT      O 1402   4.493   3.091   9.815
  387WAT     H1 1403   4.403   3.107   9.775
  387WAT     H2 1404   4.517   2.995   9.808
  388WAT      O 1405   0.854   7.159   1.400
  388WAT     H1 1406   0.847   7.131   1.304
  388WAT     H2 1407   0.830   7.255   1.408
  389WAT      O 1408   0.107   5.439   5.646
  389WAT     H1 1409   0.193   5.477   5.677
  389WAT     H2 1410   0.083   5.478   5.557
  390WAT      O 1411   6.792   6.751   7.869
  390WAT     H1 1412   6.837   6.779   7.954
  390WAT     H2 1413   6.856   6.761   7.793
  391WAT      O 1414   3.678   1.353   2.792
  391WAT     H1 1415   3.641   1.270   2.751
  391WAT     H2 1416   3.615   1.430   2.775
  392WAT      O 1417   1.213   6.886   8.147
  392WAT     H1 1418   1.190   6.974   8.104
  392WAT     H2 1419   1.131   6.828   8.149
  393WAT      O 1420   9.475   5.766   2.757
  393WAT     H1 1421   9.448   5.817   2.839
  393WAT     H2 1422   9.563   5.799   2.724
  394WAT      O 1423   3.619   4.563   1.166
  394WAT     H1 1424   3.549   4.543   1.097
  394WAT     H2 1425   3.663   4.651   1.144
  395WAT      O 1426   4.590   5.843   2.933
  395WAT     H1 1427   4.495   5.836   2.902
  395WAT     H2 1428   4.600   5.796   3.021
  396WAT      O 1429   6.875   0.713   9.778
  396WAT     H1 1430   6.875   0.766   9.862
  396WAT     H2 1431   6.931   0.760   9.709
  397WAT      O 1432   3.369   7.422   0.403
  397WAT     H1 1433   3.277   7.426   0.364
  397WAT     H2 1434   3.388   7.505   0.455
  398WAT      O 1435   3.759   0.600   1.056
  398WAT     H1 1436   3.833   0.663   1.080
  398WAT     H2 1437   3.689   0.603   1.128
  399WAT      O 1438   7.819   4.243   8.352
  399WAT     H1 1439   7.780   4.328   8.316
  399WAT     H2 1440   7.884   4.265   8.424
  400WAT      O 1441   8.951   0.194   5.737
  400WAT     H1 1442   9.021   0.240   5.682
  400WAT     H2 1443   8.926   0.252   5.815
  401WAT      O 1444   9.210   6.312   3.042
  401WAT     H1 1445   9.118   6.316   3.080
  401WAT     H2 1446   9.238   6.404   3.012
  402WAT      O 1447   4.212   6.483   2.092
  402WAT     H1 1448   4.200   6.558   2.157
  402WAT     H2 1449   4.269   6.514   2.016
  403WAT      O 1450   5.424   8.929   5.841
  403WAT     H1 1451   5.478   8.990   5.898
  403WAT     H2 1452   5.379   8.860   5.898
  404WAT      O 1453   1.977   2.079   2.015
  404WAT     H1 1454   2.059   2.027   1.992
  404WAT     H2 1455   1.995   2.133   2.098
  405WAT      O 1456   5.167   2.928   4.567
  405WAT     H1 1457   5.072   2.959   4.567
  405WAT     H2 1458   5.181   2.863   4.641
  406WAT      O 1459   3.672   0.916   6.450
  406WAT     H1 1460   3.584   0.961   6.468
  406WAT     H2 1461   3.691   0.849   6.521
  407WAT      O 1462   4.040   0.538   3.665
  407WAT     H1 1463   4.000   0.620   3.625
  407WAT     H2 1464   4.140   0.547   3.667
  408WAT      O 1465   0.025   7.496   7.733
  408WAT     H1 1466  -0.060   7.466   7.688
  408WAT     H2 1467   0.016   7.591   7.761
  409WAT      O 1468   8.737   4.405   8.241
  409WAT     H1 1469   8.728   4.321   8.187
  409WAT     H2 1470   8.740   4.484   8.179
  410WAT      O 1471   5.244   1.419   3.754
  410WAT     H1 1472   5.178   1.475   3.705
  410WAT     H2 1473   5.330   1.417   3.703
  411WAT      O 1474   5.328   3.003   0.228
  411WAT     H1 1475   5.253   2.976   0.288
  411WAT     H2 1476   5.292   3.051   0.148
  412WAT      O 1477   7.656   1.169   1.732
  412WAT     H1 1478   7.632   1.143   1.638
  412WAT     H2 1479   7.591   1.127   1.795
  413WAT      O 1480   9.298   0.154   2.991
  413WAT     H1 1481   9.391   0.141   3.025
  413WAT     H2 1482   9.255   0.066   2.974
  414WAT      O 1483   9.264   9.602   3.695
  414WAT     H1 1484   9.343   9.580   3.639
  414WAT     H2 1485   9.249   9.529   3.762
  415WAT      O 1486   1.228   3.861   7.935
  415WAT     H1 1487   1.152   3.824   7.989
  415WAT     H2 1488   1.258   3.948   7.975
  416WAT      O 1489   4.307   5.827   2.847
  416WAT     H1 1490   4.229   5.793   2.795
  416WAT     H2 1491   4.306   5.787   2.939
  417WAT      O 1492   1.669   5.362   3.229
  417WAT     H1 1493   1.594   5.322   3.281
  417WAT     H2 1494   1.637   5.383   3.136
  418WAT      O 1495   2.462   7.189   2.333
  418WAT     H1 1496   2.384   7.127   2.329
  418WAT     H2 1497   2.530   7.153   2.397
  419WAT      O 1498   9.171   6.233   5.943
  419WAT     H1 1499   9.237   6.226   6.018
  419WAT     H2 1500   9.142   6.141   5.916
  420WAT      O 1501   2.356   6.229   9.117
  420WAT     H1 1502   2.260   6.219   9.091
  420WAT     H2 1503   2.400   6.293   9.055
  421WAT      O 1504   2.238   8.002   2.229
  421WAT     H1 1505   2.318   8.017   2.170
  421WAT     H2 1506   2.269   7.990   2.323
  422WAT      O 1507   6.801   1.725   2.955
  422WAT     H1 1508   6.709   1.700   2.924
  422WAT     H2 1509   6.822   1.673   3.038
  423WAT      O 1510   0.846   0.537   6.687
  423WAT     H1 1511   0.758   0.584   6.692
  423WAT     H2 1512   0.870   0.520   6.592
  424WAT      O 1513   6.754   3.733   7.419
  424WAT     H1 1514   6.750   3.831   7.401
  424WAT     H2 1515   6.743   3.717   7.517
  425WAT      O 1516   3.835   5.414   9.743
  425WAT     H1 1517   3.925   5.402   9.701
  425WAT     H2 1518   3.785   5.327   9.740
  426WAT      O 1519   4.306   0.877   6.941
  426WAT     H1 1520   4.253   0.824   6.875
  426WAT     H2 1521   4.252   0.956   6.970
  427WAT      O 1522   2.245   5.516   3.488
  427WAT     H1 1523   2.344   5.503   3.494
  427WAT     H2 1524   2.220   5.537   3.393
  428WAT      O 1525   2.194   6.066   4.952
  428WAT     H1 1526   2.179   6.128   5.030
  428WAT     H2 1527   2.155   5.976   4.973
  429WAT      O 1528   6.182   6.242   2.113
  429WAT     H1 1529   6.162   6.187   2.032
  429WAT     H2 1530   6.280   6.233   2.135
  430WAT      O 1531   6.510   8.814   6.045
  430WAT     H1 1532   6.567   8.808   5.963
  430WAT     H2 1533   6.461   8.901   6.046
  431WAT      O 1534   5.385   7.641   8.659
  431WAT     H1 1535   5.471   7.678   8.695
  431WAT     H2 1536   5.344   7.707   8.597
  432WAT      O 1537   5.943   8.245   7.481
  432WAT     H1 1538   6.012   8.198   7.425
  432WAT     H2 1539   5.949   8.213   7.575
  433WAT      O 1540   1.231   2.492   4.754
  433WAT     H1 1541   1.259   2.438   4.833
  433WAT     H2 1542   1.205   2.584   4.783
  434WAT      O 1543   9.129   6.820   5.623
  434WAT     H1 1544   9.186   6.887   5.575
  434WAT     H2 1545   9.153   6.820   5.720
  435WAT      O 1546   2.484   3.606   7.185
  435WAT     H1 1547   2.555   3.648   7.129
  435WAT     H2 1548   2.402   3.592   7.129
  436WAT      O 1549   0.958   8.300   9.540
  436WAT     H1 1550   0.927   8.305   9.635
  436WAT     H2 1551   0.946   8.207   9.505
  437WAT      O 1552   3.381   4.757   9.611
  437WAT     H1 1553   3.472   4.797   9.620
  437WAT     H2 1554   3.373   4.713   9.521
  438WAT      O 1555   8.313   4.541   3.446
  438WAT     H1 1556   8.330   4.573   3.539
  438WAT     H2 1557   8.279   4.447   3.448
  439WAT      O 1558   5.971   9.050   3.898
  439WAT     H1 1559   6.052   9.001   3.865
  439WAT     H2 1560   6.000   9.131   3.949
  440WAT      O 1561   3.481   6.701   3.212
  440WAT     H1 1562   3.533   6.638   3.270
  440WAT     H2 1563   3.386   6.672   3.207
  441WAT      O 1564   9.111   7.125   3.836
  441WAT     H1 1565   9.024   7.081   3.812
  441WAT     H2 1566   9.186   7.080   3.787
  442WAT      O 1567   3.888   7.255   7.148
  442WAT     H1 1568   3.878   7.191   7.072
  442WAT     H2 1569   3.832   7.336   7.131
  443WAT      O 1570   1.666   5.806   6.231
  443WAT     H1 1571   1.668   5.734   6.162
  443WAT     H2 1572   1.588   5.867   6.214
  444WAT      O 1573   9.192   5.252   5.368
  444WAT     H1 1574   9.205   5.160   5.332
  444WAT     H2 1575   9.139   5.247   5.453
  445WAT      O 1576   1.214   3.604   0.900
  445WAT     H1 1577   1.166   3.526   0.940
  445WAT     H2 1578   1.301   3.573   0.861
  446WAT      O 1579   7.755   1.763   4.091
  446WAT     H1 1580   7.851   1.741   4.110
  446WAT     H2 1581   7.700   1.679   4.092
  447WAT      O 1582   8.537   6.826   5.343
  447WAT     H1 1583   8.503   6.919   5.358
  447WAT     H2 1584   8.461   6.768   5.313
  448WAT      O 1585   0.991   8.734   4.360
  448WAT     H1 1586   0.987   8.658   4.425
  448WAT     H2 1587   1.026   8.815   4.406
  449WAT      O 1588   6.308   0.610   5.884
  449WAT     H1 1589   6.220   0.623   5.839
  449WAT     H2 1590   6.355   0.530   5.845
  450WAT      O 1591   6.463   3.926   5.599
  450WAT     H1 1592   6.493   4.012   5.556
  450WAT     H2 1593   6.532   3.896   5.664
  451WAT      O 1594   5.831   8.681   7.872
  451WAT     H1 1595   5.828   8.593   7.824
  451WAT     H2 1596   5.790   8.752   7.814
  452WAT      O 1597   4.533   3.492   0.455
  452WAT     H1 1598   4.457   3.455   0.402
  452WAT     H2 1599   4.499   3.551   0.528
  453WAT      O 1600   8.235   2.844   2.576
  453WAT     H1 1601   8.235   2.748   2.605
  453WAT     H2 1602   8.181   2.854   2.493
  454WAT      O 1603   3.887   2.301   5.310
  454WAT     H1 1604   3.856   2.209   5.332
  454WAT     H2 1605   3.960   2.328   5.372
  455WAT      O 1606   8.867   7.726   3.022
  455WAT     H1 1607   8.831   7.788   3.091
  455WAT     H2 1608   8.904   7.779   2.946
  456WAT      O 1609   3.521   3.564   3.092
  456WAT     H1 1610   3.423   3.584   3.094
  456WAT     H2 1611   3.553   3.547   3.185
  457WAT      O 1612   3.296   3.866   3.973
  457WAT     H1 1613   3.390   3.834   3.968
  457WAT     H2 1614   3.271   3.910   3.886
  458WAT      O 1615   7.282   7.296   3.860
  458WAT     H1 1616   7.187   7.326   3.862
  458WAT     H2 1617   7.303   7.246   3.944
  459WAT      O 1618   3.531   3.993   1.981
  459WAT     H1 1619   3.432   3.992   1.969
  459WAT     H2 1620   3.574   3.936   1.911
  460WAT      O 1621   5.262   7.427   9.390
  460WAT     H1 1622   5.203   7.489   9.339
  460WAT     H2 1623   5.239   7.332   9.367
  461WAT      O 1624   5.627   4.174   0.560
  461WAT     H1 1625   5.659   4.084   0.530
  461WAT     H2 1626   5.548   4.201   0.506
  462WAT      O 1627   0.922   2.910   0.670
  462WAT     H1 1628   0.859   2.932   0.595
  462WAT     H2 1629   0.882   2.837   0.726
  463WAT      O 1630   4.476   5.479   1.646
  463WAT     H1 1631   4.530   5.406   1.688
  463WAT     H2 1632   4.537   5.551   1.613
  464WAT      O 1633   2.202   3.990   5.891
  464WAT     H1 1634   2.254   3.957   5.970
  464WAT     H2 1635   2.243   3.956   5.807
  465WAT      O 1636   4.410   7.015   7.332
  465WAT     H1 1637   4.412   6.947   7.258
  465WAT     H2 1638   4.464   6.982   7.409
  466WAT      O 1639   8.520   6.819   1.261
  466WAT     H1 1640   8.503   6.722   1.277
  466WAT     H2 1641   8.437   6.862   1.226
  467WAT      O 1642   1.178   7.560   1.128
  467WAT     H1 1643   1.158   7.519   1.217
  467WAT     H2 1644   1.184   7.487   1.059
  468WAT      O 1645   2.628   6.300   4.000
  468WAT     H1 1646   2.700   6.272   4.064
  468WAT     H2 1647   2.659   6.381   3.950
  469WAT      O 1648   7.727   2.008   7.532
  469WAT     H1 1649   7.635   1.984   7.502
  469WAT     H2 1650   7.744   1.971   7.623
  470WAT      O 1651   4.605   2.593   4.969
  470WAT     H1 1652   4.566   2.572   4.879
  470WAT     H2 1653   4.592   2.690   4.989
  471WAT      O 1654   1.860   0.333   4.614
  471WAT     H1 1655   1.815   0.420   4.638
  471WAT     H2 1656   1.933   0.315   4.679
  472WAT      O 1657   7.595   2.202   0.074
  472WAT     H1 1658   7.590   2.210   0.173
  472WAT     H2 1659   7.630   2.112   0.049
  473WAT      O 1660   0.509   7.279   0.434
  473WAT     H1 1661   0.429   7.254   0.379
  473WAT     H2 1662   0.581   7.210   0.422
  474WAT      O 1663   6.559   6.325   0.139
  474WAT     H1 1664   6.594   6.254   0.201
  474WAT     H2 1665   6.459   6.329   0.148
  475WAT      O 1666   6.065   5.841   5.290
  475WAT     H1 1667   5.981   5.788   5.277
  475WAT     H2 1668   6.057   5.895   5.374
  476WAT      O 1669   8.890   7.745   0.210
  476WAT     H1 1670   8.808   7.729   0.155
  476WAT     H2 1671   8.891   7.839   0.242
  477WAT      O 1672   2.453   8.835   7.133
  477WAT     H1 1673   2.536   8.865   7.181
  477WAT     H2 1674   2.462   8.739   7.108
  478WAT      O 1675   7.347   5.816   6.375
  478WAT     H1 1676   7.345   5.805   6.276
  478WAT     H2 1677   7.280   5.756   6.418
  479WAT      O 1678   0.593   2.329   9.291
  479WAT     H1 1679   0.674   2.338   9.350
  479WAT     H2 1680   0.544   2.416   9.290
  480WAT      O 1681   1.072   0.448   2.655
  480WAT     H1 1682   1.014   0.477   2.579
  480WAT     H2 1683   1.078   0.523   2.722
  481WAT      O 1684   5.686   0.546   7.843
  481WAT     H1 1685   5.739   0.619   7.886
  481WAT     H2 1686   5.655   0.482   7.914
  482WAT      O 1687   7.399   1.818   0.394
  482WAT     H1 1688   7.481   1.822   0.450
  482WAT     H2 1689   7.329   1.878   0.434
  483WAT      O 1690   3.926   0.214   7.700
  483WAT     H1 1691   3.861   0.211   7.624
  483WAT     H2 1692   4.002   0.275   7.676
  484WAT      O 1693   4.879   0.554   9.596
  484WAT     H1 1694   4.782   0.541   9.578
  484WAT     H2 1695   4.898   0.534   9.693
  485WAT      O 1696   9.205   9.228   9.676
  485WAT     H1 1697   9.194   9.169   9.756
  485WAT     H2 1698   9.206   9.172   9.593
  486WAT      O 1699   8.046   2.129   9.244
  486WAT     H1 1700   7.963   2.185   9.249
  486WAT     H2 1701   8.074   2.103   9.336
  487WAT      O 1702   7.201   5.624   1.760
  487WAT     H1 1703   7.274   5.685   1.728
  487WAT     H2 1704   7.211   5.608   1.858
  488WAT      O 1705   5.710   0.228   1.283
  488WAT     H1 1706   5.747   0.217   1.376
  488WAT     H2 1707   5.694   0.325   1.265
  489WAT      O 1708   8.644   5.228   3.806
  489WAT     H1 1709   8.647   5.299   3.736
  489WAT     H2 1710   8.678   5.142   3.768
  490WAT      O 1711   0.140   2.737   6.062
  490WAT     H1 1712   0.136   2.731   5.962
  490WAT     H2 1713   0.102   2.653   6.102
  491WAT      O 1714   6.855   1.421   4.726
  491WAT     H1 1715   6.886   1.334   4.687
  491WAT     H2 1716   6.919   1.493   4.700
  492WAT      O 1717   4.921   4.663   5.777
  492WAT     H1 1718   4.987   4.672   5.701
  492WAT     H2 1719   4.833   4.632   5.741
  493WAT      O 1720   2.349   2.338   1.786
  493WAT     H1 1721   2.274   2.287   1.745
  493WAT     H2 1722   2.433   2.321   1.734
  494WAT      O 1723   6.968   2.607   0.636
  494WAT     H1 1724   6.966   2.644   0.543
  494WAT     H2 1725   6.971   2.682   0.702
  495WAT      O 1726   5.441   1.317   8.688
  495WAT     H1 1727   5.374   1.247   8.712
  495WAT     H2 1728   5.531   1.290   8.721
  496WAT      O 1729   3.848   7.309   1.289
  496WAT     H1 1730   3.850   7.396   1.337
  496WAT     H2 1731   3.942   7.275   1.278
  497WAT      O 1732   8.518   3.276   2.237
  497WAT     H1 1733   8.595   3.314   2.186
  497WAT     H2 1734   8.503   3.330   2.320
  498WAT      O 1735   4.844   7.289   2.564
  498WAT     H1 1736   4.935   7.327   2.582
  498WAT     H2 1737   4.849   7.223   2.490
  499WAT      O 1738   4.495   8.348   9.342
  499WAT     H1 1739   4.401   8.380   9.328
  499WAT     H2 1740   4.557   8.401   9.285
  500WAT      O 1741   8.342   6.671   4.951
  500WAT     H1 1742   8.347   6.671   5.051
  500WAT     H2 1743   8.351   6.578   4.917
  501WAT      O 1744   6.993   9.507   7.298
  501WAT     H1 1745   7.026   9.432   7.242
  501WAT     H2 1746   7.014   9.489   7.394
  502WAT      O 1747   5.578   6.944   0.303
  502WAT     H1 1748   5.482   6.970   0.291
  502WAT     H2 1749   5.601   6.870   0.240
  503WAT      O 1750   1.754   6.292   7.340
  503WAT     H1 1751   1.661   6.299   7.302
  503WAT     H2 1752   1.775   6.374   7.393
  504WAT      O 1753   8.402   5.243   5.392
  504WAT     H1 1754   8.374   5.147   5.400
  504WAT     H2 1755   8.321   5.302   5.393
  505WAT      O 1756   4.486   9.420   2.482
  505WAT     H1 1757   4.559   9.441   2.548
  505WAT     H2 1758   4.416   9.366   2.527
  506WAT      O 1759   5.210   8.491   7.611
  506WAT     H1 1760   5.125   8.440   7.602
  506WAT     H2 1761   5.274   8.441   7.669
  507WAT      O 1762   0.697   8.330   5.079
  507WAT     H1 1763   0.635   8.408   5.077
  507WAT     H2 1764   0.780   8.354   5.129
  508WAT      O 1765   6.801   3.831   0.029
  508WAT     H1 1766   6.773   3.763   0.097
  508WAT     H2 1767   6.763   3.805  -0.060
  509WAT      O 1768   0.899   9.066   0.650
  509WAT     H1 1769   0.898   8.983   0.594
  509WAT     H2 1770   0.991   9.080   0.687
  510WAT      O 1771   2.796   3.118   2.797
  510WAT     H1 1772   2.854   3.149   2.723
  510WAT     H2 1773   2.771   3.195   2.856
  511WAT      O 1774   8.840   9.486   1.927
  511WAT     H1 1775   8.782   9.513   1.850
  511WAT     H2 1776   8.783   9.459   2.004
  512WAT      O 1777   1.547   4.053   8.630
  512WAT     H1 1778   1.563   4.134   8.573
  512WAT     H2 1779   1.635   4.016   8.661
  513WAT      O 1780   6.460   5.907   6.833
  513WAT     H1 1781   6.533   5.840   6.842
  513WAT     H2 1782   6.455   5.938   6.738
  514WAT      O 1783   8.177   5.192   5.134
  514WAT     H1 1784   8.093   5.159   5.091
  514WAT     H2 1785   8.176   5.292   5.135
  515WAT      O 1786   3.494   4.330   2.278
  515WAT     H1 1787   3.444   4.264   2.334
  515WAT     H2 1788   3.542   4.283   2.204
  516WAT      O 1789   7.820   2.651   6.575
  516WAT     H1 1790   7.870   2.576   6.618
  516WAT     H2 1791   7.812   2.633   6.477
  517WAT      O 1792   1.422   2.749   6.229
  517WAT     H1 1793   1.400   2.846   6.215
  517WAT     H2 1794   1.514   2.741   6.267
  518WAT      O 1795   3.694   2.110   4.551
  518WAT     H1 1796   3.761   2.165   4.601
  518WAT     H2 1797   3.616   2.167   4.527
  519WAT      O 1798   9.474   5.924   1.366
  519WAT     H1 1799   9.520   5.840   1.394
  519WAT     H2 1800   9.375   5.911   1.371
  520WAT      O 1801   2.853   5.815   0.261
  520WAT     H1 1802   2.814   5.854   0.178
  520WAT     H2 1803   2.928   5.754   0.237
  521WAT      O 1804   3.625   1.819   7.194
  521WAT     H1 1805   3.621   1.896   7.258
  521WAT     H2 1806   3.532   1.792   7.169
  522WAT      O 1807   7.746   8.391   0.873
  522WAT     H1 1808   7.685   8.466   0.898
  522WAT     H2 1809   7.841   8.419   0.887
  523WAT      O 1810   2.758   9.328   6.815
  523WAT     H1 1811   2.699   9.343   6.735
  523WAT     H2 1812   2.840   9.385   6.807
  524WAT      O 1813   2.065   7.785   5.918
  524WAT     H1 1814   2.011   7.719   5.865
  524WAT     H2 1815   2.068   7.756   6.014
  525WAT      O 1816   9.173   8.657   2.779
  525WAT     H1 1817   9.255   8.601   2.769
  525WAT     H2 1818   9.092   8.598   2.774
  526WAT      O 1819   6.126   6.135   3.862
  526WAT     H1 1820   6.198   6.115   3.928
  526WAT     H2 1821   6.048   6.177   3.909
  527WAT      O 1822   5.446   6.239   2.255
  527WAT     H1 1823   5.472   6.146   2.280
  527WAT     H2 1824   5.428   6.292   2.337
  528WAT      O 1825   4.805   7.131   5.524
  528WAT     H1 1826   4.817   7.034   5.506
  528WAT     H2 1827   4.708   7.151   5.537
  529WAT      O 1828   4.649   6.666   6.490
  529WAT     H1 1829   4.682   6.595   6.428
  529WAT     H2 1830   4.631   6.749   6.437
  530WAT      O 1831   1.219   8.215   4.521
  530WAT     H1 1832   1.257   8.220   4.613
  530WAT     H2 1833   1.251   8.130   4.477
  531WAT      O 1834   2.058   4.979   5.761
  531WAT     H1 1835   2.020   4.886   5.762
  531WAT     H2 1836   1.987   5.043   5.732
  532WAT      O 1837   8.694   4.857   5.757
  532WAT     H1 1838   8.695   4.890   5.851
  532WAT     H2 1839   8.754   4.914   5.701
  533WAT      O 1840   2.763   7.294   6.764
  533WAT     H1 1841   2.731   7.373   6.817
  533WAT     H2 1842   2.738   7.210   6.812
  534WAT      O 1843   4.114   2.899   0.166
  534WAT     H1 1844   4.038   2.922   0.106
  534WAT     H2 1845   4.127   2.971   0.233
  535WAT      O 1846   9.843   6.590   8.699
  535WAT     H1 1847   9.813   6.652   8.626
  535WAT     H2 1848   9.892   6.643   8.769
  536WAT      O 1849   9.312   5.534   0.371
  536WAT     H1 1850   9.247   5.607   0.392
  536WAT     H2 1851   9.374   5.522   0.448
  537WAT      O 1852   3.508   5.359   4.062
  537WAT     H1 1853   3.460   5.348   3.974
  537WAT     H2 1854   3.602   5.389   4.045
  538WAT      O 1855   4.622   0.550   3.032
  538WAT     H1 1856   4.719   0.571   3.040
  538WAT     H2 1857   4.610   0.461   2.988
  539WAT      O 1858   5.547   8.565   0.728
  539WAT     H1 1859   5.483   8.510   0.783
  539WAT     H2 1860   5.520   8.661   0.733
  540WAT      O 1861   2.744   8.632   0.561
  540WAT     H1 1862   2.834   8.644   0.602
  540WAT     H2 1863   2.727   8.706   0.495
  541WAT      O 1864   1.042   4.788   2.027
  541WAT     H1 1865   1.127   4.819   1.986
  541WAT     H2 1866   0.985   4.744   1.957
  542WAT      O 1867   8.477   6.047   1.542
  542WAT     H1 1868   8.503   6.068   1.636
  542WAT     H2 1869   8.378   6.060   1.531
  543WAT      O 1870   8.542   4.932   0.955
  543WAT     H1 1871   8.562   4.852   1.012
  543WAT     H2 1872   8.514   4.903   0.864
  544WAT      O 1873   3.614   9.776   8.571
  544WAT     H1 1874   3.651   9.788   8.479
  544WAT     H2 1875   3.605   9.866   8.615
  545WAT      O 1876   7.804   1.125   9.007
  545WAT     H1 1877   7.882   1.089   8.955
  545WAT     H2 1878   7.748   1.182   8.947
  546WAT      O 1879   4.707   8.264   7.554
  546WAT     H1 1880   4.658   8.201   7.494
  546WAT     H2 1881   4.678   8.358   7.534
  547WAT      O 1882   2.074   8.611   7.231
  547WAT     H1 1883   2.088   8.707   7.208
  547WAT     H2 1884   2.099   8.554   7.153
  548WAT      O 1885   0.799   6.682   0.858
  548WAT     H1 1886   0.807   6.594   0.906
  548WAT     H2 1887   0.805   6.666   0.759
  549WAT      O 1888   9.621   7.424   4.800
  549WAT     H1 1889   9.618   7.374   4.713
  549WAT     H2 1890   9.576   7.513   4.788
  550WAT      O 1891   9.129   0.904   5.908
  550WAT     H1 1892   9.166   0.892   5.816
  550WAT     H2 1893   9.029   0.911   5.903
  551WAT      O 1894   0.404   2.592   7.586
  551WAT     H1 1895   0.374   2.686   7.574
  551WAT     H2 1896   0.504   2.588   7.586
  552WAT      O 1897   8.201   5.285   5.995
  552WAT     H1 1898   8.173   5.277   6.091
  552WAT     H2 1899   8.191   5.380   5.965
  553WAT      O 1900   5.712   1.827   7.545
  553WAT     H1 1901   5.765   1.818   7.461
  553WAT     H2 1902   5.732   1.915   7.589
  554WAT      O 1903   0.954   3.717   0.998
  554WAT     H1 1904   1.000   3.661   0.929
  554WAT     H2 1905   1.016   3.788   1.030
  555WAT      O 1906   8.543   9.114   7.140
  555WAT     H1 1907   8.545   9.077   7.233
  555WAT     H2 1908   8.629   9.093   7.094
  556WAT      O 1909   7.190   3.193   2.256
  556WAT     H1 1910   7.238   3.180   2.342
  556WAT     H2 1911   7.237   3.263   2.202
  557WAT      O 1912   1.075   2.277   3.020
  557WAT     H1 1913   1.126   2.348   2.971
  557WAT     H2 1914   1.140   2.213   3.061
  558WAT      O 1915   2.482   4.648   4.468
  558WAT     H1 1916   2.522   4.737   4.494
  558WAT     H2 1917   2.415   4.662   4.396
  559WAT      O 1918   5.732   6.762   8.894
  559WAT     H1 1919   5.645   6.776   8.941
  559WAT     H2 1920   5.802   6.821   8.935
  560WAT      O 1921   3.568   1.239   1.726
  560WAT     H1 1922   3.647   1.201   1.775
  560WAT     H2 1923   3.547   1.330   1.762
  561WAT      O 1924   5.268   6.976   8.532
  561WAT     H1 1925   5.210   6.917   8.589
  561WAT     H2 1926   5.336   6.919   8.486
  562WAT      O 1927   8.188   6.141   3.772
  562WAT     H1 1928   8.201   6.043   3.758
  562WAT     H2 1929   8.092   6.160   3.790
  563WAT      O 1930   5.824   0.988   0.859
  563WAT     H1 1931   5.771   1.025   0.783
  563WAT     H2 1932   5.775   0.910   0.899
  564WAT      O 1933   8.878   6.651   7.468
  564WAT     H1 1934   8.872   6.632   7.566
  564WAT     H2 1935   8.885   6.750   7.454
  565WAT      O 1936   2.341   0.382   0.674
  565WAT     H1 1937   2.289   0.466   0.687
  565WAT     H2 1938   2.297   0.326   0.604
  566WAT      O 1939   8.916   1.928   4.676
  566WAT     H1 1940   8.987   1.898   4.740
  566WAT     H2 1941   8.885   2.020   4.700
  567WAT      O 1942   7.896   0.402   8.031
  567WAT     H1 1943   7.936   0.425   8.120
  567WAT     H2 1944   7.804   0.440   8.026
  568WAT      O 1945   4.875   9.007   0.304
  568WAT     H1 1946   4.967   8.971   0.313
  568WAT     H2 1947   4.877   9.091   0.250
  569WAT      O 1948   8.028   6.262   5.618
  569WAT     H1 1949   8.010   6.206   5.699
  569WAT     H2 1950   7.946   6.311   5.591
  570WAT      O 1951   5.749   2.643   8.824
  570WAT     H1 1952   5.681   2.666   8.755
  570WAT     H2 1953   5.794   2.557   8.799
  571WAT      O 1954   7.505   3.888   2.833
  571WAT     H1 1955   7.494   3.880   2.734
  571WAT     H2 1956   7.416   3.876   2.878
  572WAT      O 1957   5.548   0.721   4.350
  572WAT     H1 1958   5.614   0.778   4.399
  572WAT     H2 1959   5.482   0.684   4.415
  573WAT      O 1960   6.750   3.638   1.223
  573WAT     H1 1961   6.730   3.622   1.320
  573WAT     H2 1962   6.849   3.637   1.209
  574WAT      O 1963   2.930   2.665   1.557
  574WAT     H1 1964   2.871   2.692   1.481
  574WAT     H2 1965   2.923   2.733   1.630
  575WAT      O 1966   9.124   9.830   4.803
  575WAT     H1 1967   9.161   9.780   4.724
  575WAT     H2 1968   9.069   9.907   4.771
  576WAT      O 1969   8.513   5.140   4.313
  576WAT     H1 1970   8.497   5.181   4.223
  576WAT     H2 1971   8.606   5.104   4.318
  577WAT      O 1972   9.342   5.862   8.795
  577WAT     H1 1973   9.328   5.951   8.752
  577WAT     H2 1974   9.253   5.825   8.823
  578WAT      O 1975   0.484   4.945   7.509
  578WAT     H1 1976   0.493   4.861   7.562
  578WAT     H2 1977   0.503   5.024   7.567
  579WAT      O 1978   4.519   3.874   6.996
  579WAT     H1 1979   4.548   3.829   7.080
  579WAT     H2 1980   4.462   3.953   7.019
  580WAT      O 1981   2.466   0.282   0.947
  580WAT     H1 1982   2.473   0.182   0.950
  580WAT     H2 1983   2.381   0.309   0.902
  581WAT      O 1984   6.908   7.363   3.606
  581WAT     H1 1985   6.910   7.271   3.567
  581WAT     H2 1986   6.916   7.431   3.532
  582WAT      O 1987   4.193   6.422   0.577
  582WAT     H1 1988   4.159   6.487   0.508
  582WAT     H2 1989   4.134   6.342   0.580
  583WAT      O 1990   4.031   1.432   0.485
  583WAT     H1 1991   3.937   1.446   0.453
  583WAT     H2 1992   4.078   1.369   0.422
  584WAT      O 1993   4.246   1.041   4.047
  584WAT     H1 1994   4.284   0.966   3.993
  584WAT     H2 1995   4.281   1.128   4.013
  585WAT      O 1996   6.527   3.983   6.256
  585WAT     H1 1997   6.555   3.897   6.213
  585WAT     H2 1998   6.450   3.967   6.317
  586WAT      O 1999   6.847   0.458   1.749
  586WAT     H1 2000   6.824   0.361   1.743
  586WAT     H2 2001   6.864   0.482   1.845
  587WAT      O 2002   1.893   0.071   9.423
  587WAT     H1 2003   1.811   0.019   9.450
  587WAT     H2 2004   1.938   0.025   9.347
  588WAT      O 2005   9.186   2.134   0.996
  588WAT     H1 2006   9.098   2.180   0.983
  588WAT     H2 2007   9.173   2.035   0.989
  589WAT      O 2008   5.927   4.276   1.570
  589WAT     H1 2009   5.918   4.180   1.599
  589WAT     H2 2010   5.973   4.328   1.642
  590WAT      O 2011   8.490   5.159   7.172
  590WAT     H1 2012   8.581   5.120   7.157
  590WAT     H2 2013   8.421   5.097   7.136
  591WAT      O 2014   7.905   4.968   7.811
  591WAT     H1 2015   7.827   4.947   7.752
  591WAT     H2 2016   7.929   5.064   7.802
  592WAT      O 2017   5.746   0.697   8.692
  592WAT     H1 2018   5.687   0.695   8.773
  592WAT     H2 2019   5.752   0.791   8.658
  593WAT      O 2020   5.465   1.467   4.307
  593WAT     H1 2021   5.458   1.566   4.319
  593WAT     H2 2022   5.540   1.432   4.363
  594WAT      O 2023   8.055   0.029   6.631
  594WAT     H1 2024   8.072   0.095   6.703
  594WAT     H2 2025   7.986   0.064   6.568
  595WAT      O 2026   2.508   2.908   0.947
  595WAT     H1 2027   2.471   2.842   1.011
  595WAT     H2 2028   2.476   3.000   0.971
  596WAT      O 2029   2.297   5.185   8.281
  596WAT     H1 2030   2.318   5.102   8.230
  596WAT     H2 2031   2.198   5.200   8.281
  597WAT      O 2032   0.103   8.664   2.608
  597WAT     H1 2033   0.057   8.727   2.545
  597WAT     H2 2034   0.106   8.572   2.569
  598WAT      O 2035   8.153   9.598   8.027
  598WAT     H1 2036   8.183   9.682   8.072
  598WAT     H2 2037   8.233   9.545   8.000
  599WAT      O 2038   3.546   4.008   4.230
  599WAT     H1 2039   3.481   3.937   4.257
  599WAT     H2 2040   3.636   3.988   4.270
  600WAT      O 2041   8.864   6.029   6.912
  600WAT     H1 2042   8.896   6.104   6.969
  600WAT     H2 2043   8.806   5.968   6.965
  601WAT      O 2044   6.392   0.077   0.779
  601WAT     H1 2045   6.442   0.021   0.713
  601WAT     H2 2046   6.296   0.049   0.781
  602WAT      O 2047   9.412   4.946   4.189
  602WAT     H1 2048   9.348   4.900   4.250
  602WAT     H2 2049   9.499   4.959   4.237
  603WAT      O 2050   3.294   5.374   2.097
  603WAT     H1 2051   3.310   5.344   2.191
  603WAT     H2 2052   3.196   5.393   2.085
  604WAT      O 2053   3.328   6.418   0.680
  604WAT     H1 2054   3.424   6.418   0.655
  604WAT     H2 2055   3.316   6.368   0.766
  605WAT      O 2056   0.302   0.899   2.223
  605WAT     H1 2057   0.248   0.925   2.143
  605WAT     H2 2058   0.384   0.850   2.193
  606WAT      O 2059   7.738   1.352   2.402
  606WAT     H1 2060   7.714   1.255   2.399
  606WAT     H2 2061   7.833   1.362   2.429
  607WAT      O 2062   3.573   3.018   5.353
  607WAT     H1 2063   3.530   2.951   5.293
  607WAT     H2 2064   3.621   2.971   5.427
  608WAT      O 2065   4.095   1.882   6.171
  608WAT     H1 2066   4.138   1.967   6.199
  608WAT     H2 2067   4.084   1.881   6.072
  609WAT      O 2068   9.754   4.101   4.158
  609WAT     H1 2069   9.775   4.074   4.065
  609WAT     H2 2070   9.715   4.194   4.158
  610WAT      O 2071   7.758   9.441   4.328
  610WAT     H1 2072   7.815   9.501   4.385
  610WAT     H2 2073   7.732   9.360   4.381
  611WAT      O 2074   2.346   6.860   6.138
  611WAT     H1 2075   2.313   6.768   6.122
  611WAT     H2 2076   2.416   6.883   6.069
  612WAT      O 2077   6.039   0.409   2.717
  612WAT     H1 2078   6.075   0.370   2.801
  612WAT     H2 2079   5.939   0.396   2.714
  613WAT      O 2080   4.698   1.863   7.647
  613WAT     H1 2081   4.782   1.810   7.649
  613WAT     H2 2082   4.680   1.895   7.554
  614WAT      O 2083   0.054   5.232   7.675
  614WAT     H1 2084   0.069   5.285   7.592
  614WAT     H2 2085   0.093   5.281   7.753
  615WAT      O 2086   6.458   5.013   7.396
  615WAT     H1 2087   6.416   4.946   7.334
  615WAT     H2 2088   6.416   5.103   7.382
  616WAT      O 2089   4.399   0.475   5.367
  616WAT     H1 2090   4.465   0.403   5.343
  616WAT     H2 2091   4.409   0.498   5.464
  617WAT      O 2092   0.633   2.192   2.955
  617WAT     H1 2093   0.593   2.261   2.895
  617WAT     H2 2094   0.704   2.233   3.011
  618WAT      O 2095   3.383   7.714   6.682
  618WAT     H1 2096   3.313   7.778   6.650
  618WAT     H2 2097   3.362   7.685   6.775
  619WAT      O 2098   1.962   3.036   3.202
  619WAT     H1 2099   1.972   3.017   3.105
  619WAT     H2 2100   1.884   3.097   3.216
  620WAT      O 2101   9.586   1.276   1.369
  620WAT     H1 2102   9.607   1.339   1.295
  620WAT     H2 2103   9.487   1.261   1.373
  621WAT      O 2104   8.840   7.999   3.597
  621WAT     H1 2105   8.778   7.966   3.526
  621WAT     H2 2106   8.934   7.999   3.561
  622WAT      O 2107   9.653   3.442   9.526
  622WAT     H1 2108   9.719   3.516   9.537
  622WAT     H2 2109   9.687   3.359   9.569
  623WAT      O 2110   1.895   4.427   5.163
  623WAT     H1 2111   1.805   4.406   5.201
  623WAT     H2 2112   1.925   4.517   5.194
  624WAT      O 2113   0.430   8.035   0.094
  624WAT     H1 2114   0.466   8.127   0.076
  624WAT     H2 2115   0.498   7.967   0.066
  625WAT      O 2116   7.691   0.067   0.418
  625WAT     H1 2117   7.734   0.127   0.351
  625WAT     H2 2118   7.762   0.025   0.476
  626WAT      O 2119   5.858   9.638   1.697
  626WAT     H1 2120   5.944   9.682   1.724
  626WAT     H2 2121   5.782   9.702   1.711
  627WAT      O 2122   1.977   2.027   7.688
  627WAT     H1 2123   1.911   2.088   7.645
  627WAT     H2 2124   1.994   2.057   7.782
  628WAT      O 2125   5.457   3.605   5.486
  628WAT     H1 2126   5.486   3.670   5.556
  628WAT     H2 2127   5.407   3.530   5.530
  629WAT      O 2128   9.313   7.707   1.085
  629WAT     H1 2129   9.290   7.718   0.988
  629WAT     H2 2130   9.256   7.769   1.139
  630WAT      O 2131   2.424   3.036   1.481
  630WAT     H1 2132   2.390   2.951   1.522
  630WAT     H2 2133   2.466   3.093   1.552
  631WAT      O 2134   1.665   9.059   5.880
  631WAT     H1 2135   1.573   9.055   5.918
  631WAT     H2 2136   1.723   8.990   5.925
  632WAT      O 2137   3.389   2.727   1.876
  632WAT     H1 2138   3.432   2.713   1.965
  632WAT     H2 2139   3.302   2.678   1.873
  633WAT      O 2140   7.472   1.831   7.499
  633WAT     H1 2141   7.458   1.877   7.587
  633WAT     H2 2142   7.521   1.745   7.515
  634WAT      O 2143   7.499   9.240   6.108
  634WAT     H1 2144   7.524   9.175   6.180
  634WAT     H2 2145   7.400   9.245   6.100
  635WAT      O 2146   5.334   6.541   8.514
  635WAT     H1 2147   5.369   6.631   8.542
  635WAT     H2 2148   5.363   6.473   8.580
  636WAT      O 2149   4.774   9.594   0.927
  636WAT     H1 2150   4.803   9.645   1.008
  636WAT     H2 2151   4.775   9.496   0.948
  637WAT      O 2152   1.729   3.001   7.775
  637WAT     H1 2153   1.636   3.035   7.787
  637WAT     H2 2154   1.752   2.941   7.852
  638WAT      O 2155   3.939   4.497   6.936
  638WAT     H1 2156   3.960   4.437   7.013
  638WAT     H2 2157   3.918   4.589   6.970
  639WAT      O 2158   6.528   7.625   4.052
  639WAT     H1 2159   6.558   7.531   4.033
  639WAT     H2 2160   6.445   7.644   4.001
  640WAT      O 2161   1.141   4.241   5.266
  640WAT     H1 2162   1.135   4.194   5.177
  640WAT     H2 2163   1.073   4.314   5.270
  641WAT      O 2164   1.847   5.270   8.809
  641WAT     H1 2165   1.931   5.278   8.756
  641WAT     H2 2166   1.827   5.358   8.854
  642WAT      O 2167   3.156   8.488   4.347
  642WAT     H1 2168   3.233   8.486   4.411
  642WAT     H2 2169   3.104   8.403   4.355
  643WAT      O 2170   9.165   2.277   6.976
  643WAT     H1 2171   9.232   2.311   6.910
  643WAT     H2 2172   9.213   2.233   7.052
  644WAT      O 2173   5.586   8.443   3.018
  644WAT     H1 2174   5.589   8.350   3.053
  644WAT     H2 2175   5.649   8.452   2.941
  645WAT      O 2176   2.755   3.005   1.587
  645WAT     H1 2177   2.752   3.084   1.526
  645WAT     H2 2178   2.672   3.004   1.644
  646WAT      O 2179   2.145   9.186   4.491
  646WAT     H1 2180   2.207   9.152   4.562
  646WAT     H2 2181   2.196   9.245   4.428
  647WAT      O 2182   6.509   1.223   1.120
  647WAT     H1 2183   6.550   1.212   1.211
  647WAT     H2 2184   6.433   1.158   1.111
  648WAT      O 2185   0.985   5.860   6.813
  648WAT     H1 2186   1.057   5.912   6.860
  648WAT     H2 2187   1.012   5.764   6.809
  649WAT      O 2188   0.942   4.265   4.055
  649WAT     H1 2189   1.024   4.285   4.109
  649WAT     H2 2190   0.861   4.277   4.112
  650WAT      O 2191   8.164   4.368   4.944
  650WAT     H1 2192   8.204   4.456   4.971
  650WAT     H2 2193   8.098   4.383   4.870
  651WAT      O 2194   6.944   8.577   3.028
  651WAT     H1 2195   6.860   8.630   3.039
  651WAT     H2 2196   6.996   8.577   3.113
  652WAT      O 2197   9.279   8.897   9.664
  652WAT     H1 2198   9.182   8.897   9.639
  652WAT     H2 2199   9.335   8.916   9.584
  653WAT      O 2200   7.347   8.234   9.476
  653WAT     H1 2201   7.387   8.200   9.561
  653WAT     H2 2202   7.418   8.278   9.420
  654WAT      O 2203   2.047   5.209   0.793
  654WAT     H1 2204   2.144   5.215   0.770
  654WAT     H2 2205   1.993   5.243   0.715
  655WAT      O 2206   0.353   2.657   8.689
  655WAT     H1 2207   0.411   2.649   8.608
  655WAT     H2 2208   0.379   2.587   8.756
  656WAT      O 2209   9.263   4.662   9.026
  656WAT     H1 2210   9.295   4.755   9.005
  656WAT     H2 2211   9.337   4.610   9.067
  657WAT      O 2212   3.959   3.041   4.559
  657WAT     H1 2213   3.890   3.026   4.489
  657WAT     H2 2214   3.917   3.030   4.649
  658WAT      O 2215   5.744   4.652   9.044
  658WAT     H1 2216   5.760   4.555   9.028
  658WAT     H2 2217   5.781   4.705   8.967
  659WAT      O 2218   5.692   4.730   0.361
  659WAT     H1 2219   5.670   4.677   0.279
  659WAT     H2 2220   5.681   4.828   0.342
  660WAT      O 2221   2.124   6.821   7.458
  660WAT     H1 2222   2.133   6.807   7.557
  660WAT     H2 2223   2.151   6.914   7.435
  661WAT      O 2224   4.961   1.280   5.346
  661WAT     H1 2225   4.895   1.303   5.275
  661WAT     H2 2226   4.921   1.296   5.436
  662WAT      O 2227   6.167   7.164   6.263
  662WAT     H1 2228   6.070   7.178   6.284
  662WAT     H2 2229   6.220   7.241   6.301
  663WAT      O 2230   9.501   4.076   2.049
  663WAT     H1 2231   9.490   4.150   1.983
  663WAT     H2 2232   9.447   4.097   2.131
  664WAT      O 2233   1.144   2.413   8.408
  664WAT     H1 2234   1.186   2.326   8.385
  664WAT     H2 2235   1.048   2.413   8.379
  665WAT      O 2236   7.829   6.206   4.856
  665WAT     H1 2237   7.832   6.181   4.760
  665WAT     H2 2238   7.861   6.129   4.912
  666WAT      O 2239   9.492   0.743   7.783
  666WAT     H1 2240   9.485   0.810   7.710
  666WAT     H2 2241   9.405   0.694   7.792
  667WAT      O 2242   4.100   9.687   4.976
  667WAT     H1 2243   4.178   9.643   4.932
  667WAT     H2 2244   4.030   9.618   4.996
  668WAT      O 2245   1.141   0.836   3.741
  668WAT     H1 2246   1.201   0.762   3.709
  668WAT     H2 2247   1.131   0.905   3.669
  669WAT      O 2248   5.312   6.749   1.802
  669WAT     H1 2249   5.213   6.740   1.804
  669WAT     H2 2250   5.341   6.780   1.712
  670WAT      O 2251   7.977   6.695   6.529
  670WAT     H1 2252   7.907   6.635   6.567
  670WAT     H2 2253   8.023   6.744   6.604
  671WAT      O 2254   8.744   4.898   3.384
  671WAT     H1 2255   8.729   4.799   3.385
  671WAT     H2 2256   8.666   4.943   3.341
  672WAT      O 2257   2.780   2.910   7.942
  672WAT     H1 2258   2.794   2.814   7.919
  672WAT     H2 2259   2.776   2.920   8.042
  673WAT      O 2260   7.090   5.322   7.167
  673WAT     H1 2261   7.132   5.388   7.106
  673WAT     H2 2262   6.993   5.344   7.178
  674WAT      O 2263   2.571   4.235   3.315
  674WAT     H1 2264   2.603   4.318   3.361
  674WAT     H2 2265   2.474   4.246   3.292
  675WAT      O 2266   5.424   9.387   0.348
  675WAT     H1 2267   5.507   9.332   0.355
  675WAT     H2 2268   5.349   9.341   0.396
  676WAT      O 2269   9.825   6.826   5.951
  676WAT     H1 2270   9.902   6.763   5.963
  676WAT     H2 2271   9.763   6.819   6.029
  677WAT      O 2272   4.769   8.357   4.103
  677WAT     H1 2273   4.839   8.378   4.035
  677WAT     H2 2274   4.690   8.416   4.088
  678WAT      O 2275   1.829   5.327   7.727
  678WAT     H1 2276   1.759   5.350   7.794
  678WAT     H2 2277   1.906   5.390   7.734
  679WAT      O 2278   5.597   2.434   1.604
  679WAT     H1 2279   5.550   2.520   1.584
  679WAT     H2 2280   5.672   2.451   1.667
  680WAT      O 2281   2.840   9.609   4.575
  680WAT     H1 2282   2.844   9.515   4.540
  680WAT     H2 2283   2.768   9.659   4.528
  681WAT      O 2284   9.556   0.047   4.609
  681WAT     H1 2285   9.457   0.053   4.596
  681WAT     H2 2286   9.602   0.055   4.521
  682WAT      O 2287   3.981   5.435   3.026
  682WAT     H1 2288   3.954   5.431   2.930
  682WAT     H2 2289   3.928   5.368   3.078
  683WAT      O 2290   2.036   9.811   6.497
  683WAT     H1 2291   2.068   9.797   6.404
  683WAT     H2 2292   1.954   9.869   6.497
  684WAT      O 2293   7.481   0.465   7.998
  684WAT     H1 2294   7.438   0.489   7.910
  684WAT     H2 2295   7.412   0.430   8.060
  685WAT      O 2296   3.565   6.465   2.809
  685WAT     H1 2297   3.487   6.527   2.804
  685WAT     H2 2298   3.587   6.447   2.905
  686WAT      O 2299   1.065   5.655   7.249
  686WAT     H1 2300   1.113   5.617   7.329
  686WAT     H2 2301   0.984   5.705   7.280
  687WAT      O 2302   0.573   9.552   9.190
  687WAT     H1 2303   0.588   9.495   9.271
  687WAT     H2 2304   0.475   9.562   9.174
  688WAT      O 2305   9.173   7.905   8.474
  688WAT     H1 2306   9.148   7.972   8.405
  688WAT     H2 2307   9.196   7.952   8.560
  689WAT      O 2308   6.260   1.543   4.151
  689WAT     H1 2309   6.168   1.508   4.128
  689WAT     H2 2310   6.328   1.475   4.124
  690WAT      O 2311   4.760   2.179   0.439
  690WAT     H1 2312   4.851   2.140   0.455
  690WAT     H2 2313   4.736   2.166   0.343
  691WAT      O 2314   6.317   2.286   9.461
  691WAT     H1 2315   6.263   2.370   9.467
  691WAT     H2 2316   6.315   2.253   9.366
  692WAT      O 2317   3.069   7.609   1.593
  692WAT     H1 2318   3.102   7.671   1.521
  692WAT     H2 2319   3.146   7.559   1.631
  693WAT      O 2320   9.021   9.805   5.284
  693WAT     H1 2321   9.000   9.783   5.379
  693WAT     H2 2322   8.942   9.847   5.240
  694WAT      O 2323   0.533   7.954   8.513
  694WAT     H1 2324   0.447   7.905   8.499
  694WAT     H2 2325   0.606   7.905   8.465
  695WAT      O 2326   4.718   3.989   9.388
  695WAT     H1 2327   4.797   4.042   9.358
  695WAT     H2 2328   4.698   3.918   9.320
  696WAT      O 2329   8.902   2.609   7.951
  696WAT     H1 2330   8.990   2.629   7.908
  696WAT     H2 2331   8.866   2.692   7.993
  697WAT      O 2332   7.952   8.709   4.957
  697WAT     H1 2333   7.879   8.681   4.894
  697WAT     H2 2334   7.911   8.754   5.036
  698WAT      O 2335   0.301   4.860   0.563
  698WAT     H1 2336   0.300   4.895   0.657
  698WAT     H2 2337   0.244   4.919   0.505
  699WAT      O 2338   9.550   8.260   3.206
  699WAT     H1 2339   9.562   8.335   3.141
  699WAT     H2 2340   9.627   8.197   3.199
  700WAT      O 2341   3.927   0.155   8.083
  700WAT     H1 2342   3.974   0.142   8.171
  700WAT     H2 2343   3.985   0.120   8.009
  701WAT      O 2344   3.454   8.155   7.870
  701WAT     H1 2345   3.436   8.217   7.793
  701WAT     H2 2346   3.462   8.208   7.954
  702WAT      O 2347   8.943   2.873   5.188
  702WAT     H1 2348   9.012   2.872   5.259
  702WAT     H2 2349   8.936   2.782   5.147
  703WAT      O 2350   4.364   9.451   8.700
  703WAT     H1 2351   4.320   9.446   8.611
  703WAT     H2 2352   4.303   9.495   8.766
  704WAT      O 2353   5.834   6.353   8.011
  704WAT     H1 2354   5.858   6.270   8.061
  704WAT     H2 2355   5.871   6.433   8.060
  705WAT      O 2356   6.112   1.397   3.521
  705WAT     H1 2357   6.137   1.302   3.501
  705WAT     H2 2358   6.162   1.428   3.601
  706WAT      O 2359   5.919   2.353   2.056
  706WAT     H1 2360   5.913   2.274   2.117
  706WAT     H2 2361   6.013   2.387   2.055
  707WAT      O 2362   9.344   4.300   9.103
  707WAT     H1 2363   9.318   4.217   9.052
  707WAT     H2 2364   9.261   4.350   9.128
  708WAT      O 2365   8.328   3.353   6.877
  708WAT     H1 2366   8.245   3.341   6.823
  708WAT     H2 2367   8.383   3.270   6.872
  709WAT      O 2368   7.350   6.281   4.271
  709WAT     H1 2369   7.437   6.273   4.224
  709WAT     H2 2370   7.337   6.376   4.300
  710WAT      O 2371   6.628   3.690   2.298
  710WAT     H1 2372   6.704   3.660   2.356
  710WAT     H2 2373   6.660   3.704   2.204
  711WAT      O 2374   8.107   8.836   8.376
  711WAT     H1 2375   8.182   8.783   8.415
  711WAT     H2 2376   8.143   8.905   8.314
  712WAT      O 2377   5.578   4.382   7.727
  712WAT     H1 2378   5.514   4.361   7.653
  712WAT     H2 2379   5.640   4.455   7.697
  713WAT      O 2380   2.768   4.432   3.566
  713WAT     H1 2381   2.737   4.453   3.659
  713WAT     H2 2382   2.865   4.453   3.558
  714WAT      O 2383   8.519   3.482   0.662
  714WAT     H1 2384   8.455   3.469   0.586
  714WAT     H2 2385   8.505   3.572   0.702
  715WAT      O 2386   9.686   9.806   7.054
  715WAT     H1 2387   9.642   9.896   7.056
  715WAT     H2 2388   9.745   9.796   7.134
  716WAT      O 2389   5.269   4.821   1.670
  716WAT     H1 2390   5.319   4.815   1.757
  716WAT     H2 2391   5.292   4.907   1.624
  717WAT      O 2392   3.558   3.336   2.392
  717WAT     H1 2393   3.555   3.421   2.339
  717WAT     H2 2394   3.483   3.336   2.458
  718WAT      O 2395   5.754   4.935   1.475
  718WAT     H1 2396   5.820   4.860   1.476
  718WAT     H2 2397   5.748   4.973   1.382
  719WAT      O 2398   8.097   1.643   7.423
  719WAT     H1 2399   8.154   1.649   7.505
  719WAT     H2 2400   8.152   1.661   7.342
  720WAT      O 2401   9.258   1.576   2.682
  720WAT     H1 2402   9.240   1.675   2.688
  720WAT     H2 2403   9.250   1.536   2.773
  721WAT      O 2404   3.307   8.504   0.438
  721WAT     H1 2405   3.286   8.408   0.459
  721WAT     H2 2406   3.336   8.550   0.522
  722WAT      O 2407   3.814   8.001   5.274
  722WAT     H1 2408   3.899   7.950   5.279
  722WAT     H2 2409   3.779   8.017   5.367
  723WAT      O 2410   8.100   0.047   2.113
  723WAT     H1 2411   8.137  -0.032   2.064
  723WAT     H2 2412   8.074   0.018   2.206
  724WAT      O 2413   2.093   3.874   2.675
  724WAT     H1 2414   2.162   3.881   2.603
  724WAT     H2 2415   2.138   3.879   2.765
  725WAT      O 2416   3.749   4.879   7.774
  725WAT     H1 2417   3.659   4.847   7.806
  725WAT     H2 2418   3.755   4.866   7.675
  726WAT      O 2419   0.491   9.033   1.706
  726WAT     H1 2420   0.557   9.098   1.668
  726WAT     H2 2421   0.399   9.070   1.698
  727WAT      O 2422   6.492   0.622   0.360
  727WAT     H1 2423   6.509   0.638   0.458
  727WAT     H2 2424   6.412   0.675   0.332
  728WAT      O 2425   3.813   9.088   4.224
  728WAT     H1 2426   3.716   9.101   4.205
  728WAT     H2 2427   3.841   8.997   4.194
  729WAT      O 2428   3.738   2.217   1.704
  729WAT     H1 2429   3.654   2.270   1.688
  729WAT     H2 2430   3.722   2.122   1.679
  730WAT      O 2431   0.078   0.660   3.882
  730WAT     H1 2432   0.002   0.644   3.945
  730WAT     H2 2433   0.164   0.636   3.927
  731WAT      O 2434   6.301   5.475   0.708
  731WAT     H1 2435   6.314   5.511   0.800
  731WAT     H2 2436   6.203   5.466   0.690
  732WAT      O 2437   0.149   6.526   7.310
  732WAT     H1 2438   0.241   6.532   7.348
  732WAT     H2 2439   0.153   6.515   7.211
  733WAT      O 2440   8.861   2.544   2.351
  733WAT     H1 2441   8.824   2.480   2.283
  733WAT     H2 2442   8.900   2.493   2.427
  734WAT      O 2443   1.639   8.936   1.804
  734WAT     H1 2444   1.651   8.962   1.900
  734WAT     H2 2445   1.694   8.855   1.784
  735WAT      O 2446   1.320   9.622   2.218
  735WAT     H1 2447   1.375   9.629   2.134
  735WAT     H2 2448   1.280   9.712   2.238
  736WAT      O 2449   6.103   6.353   5.686
  736WAT     H1 2450   6.062   6.348   5.595
  736WAT     H2 2451   6.200   6.329   5.680
  737WAT      O 2452   3.129   7.483   0.272
  737WAT     H1 2453   3.051   7.516   0.325
  737WAT     H2 2454   3.111   7.496   0.174
  738WAT      O 2455   1.829   4.629   7.900
  738WAT     H1 2456   1.913   4.596   7.857
  738WAT     H2 2457   1.823   4.593   7.993
  739WAT      O 2458   2.406   9.648   6.455
  739WAT     H1 2459   2.427   9.560   6.413
  739WAT     H2 2460   2.335   9.695   6.402
  740WAT      O 2461   5.962   5.031   2.981
  740WAT     H1 2462   5.978   4.942   3.023
  740WAT     H2 2463   6.028   5.097   3.016
  741WAT      O 2464   0.287   5.146   3.478
  741WAT     H1 2465   0.256   5.214   3.412
  741WAT     H2 2466   0.225   5.067   3.477
  742WAT      O 2467   3.792   2.649   1.872
  742WAT     H1 2468   3.847   2.568   1.850
  742WAT     H2 2469   3.695   2.627   1.860
  743WAT      O 2470   1.844   1.985   4.362
  743WAT     H1 2471   1.752   1.976   4.324
  743WAT     H2 2472   1.879   1.895   4.386
  744WAT      O 2473   7.740   5.628   9.595
  744WAT     H1 2474   7.706   5.687   9.668
  744WAT     H2 2475   7.739   5.678   9.509
  745WAT      O 2476   3.945   1.536   1.568
  745WAT     H1 2477   3.908   1.615   1.520
  745WAT     H2 2478   3.950   1.458   1.505
  746WAT      O 2479   0.313   0.501   4.696
  746WAT     H1 2480   0.377   0.485   4.770
  746WAT     H2 2481   0.362   0.535   4.616
  747WAT      O 2482   7.267   0.135   5.107
  747WAT     H1 2483   7.339   0.069   5.130
  747WAT     H2 2484   7.253   0.197   5.184
  748WAT      O 2485   1.783   2.659   3.689
  748WAT     H1 2486   1.859   2.669   3.754
  748WAT     H2 2487   1.697   2.659   3.740
  749WAT      O 2488   5.776   5.131   8.596
  749WAT     H1 2489   5.745   5.108   8.504
  749WAT     H2 2490   5.699   5.127   8.659
  750WAT      O 2491   0.424   3.544   4.528
  750WAT     H1 2492   0.378   3.630   4.548
  750WAT     H2 2493   0.399   3.514   4.436
  751WAT      O 2494   1.531   5.066   0.767
  751WAT     H1 2495   1.437   5.097   0.771
  751WAT     H2 2496   1.590   5.141   0.736
  752WAT      O 2497   8.516   0.890   5.794
  752WAT     H1 2498   8.436   0.871   5.737
  752WAT     H2 2499   8.554   0.979   5.771
  753WAT      O 2500   5.296   1.916   4.297
  753WAT     H1 2501   5.211   1.888   4.341
  753WAT     H2 2502   5.276   1.981   4.223
  754WAT      O 2503   1.123   1.932   3.481
  754WAT     H1 2504   1.120   1.842   3.436
  754WAT     H2 2505   1.103   2.003   3.413
  755WAT      O 2506   4.107   4.947   7.528
  755WAT     H1 2507   4.125   5.013   7.455
  755WAT     H2 2508   4.039   4.881   7.497
  756WAT      O 2509   6.605   6.750   2.848
  756WAT     H1 2510   6.543   6.672   2.853
  756WAT     H2 2511   6.606   6.784   2.754
  757WAT      O 2512   4.610   0.517   7.540
  757WAT     H1 2513   4.669   0.458   7.487
  757WAT     H2 2514   4.650   0.609   7.545
  758WAT      O 2515   4.818   5.874   8.371
  758WAT     H1 2516   4.822   5.799   8.306
  758WAT     H2 2517   4.759   5.849   8.448
  759WAT      O 2518   6.117   7.839   0.724
  759WAT     H1 2519   6.203   7.797   0.695
  759WAT     H2 2520   6.107   7.831   0.823
  760WAT      O 2521   6.595   5.813   0.488
  760WAT     H1 2522   6.647   5.779   0.409
  760WAT     H2 2523   6.651   5.803   0.571
  761WAT      O 2524   8.513   6.846   4.627
  761WAT     H1 2525   8.522   6.783   4.551
  761WAT     H2 2526   8.571   6.816   4.703
  762WAT      O 2527   7.497   4.700   4.141
  762WAT     H1 2528   7.528   4.792   4.164
  762WAT     H2 2529   7.551   4.664   4.065
  763WAT      O 2530   2.309   2.443   9.832
  763WAT     H1 2531   2.348   2.516   9.777
  763WAT     H2 2532   2.368   2.362   9.827
  764WAT      O 2533   2.656   8.139   5.728
  764WAT     H1 2534   2.596   8.109   5.654
  764WAT     H2 2535   2.745   8.165   5.690
  765WAT      O 2536   2.862   5.260   3.129
  765WAT     H1 2537   2.829   5.350   3.159
  765WAT     H2 2538   2.808   5.229   3.051
  766WAT      O 2539   4.319   4.466   6.532
  766WAT     H1 2540   4.256   4.447   6.607
  766WAT     H2 2541   4.272   4.522   6.463
  767WAT      O 2542   2.952   5.547   4.732
  767WAT     H1 2543   2.968   5.645   4.745
  767WAT     H2 2544   3.040   5.499   4.736
  768WAT      O 2545   9.147   0.717   9.884
  768WAT     H1 2546   9.147   0.681   9.791
  768WAT     H2 2547   9.164   0.816   9.882
  769WAT      O 2548   7.962   6.448   9.134
  769WAT     H1 2549   7.960   6.511   9.056
  769WAT     H2 2550   8.053   6.410   9.144
  770WAT      O 2551   0.295   3.169   2.442
  770WAT     H1 2552   0.392   3.149   2.433
  770WAT     H2 2553   0.252   3.170   2.352
  771WAT      O 2554   0.203   1.443   0.295
  771WAT     H1 2555   0.132   1.431   0.225
  771WAT     H2 2556   0.237   1.353   0.324
  772WAT      O 2557   2.223   3.804   1.032
  772WAT     H1 2558   2.289   3.872   1.064
  772WAT     H2 2559   2.130   3.839   1.045
  773WAT      O 2560   8.561   2.533   9.852
  773WAT     H1 2561   8.620   2.614   9.853
  773WAT     H2 2562   8.617   2.452   9.870
  774WAT      O 2563   3.956   4.050   2.151
  774WAT     H1 2564   3.934   4.116   2.078
  774WAT     H2 2565   4.051   4.019   2.140
  775WAT      O 2566   2.584   3.881   8.208
  775WAT     H1 2567   2.620   3.789   8.192
  775WAT     H2 2568   2.656   3.948   8.194
  776WAT      O 2569   7.193   3.114   6.963
  776WAT     H1 2570   7.196   3.014   6.957
  776WAT     H2 2571   7.099   3.145   6.947
  777WAT      O 2572   1.872   9.029   1.072
  777WAT     H1 2573   1.876   9.097   0.999
  777WAT     H2 2574   1.888   8.938   1.033
  778WAT      O 2575   2.427   2.784   9.296
  778WAT     H1 2576   2.346   2.841   9.284
  778WAT     H2 2577   2.505   2.841   9.321
  779WAT      O 2578   1.721   6.562   5.215
  779WAT     H1 2579   1.752   6.639   5.158
  779WAT     H2 2580   1.648   6.594   5.276
  780WAT      O 2581   6.304   0.108   1.238
  780WAT     H1 2582   6.292   0.055   1.322
  780WAT     H2 2583   6.227   0.170   1.227
  781WAT      O 2584   5.136   3.822   7.953
  781WAT     H1 2585   5.086   3.908   7.943
  781WAT     H2 2586   5.087   3.762   8.016
  782WAT      O 2587   7.610   9.261   2.658
  782WAT     H1 2588   7.690   9.320   2.662
  782WAT     H2 2589   7.638   9.168   2.634
  783WAT      O 2590   3.454   2.946   5.733
  783WAT     H1 2591   3.399   2.922   5.653
  783WAT     H2 2592   3.433   3.039   5.762
  784WAT      O 2593   3.730   1.400   7.379
  784WAT     H1 2594   3.730   1.339   7.458
  784WAT     H2 2595   3.716   1.494   7.409
  785WAT      O 2596   8.214   8.551   6.964
  785WAT     H1 2597   8.219   8.547   6.865
  785WAT     H2 2598   8.266   8.475   7.003
  786WAT      O 2599   4.319   8.018   6.288
  786WAT     H1 2600   4.411   7.999   6.255
  786WAT     H2 2601   4.324   8.088   6.360
  787WAT      O 2602   7.938   8.112   3.054
  787WAT     H1 2603   7.986   8.098   3.141
  787WAT     H2 2604   7.849   8.065   3.058
  788WAT      O 2605   2.803   5.649   3.918
  788WAT     H1 2606   2.736   5.719   3.892
  788WAT     H2 2607   2.892   5.693   3.933
  789WAT      O 2608   8.779   5.168   3.321
  789WAT     H1 2609   8.769   5.074   3.354
  789WAT     H2 2610   8.875   5.195   3.323
  790WAT      O 2611   1.124   6.200   1.544
  790WAT     H1 2612   1.134   6.254   1.460
  790WAT     H2 2613   1.032   6.162   1.548
  791WAT      O 2614   3.497   8.435   9.264
  791WAT     H1 2615   3.426   8.447   9.333
  791WAT     H2 2616   3.459   8.455   9.174
  792WAT      O 2617   3.029   5.159   1.169
  792WAT     H1 2618   3.101   5.217   1.207
  792WAT     H2 2619   2.977   5.117   1.243
  793WAT      O 2620   6.197   1.581   8.365
  793WAT     H1 2621   6.176   1.589   8.267
  793WAT     H2 2622   6.161   1.661   8.413
  794WAT      O 2623   0.635   4.910   2.262
  794WAT     H1 2624   0.659   4.872   2.351
  794WAT     H2 2625   0.632   4.836   2.194
  795WAT      O 2626   3.197   5.575   1.671
  795WAT     H1 2627   3.269   5.510   1.648
  795WAT     H2 2628   3.192   5.645   1.600
  796WAT      O 2629   8.566   7.741   3.580
  796WAT     H1 2630   8.478   7.694   3.574
  796WAT     H2 2631   8.595   7.769   3.489
  797WAT      O 2632   2.368   0.705   6.492
  797WAT     H1 2633   2.351   0.682   6.397
  797WAT     H2 2634   2.330   0.635   6.551
  798WAT      O 2635   8.193   1.493   8.477
  798WAT     H1 2636   8.233   1.518   8.566
  798WAT     H2 2637   8.258   1.515   8.405
  799WAT      O 2638   9.788   8.247   6.937
  799WAT     H1 2639   9.840   8.327   6.968
  799WAT     H2 2640   9.847   8.189   6.882
  800WAT      O 2641   2.067   4.110   0.259
  800WAT     H1 2642   1.977   4.069   0.245
  800WAT     H2 2643   2.122   4.050   0.318
  801WAT      O 2644   5.816   1.689   9.481
  801WAT     H1 2645   5.852   1.746   9.554
  801WAT     H2 2646   5.734   1.732   9.442
  802WAT      O 2647   0.206   0.194   0.910
  802WAT     H1 2648   0.234   0.239   0.995
  802WAT     H2 2649   0.279   0.201   0.843
  803WAT      O 2650   2.044   5.663   0.300
  803WAT     H1 2651   2.042   5.675   0.201
  803WAT     H2 2652   2.018   5.569   0.323
  804WAT      O 2653   7.099   0.280   9.189
  804WAT     H1 2654   7.123   0.336   9.109
  804WAT     H2 2655   7.023   0.220   9.165
  805WAT      O 2656   1.666   6.173   2.434
  805WAT     H1 2657   1.650   6.271   2.446
  805WAT     H2 2658   1.585   6.122   2.465
  806WAT      O 2659   8.462   4.735   1.776
  806WAT     H1 2660   8.473   4.640   1.745
  806WAT     H2 2661   8.375   4.745   1.824
  807WAT      O 2662   5.859   6.216   5.301
  807WAT     H1 2663   5.843   6.117   5.311
  807WAT     H2 2664   5.791   6.254   5.238
  808WAT      O 2665   1.266   6.491   6.890
  808WAT     H1 2666   1.168   6.508   6.879
  808WAT     H2 2667   1.281   6.393   6.906
  809WAT      O 2668   2.263   9.485   3.713
  809WAT     H1 2669   2.333   9.555   3.731
  809WAT     H2 2670   2.307   9.398   3.694
  810WAT      O 2671   1.634   4.663   5.429
  810WAT     H1 2672   1.722   4.678   5.474
  810WAT     H2 2673   1.649   4.638   5.333
  811WAT      O 2674   1.274   0.952   6.676
  811WAT     H1 2675   1.347   0.911   6.730
  811WAT     H2 2676   1.195   0.891   6.674
  812WAT      O 2677   2.702   1.972   1.736
  812WAT     H1 2678   2.684   2.057   1.785
  812WAT     H2 2679   2.797   1.946   1.747
  813WAT      O 2680   1.825   8.968   8.072
  813WAT     H1 2681   1.815   9.064   8.097
  813WAT     H2 2682   1.814   8.957   7.974
  814WAT      O 2683   8.280   5.782   3.663
  814WAT     H1 2684   8.350   5.848   3.689
  814WAT     H2 2685   8.245   5.805   3.572
  815WAT      O 2686   8.294   9.446   7.130
  815WAT     H1 2687   8.254   9.457   7.039
  815WAT     H2 2688   8.306   9.348   7.149
  816WAT      O 2689   3.484   4.864   6.539
  816WAT     H1 2690   3.538   4.925   6.481
  816WAT     H2 2691   3.450   4.787   6.485
  817WAT      O 2692   5.022   6.278   7.004
  817WAT     H1 2693   5.044   6.185   6.977
  817WAT     H2 2694   5.086   6.308   7.075
  818WAT      O 2695   8.466   7.285   6.025
  818WAT     H1 2696   8.542   7.227   6.054
  818WAT     H2 2697   8.388   7.228   6.000
  819WAT      O 2698   5.384   5.780   3.988
  819WAT     H1 2699   5.344   5.845   4.054
  819WAT     H2 2700   5.338   5.692   3.997
  820WAT      O 2701   7.786   3.396   2.097
  820WAT     H1 2702   7.828   3.451   2.169
  820WAT     H2 2703   7.845   3.318   2.076
  821WAT      O 2704   9.390   6.835   1.701
  821WAT     H1 2705   9.332   6.754   1.702
  821WAT     H2 2706   9.336   6.915   1.727
  822WAT      O 2707   2.040   7.612   3.518
  822WAT     H1 2708   2.110   7.555   3.476
  822WAT     H2 2709   2.081   7.698   3.550
  823WAT      O 2710   6.883   3.746   4.999
  823WAT     H1 2711   6.931   3.696   4.926
  823WAT     H2 2712   6.787   3.757   4.973
  824WAT      O 2713   7.178   6.226   1.159
  824WAT     H1 2714   7.124   6.246   1.078
  824WAT     H2 2715   7.153   6.289   1.232
  825WAT      O 2716   7.451   1.124   2.806
  825WAT     H1 2717   7.533   1.110   2.750
  825WAT     H2 2718   7.479   1.149   2.899
  826WAT      O 2719   8.844   8.348   4.002
  826WAT     H1 2720   8.828   8.439   3.963
  826WAT     H2 2721   8.895   8.292   3.937
  827WAT      O 2722   1.659   1.902   0.580
  827WAT     H1 2723   1.703   1.983   0.619
  827WAT     H2 2724   1.723   1.855   0.519
  828WAT      O 2725   3.949   5.528   3.636
  828WAT     H1 2726   3.964   5.429   3.643
  828WAT     H2 2727   4.035   5.576   3.653
  829WAT      O 2728   5.452   5.078   9.488
  829WAT     H1 2729   5.487   5.032   9.570
  829WAT     H2 2730   5.374   5.027   9.453
  830WAT      O 2731   4.723   9.345   4.562
  830WAT     H1 2732   4.774   9.431   4.550
  830WAT     H2 2733   4.680   9.319   4.476
  831WAT      O 2734   3.617   5.157   0.312
  831WAT     H1 2735   3.605   5.229   0.244
  831WAT     H2 2736   3.650   5.073   0.268
  832WAT      O 2737   8.360   8.702   8.454
  832WAT     H1 2738   8.408   8.789   8.454
  832WAT     H2 2739   8.400   8.642   8.524
  833WAT      O 2740   7.827   3.975   9.565
  833WAT     H1 2741   7.811   4.069   9.593
  833WAT     H2 2742   7.774   3.955   9.482
  834WAT      O 2743   7.495   0.184   5.692
  834WAT     H1 2744   7.495   0.148   5.599
  834WAT     H2 2745   7.407   0.228   5.710
  835WAT      O 2746   0.115   9.295   4.777
  835WAT     H1 2747   0.183   9.307   4.705
  835WAT     H2 2748   0.139   9.350   4.856
  836WAT      O 2749   3.868   9.625   2.793
  836WAT     H1 2750   3.906   9.575   2.716
  836WAT     H2 2751   3.770   9.638   2.779
  837WAT      O 2752   9.812   2.942   4.908
  837WAT     H1 2753   9.867   3.024   4.921
  837WAT     H2 2754   9.848   2.868   4.965
  838WAT      O 2755   9.445   7.356   7.105
  838WAT     H1 2756   9.538   7.349   7.142
  838WAT     H2 2757   9.397   7.270   7.122
  839WAT      O 2758   2.347   1.302   1.611
  839WAT     H1 2759   2.397   1.388   1.617
  839WAT     H2 2760   2.343   1.259   1.702
  840WAT      O 2761   2.991   1.119   4.518
  840WAT     H1 2762   2.924   1.114   4.592
  840WAT     H2 2763   2.971   1.198   4.460
  841WAT      O 2764   5.635   1.398   0.183
  841WAT     H1 2765   5.668   1.420   0.091
  841WAT     H2 2766   5.644   1.300   0.199
  842WAT      O 2767   1.485   1.563   3.395
  842WAT     H1 2768   1.535   1.597   3.316
  842WAT     H2 2769   1.389   1.549   3.370
  843WAT      O 2770   9.678   7.455   3.113
  843WAT     H1 2771   9.745   7.499   3.053
  843WAT     H2 2772   9.717   7.445   3.205
  844WAT      O 2773   8.084   5.498   7.587
  844WAT     H1 2774   8.076   5.416   7.531
  844WAT     H2 2775   7.994   5.540   7.599
  845WAT      O 2776   1.905   1.356   1.071
  845WAT     H1 2777   1.918   1.267   1.116
  845WAT     H2 2778   1.991   1.406   1.073
  846WAT      O 2779   7.559   3.974   9.748
  846WAT     H1 2780   7.655   3.994   9.729
  846WAT     H2 2781   7.532   3.891   9.700
  847WAT      O 2782   2.994   8.558   9.015
  847WAT     H1 2783   2.897   8.532   9.014
  847WAT     H2 2784   3.014   8.608   9.099
  848WAT      O 2785   8.199   5.194   0.699
  848WAT     H1 2786   8.214   5.253   0.779
  848WAT     H2 2787   8.125   5.232   0.643
  849WAT      O 2788   6.835   0.386   4.196
  849WAT     H1 2789   6.779   0.468   4.185
  849WAT     H2 2790   6.864   0.378   4.291
  850WAT      O 2791   4.349   3.388   5.719
  850WAT     H1 2792   4.420   3.404   5.787
  850WAT     H2 2793   4.287   3.316   5.751
  851WAT      O 2794   9.879   6.874   7.105
  851WAT     H1 2795   9.922   6.835   7.186
  851WAT     H2 2796   9.786   6.903   7.128
  852WAT      O 2797   5.099   8.018   5.230
  852WAT     H1 2798   5.012   7.990   5.272
  852WAT     H2 2799   5.156   8.062   5.299
  853WAT      O 2800   1.436   1.493   2.564
  853WAT     H1 2801   1.437   1.536   2.474
  853WAT     H2 2802   1.495   1.543   2.626
  854WAT      O 2803   2.964   7.849   1.027
  854WAT     H1 2804   3.004   7.812   0.944
  854WAT     H2 2805   2.864   7.848   1.020
  855WAT      O 2806   9.137   0.943   0.192
  855WAT     H1 2807   9.055   0.963   0.138
  855WAT     H2 2808   9.136   0.846   0.218
  856WAT      O 2809   9.830   5.301   4.402
  856WAT     H1 2810   9.901   5.334   4.464
  856WAT     H2 2811   9.762   5.250   4.455
  857WAT      O 2812   0.393   6.437   5.967
  857WAT     H1 2813   0.324   6.367   5.985
  857WAT     H2 2814   0.419   6.434   5.871
  858WAT      O 2815   6.666   3.188   7.714
  858WAT     H1 2816   6.745   3.207   7.656
  858WAT     H2 2817   6.684   3.222   7.806
  859WAT      O 2818   2.930   7.360   4.900
  859WAT     H1 2819   3.011   7.332   4.951
  859WAT     H2 2820   2.901   7.285   4.840
  860WAT      O 2821   8.679   0.762   4.847
  860WAT     H1 2822   8.625   0.685   4.882
  860WAT     H2 2823   8.724   0.809   4.922
  861WAT      O 2824   5.158   1.953   9.271
  861WAT     H1 2825   5.161   1.853   9.265
  861WAT     H2 2826   5.063   1.982   9.284
  862WAT      O 2827   9.337   8.641   0.707
  862WAT     H1 2828   9.347   8.710   0.635
  862WAT     H2 2829   9.240   8.618   0.718
  863WAT      O 2830   6.474   4.369   9.806
  863WAT     H1 2831   6.415   4.402   9.731
  863WAT     H2 2832   6.469   4.433   9.882
  864WAT      O 2833   5.878   1.619   8.063
  864WAT     H1 2834   5.827   1.705   8.064
  864WAT     H2 2835   5.885   1.584   7.969
  865WAT      O 2836   7.328   6.185   9.392
  865WAT     H1 2837   7.288   6.108   9.344
  865WAT     H2 2838   7.362   6.252   9.326
  866WAT      O 2839   3.970   1.349   0.734
  866WAT     H1 2840   4.017   1.274   0.782
  866WAT     H2 2841   4.022   1.374   0.652
  867WAT      O 2842   2.340   3.840   0.766
  867WAT     H1 2843   2.435   3.808   0.774
  867WAT     H2 2844   2.290   3.818   0.849
  868WAT      O 2845   5.056   7.512   7.889
  868WAT     H1 2846   5.069   7.578   7.815
  868WAT     H2 2847   4.961   7.479   7.888
  869WAT      O 2848   4.193   6.954   5.736
  869WAT     H1 2849   4.140   6.981   5.816
  869WAT     H2 2850   4.260   6.885   5.762
  870WAT      O 2851   8.272   3.823   0.599
  870WAT     H1 2852   8.174   3.819   0.620
  870WAT     H2 2853   8.317   3.886   0.662
  871WAT      O 2854   9.166   9.688   0.598
  871WAT     H1 2855   9.116   9.774   0.591
  871WAT     H2 2856   9.209   9.681   0.688
  872WAT      O 2857   9.409   3.193   0.388
  872WAT     H1 2858   9.477   3.265   0.399
  872WAT     H2 2859   9.416   3.128   0.464
  873WAT      O 2860   6.126   0.857   7.589
  873WAT     H1 2861   6.210   0.908   7.571
  873WAT     H2 2862   6.070   0.909   7.653
  874WAT      O 2863   7.800   9.135   1.157
  874WAT     H1 2864   7.843   9.058   1.111
  874WAT     H2 2865   7.792   9.212   1.094
  875WAT      O 2866   8.759   0.261   9.804
  875WAT     H1 2867   8.756   0.230   9.709
  875WAT     H2 2868   8.843   0.228   9.847
  876WAT      O 2869   2.444   3.180   8.746
  876WAT     H1 2870   2.507   3.215   8.816
  876WAT     H2 2871   2.431   3.250   8.676
  877WAT      O 2872   1.716   1.492   4.926
  877WAT     H1 2873   1.797   1.449   4.887
  877WAT     H2 2874   1.716   1.590   4.906
  878WAT      O 2875   1.614   1.977   4.239
  878WAT     H1 2876   1.548   1.909   4.207
  878WAT     H2 2877   1.568   2.041   4.301
  879WAT      O 2878   4.532   1.658   1.218
  879WAT     H1 2879   4.571   1.749   1.199
  879WAT     H2 2880   4.458   1.667   1.284
  880WAT      O 2881   6.094   2.132   8.845
  880WAT     H1 2882   6.038   2.175   8.916
  880WAT     H2 2883   6.186   2.173   8.846
  881WAT      O 2884   9.835   8.550   4.816
  881WAT     H1 2885   9.851   8.604   4.899
  881WAT     H2 2886   9.854   8.454   4.835
  882WAT      O 2887   9.738   4.955   6.143
  882WAT     H1 2888   9.660   5.016   6.125
  882WAT     H2 2889   9.709   4.880   6.201
  883WAT      O 2890   0.219   2.477   0.115
  883WAT     H1 2891   0.216   2.570   0.078
  883WAT     H2 2892   0.184   2.412   0.046
  884WAT      O 2893   0.100   4.154   1.148
  884WAT     H1 2894   0.054   4.231   1.102
  884WAT     H2 2895   0.187   4.186   1.186
  885WAT      O 2896   1.975   2.988   2.937
  885WAT     H1 2897   1.913   3.052   2.892
  885WAT     H2 2898   1.935   2.897   2.936
  886WAT      O 2899   6.710   3.863   5.744
  886WAT     H1 2900   6.776   3.938   5.753
  886WAT     H2 2901   6.748   3.781   5.786
  887WAT      O 2902   9.027   9.011   0.556
  887WAT     H1 2903   9.080   8.982   0.476
  887WAT     H2 2904   9.080   8.994   0.639
  888WAT      O 2905   3.201   3.274   8.903
  888WAT     H1 2906   3.209   3.189   8.852
  888WAT     H2 2907   3.150   3.341   8.849
  889WAT      O 2908   6.010   5.547   8.540
  889WAT     H1 2909   5.941   5.613   8.512
  889WAT     H2 2910   6.086   5.596   8.584
  890WAT      O 2911   9.028   6.133   5.714
  890WAT     H1 2912   8.963   6.097   5.648
  890WAT     H2 2913   8.979   6.174   5.791
  891WAT      O 2914   8.644   4.225   1.413
  891WAT     H1 2915   8.661   4.307   1.467
  891WAT     H2 2916   8.728   4.196   1.367
  892WAT      O 2917   5.759   7.379   3.154
  892WAT     H1 2918   5.731   7.412   3.244
  892WAT     H2 2919   5.712   7.431   3.082
  893WAT      O 2920   0.688   1.680   4.935
  893WAT     H1 2921   0.762   1.615   4.953
  893WAT     H2 2922   0.727   1.769   4.913
  894WAT      O 2923   0.236   5.715   4.132
  894WAT     H1 2924   0.204   5.727   4.038
  894WAT     H2 2925   0.320   5.661   4.132
  895WAT      O 2926   1.078   5.565   1.906
  895WAT     H1 2927   1.007   5.552   1.837
  895WAT     H2 2928   1.042   5.621   1.981
  896WAT      O 2929   6.344   5.448   1.991
  896WAT     H1 2930   6.262   5.398   2.020
  896WAT     H2 2931   6.342   5.540   2.030
  897WAT      O 2932   2.626   4.889   1.867
  897WAT     H1 2933   2.556   4.907   1.797
  897WAT     H2 2934   2.581   4.858   1.951
  898WAT      O 2935   3.588   9.831   4.255
  898WAT     H1 2936   3.513   9.858   4.316
  898WAT     H2 2937   3.589   9.732   4.244
  899WAT      O 2938   7.886   6.127   8.306
  899WAT     H1 2939   7.795   6.119   8.348
  899WAT     H2 2940   7.956   6.119   8.377
  900WAT      O 2941   8.843   6.231   6.539
  900WAT     H1 2942   8.924   6.289   6.532
  900WAT     H2 2943   8.855   6.165   6.614
  901WAT      O 2944   7.596   8.628   4.390
  901WAT     H1 2945   7.607   8.663   4.297
  901WAT     H2 2946   7.613   8.530   4.391
  902WAT      O 2947   6.065   1.475   2.583
  902WAT     H1 2948   6.012   1.517   2.509
  902WAT     H2 2949   6.162   1.492   2.568
  903WAT      O 2950   1.421   3.931   0.778
  903WAT     H1 2951   1.388   4.008   0.832
  903WAT     H2 2952   1.472   3.868   0.837
  904WAT      O 2953   7.315   7.245   4.197
  904WAT     H1 2954   7.258   7.210   4.270
  904WAT     H2 2955   7.408   7.208   4.205
  905WAT      O 2956   6.196   1.731   0.521
  905WAT     H1 2957   6.156   1.640   0.537
  905WAT     H2 2958   6.190   1.785   0.605
  906WAT      O 2959   7.132   7.335   7.526
  906WAT     H1 2960   7.128   7.433   7.508
  906WAT     H2 2961   7.051   7.307   7.579
  907WAT      O 2962   4.992   0.309   4.309
  907WAT     H1 2963   4.916   0.307   4.373
  907WAT     H2 2964   5.078   0.313   4.360
  908WAT      O 2965   8.094   0.386   6.971
  908WAT     H1 2966   8.116   0.451   6.898
  908WAT     H2 2967   8.116   0.293   6.940
  909WAT      O 2968   1.571   2.919   9.726
  909WAT     H1 2969   1.609   2.828   9.741
  909WAT     H2 2970   1.473   2.918   9.747
  910WAT      O 2971   8.174   8.165   7.190
  910WAT     H1 2972   8.198   8.156   7.287
  910WAT     H2 2973   8.246   8.216   7.143
  911WAT      O 2974   2.464   2.457   3.749
  911WAT     H1 2975   2.384   2.406   3.717
  911WAT     H2 2976   2.483   2.433   3.844
  912WAT      O 2977   5.336   2.941   0.566
  912WAT     H1 2978   5.323   2.843   0.550
  912WAT     H2 2979   5.379   2.955   0.655
  913WAT      O 2980   0.307   4.048   2.456
  913WAT     H1 2981   0.245   4.043   2.378
  913WAT     H2 2982   0.255   4.044   2.541
  914WAT      O 2983   2.574   6.901   5.991
  914WAT     H1 2984   2.666   6.905   6.029
  914WAT     H2 2985   2.571   6.833   5.918
  915WAT      O 2986   7.641   0.028   6.874
  915WAT     H1 2987   7.741   0.026   6.873
  915WAT     H2 2988   7.609   0.067   6.960
  916WAT      O 2989   9.286   3.527   4.095
  916WAT     H1 2990   9.365   3.582   4.121
  916WAT     H2 2991   9.282   3.446   4.153
  917WAT      O 2992   2.675   7.359   8.404
  917WAT     H1 2993   2.637   7.301   8.476
  917WAT     H2 2994   2.760   7.400   8.436
  918WAT      O 2995   9.600   7.689   7.079
  918WAT     H1 2996   9.619   7.644   7.166
  918WAT     H2 2997   9.510   7.732   7.083
  919WAT      O 2998   3.069   8.560   8.766
  919WAT     H1 2999   3.163   8.533   8.747
  919WAT     H2 3000   3.056   8.572   8.864
  920WAT      O 3001   0.103   3.856   6.957
  920WAT     H1 3002   0.197   3.833   6.932
  920WAT     H2 3003   0.076   3.806   7.039
  921WAT      O 3004   2.906   3.152   5.387
  921WAT     H1 3005   2.983   3.092   5.409
  921WAT     H2 3006   2.907   3.231   5.448
  922WAT      O 3007   6.556   0.620   1.464
  922WAT     H1 3008   6.552   0.520   1.470
  922WAT     H2 3009   6.541   0.648   1.369
  923WAT      O 3010   3.499   2.928   4.314
  923WAT     H1 3011   3.593   2.916   4.344
  923WAT     H2 3012   3.438   2.874   4.372
  924WAT      O 3013   6.856   4.007   4.818
  924WAT     H1 3014   6.823   3.915   4.795
  924WAT     H2 3015   6.777   4.068   4.828
  925WAT      O 3016   8.578   6.103   5.857
  925WAT     H1 3017   8.565   6.041   5.780
  925WAT     H2 3018   8.676   6.122   5.868
  926WAT      O 3019   2.227   1.777   4.574
  926WAT     H1 3020   2.140   1.749   4.533
  926WAT     H2 3021   2.275   1.696   4.608
  927WAT      O 3022   7.657   0.986   0.903
  927WAT     H1 3023   7.754   0.962   0.910
  927WAT     H2 3024   7.618   0.943   0.822
  928WAT      O 3025   3.558   5.002   0.563
  928WAT     H1 3026   3.605   5.063   0.628
  928WAT     H2 3027   3.611   4.998   0.478
  929WAT      O 3028   9.754   6.401   9.538
  929WAT     H1 3029   9.713   6.490   9.560
  929WAT     H2 3030   9.694   6.351   9.476
  930WAT      O 3031   8.321   0.629   7.474
  930WAT     H1 3032   8.366   0.661   7.557
  930WAT     H2 3033   8.272   0.544   7.492
  931WAT      O 3034   5.886   1.847   2.518
  931WAT     H1 3035   5.825   1.797   2.579
  931WAT     H2 3036   5.895   1.942   2.549
  932WAT      O 3037   8.424   1.995   6.907
  932WAT     H1 3038   8.505   1.972   6.961
  932WAT     H2 3039   8.344   2.003   6.967
  933WAT      O 3040   2.437   8.370   1.744
  933WAT     H1 3041   2.433   8.303   1.670
  933WAT     H2 3042   2.413   8.326   1.830
  934WAT      O 3043   9.042   0.007   3.292
  934WAT     H1 3044   9.105  -0.051   3.240
  934WAT     H2 3045   9.069   0.103   3.283
  935WAT      O 3046   7.713   9.033   7.375
  935WAT     H1 3047   7.660   9.010   7.293
  935WAT     H2 3048   7.763   8.951   7.405
  936WAT      O 3049   8.594   2.448   8.124
  936WAT     H1 3050   8.665   2.469   8.192
  936WAT     H2 3051   8.579   2.350   8.121
  937WAT      O 3052   5.126   9.769   9.447
  937WAT     H1 3053   5.116   9.811   9.357
  937WAT     H2 3054   5.173   9.832   9.509
  938WAT      O 3055   2.033   9.288   9.151
  938WAT     H1 3056   2.089   9.206   9.156
  938WAT     H2 3057   1.998   9.311   9.242
  939WAT      O 3058   9.418   2.100   8.043
  939WAT     H1 3059   9.438   2.024   7.982
  939WAT     H2 3060   9.329   2.085   8.087
  940WAT      O 3061   7.943   1.177   4.950
  940WAT     H1 3062   7.941   1.239   4.872
  940WAT     H2 3063   7.905   1.223   5.030
  941WAT      O 3064   8.978   6.918   6.562
  941WAT     H1 3065   8.940   6.996   6.512
  941WAT     H2 3066   8.916   6.840   6.552
  942WAT      O 3067   2.206   0.630   1.171
  942WAT     H1 3068   2.224   0.532   1.173
  942WAT     H2 3069   2.249   0.673   1.251
  943WAT      O 3070   7.516   8.393   2.699
  943WAT     H1 3071   7.586   8.393   2.627
  943WAT     H2 3072   7.449   8.321   2.681
  944WAT      O 3073   6.386   6.489   5.118
  944WAT     H1 3074   6.447   6.446   5.052
  944WAT     H2 3075   6.375   6.586   5.095
  945WAT      O 3076   5.666   7.014   8.361
  945WAT     H1 3077   5.622   6.973   8.281
  945WAT     H2 3078   5.598   7.063   8.416
  946WAT      O 3079   2.981   6.626   1.166
  946WAT     H1 3080   3.061   6.685   1.158
  946WAT     H2 3081   2.978   6.563   1.088
  947WAT      O 3082   3.543   1.148   0.903
  947WAT     H1 3083   3.601   1.205   0.844
  947WAT     H2 3084   3.458   1.127   0.855
  948WAT      O 3085   2.737   7.960   3.070
  948WAT     H1 3086   2.739   7.917   2.980
  948WAT     H2 3087   2.815   7.928   3.124
  949WAT      O 3088   3.407   1.603   6.345
  949WAT     H1 3089   3.444   1.626   6.255
  949WAT     H2 3090   3.403   1.686   6.401
  950WAT      O 3091   2.570   3.966   8.643
  950WAT     H1 3092   2.640   4.030   8.612
  950WAT     H2 3093   2.564   3.969   8.743
  951WAT      O 3094   0.579   5.180   7.650
  951WAT     H1 3095   0.653   5.224   7.599
  951WAT     H2 3096   0.504   5.244   7.663
  952WAT      O 3097   3.823   8.229   7.676
  952WAT     H1 3098   3.832   8.133   7.703
  952WAT     H2 3099   3.769   8.235   7.592
  953WAT      O 3100   0.647   0.411   5.674
  953WAT     H1 3101   0.588   0.404   5.593
  953WAT     H2 3102   0.709   0.489   5.663
  954WAT      O 3103   3.756   4.001   6.982
  954WAT     H1 3104   3.726   4.093   6.957
  954WAT     H2 3105   3.786   4.000   7.078
  955WAT      O 3106   5.106   6.245   9.302
  955WAT     H1 3107   5.137   6.194   9.222
  955WAT     H2 3108   5.010   6.268   9.292
  956WAT      O 3109   3.546   7.424   1.253
  956WAT     H1 3110   3.475   7.421   1.182
  956WAT     H2 3111   3.580   7.331   1.270
  957WAT      O 3112   8.546   9.334   1.901
  957WAT     H1 3113   8.597   9.247   1.906
  957WAT     H2 3114   8.449   9.314   1.890
  958WAT      O 3115   8.702   0.411   6.098
  958WAT     H1 3116   8.703   0.343   6.171
  958WAT     H2 3117   8.608   0.431   6.071
  959WAT      O 3118   4.399   8.466   6.864
  959WAT     H1 3119   4.488   8.496   6.897
  959WAT     H2 3120   4.353   8.542   6.818
  960WAT      O 3121   9.482   2.794   2.187
  960WAT     H1 3122   9.581   2.789   2.178
  960WAT     H2 3123   9.444   2.702   2.195
  961WAT      O 3124   6.531   8.504   9.437
  961WAT     H1 3125   6.549   8.583   9.496
  961WAT     H2 3126   6.456   8.527   9.375
  962WAT      O 3127   1.091   5.469   2.390
  962WAT     H1 3128   1.166   5.509   2.442
  962WAT     H2 3129   1.116   5.376   2.361
  963WAT      O 3130   8.580   4.804   0.297
  963WAT     H1 3131   8.543   4.794   0.205
  963WAT     H2 3132   8.611   4.898   0.311
  964WAT      O 3133   9.294   7.584   7.086
  964WAT     H1 3134   9.205   7.542   7.103
  964WAT     H2 3135   9.361   7.513   7.064
  965WAT      O 3136   9.788   4.360   1.967
  965WAT     H1 3137   9.801   4.459   1.952
  965WAT     H2 3138   9.815   4.311   1.884
  966WAT      O 3139   9.824   2.977   1.071
  966WAT     H1 3140   9.923   2.971   1.082
  966WAT     H2 3141   9.780   2.972   1.160
  967WAT      O 3142   2.355   9.185   9.021
  967WAT     H1 3143   2.336   9.283   9.026
  967WAT     H2 3144   2.299   9.144   8.949
  968WAT      O 3145   7.825   8.396   5.986
  968WAT     H1 3146   7.912   8.346   5.982
  968WAT     H2 3147   7.837   8.486   5.943
  969WAT      O 3148   4.741   6.502   4.104
  969WAT     H1 3149   4.709   6.419   4.150
  969WAT     H2 3150   4.662   6.554   4.072
  970WAT      O 3151   3.798   5.238   1.790
  970WAT     H1 3152   3.816   5.147   1.826
  970WAT     H2 3153   3.788   5.303   1.866
  971WAT      O 3154   2.150   1.334   0.684
  971WAT     H1 3155   2.063   1.357   0.727
  971WAT     H2 3156   2.201   1.418   0.665
  972WAT      O 3157   6.618   9.163   5.995
  972WAT     H1 3158   6.590   9.248   6.040
  972WAT     H2 3159   6.682   9.183   5.921
  973WAT      O 3160   8.315   0.012   6.495
  973WAT     H1 3161   8.331  -0.058   6.426
  973WAT     H2 3162   8.223   0.003   6.532
  974WAT      O 3163   5.053   4.991   6.485
  974WAT     H1 3164   5.010   4.988   6.395
  974WAT     H2 3165   4.999   4.936   6.549
  975WAT      O 3166   1.061   2.418   5.207
  975WAT     H1 3167   0.976   2.417   5.260
  975WAT     H2 3168   1.130   2.361   5.252
  976WAT      O 3169   2.858   5.214   5.376
  976WAT     H1 3170   2.882   5.308   5.354
  976WAT     H2 3171   2.918   5.151   5.326
  977WAT      O 3172   8.462   3.072   9.788
  977WAT     H1 3173   8.487   3.030   9.701
  977WAT     H2 3174   8.366   3.054   9.808
  978WAT      O 3175   9.707   0.532   8.901
  978WAT     H1 3176   9.716   0.533   8.801
  978WAT     H2 3177   9.747   0.448   8.937
  979WAT      O 3178   7.860   1.967   1.009
  979WAT     H1 3179   7.857   1.883   1.064
  979WAT     H2 3180   7.940   1.964   0.949
  980WAT      O 3181   2.868   5.678   6.133
  980WAT     H1 3182   2.818   5.763   6.124
  980WAT     H2 3183   2.965   5.694   6.111
  981WAT      O 3184   0.012   4.390   5.331
  981WAT     H1 3185  -0.039   4.420   5.250
  981WAT     H2 3186   0.000   4.292   5.343
  982WAT      O 3187   9.146   9.474   7.285
  982WAT     H1 3188   9.133   9.573   7.286
  982WAT     H2 3189   9.149   9.440   7.379
  983WAT      O 3190   7.816   1.626   7.680
  983WAT     H1 3191   7.827   1.590   7.588
  983WAT     H2 3192   7.880   1.580   7.742
  984WAT      O 3193   4.845   3.343   8.283
  984WAT     H1 3194   4.763   3.300   8.247
  984WAT     H2 3195   4.820   3.423   8.337
  985WAT      O 3196   1.665   2.474   1.195
  985WAT     H1 3197   1.571   2.445   1.214
  985WAT     H2 3198   1.694   2.540   1.265
  986WAT      O 3199   4.114   7.729   4.417
  986WAT     H1 3200   4.104   7.764   4.510
  986WAT     H2 3201   4.175   7.789   4.365
  987WAT      O 3202   2.069   8.411   8.839
  987WAT     H1 3203   2.025   8.483   8.892
  987WAT     H2 3204   2.049   8.322   8.881
  988WAT      O 3205   2.447   5.408   2.897
  988WAT     H1 3206   2.414   5.345   2.968
  988WAT     H2 3207   2.394   5.395   2.814
  989WAT      O 3208   8.380   6.744   2.098
  989WAT     H1 3209   8.313   6.816   2.117
  989WAT     H2 3210   8.333   6.667   2.055
  990WAT      O 3211   1.865   6.289   3.748
  990WAT     H1 3212   1.959   6.293   3.784
  990WAT     H2 3213   1.826   6.381   3.749
  991WAT      O 3214   2.398   7.364   5.972
  991WAT     H1 3215   2.336   7.403   5.903
  991WAT     H2 3216   2.445   7.285   5.934
  992WAT      O 3217   1.374   9.242   8.893
  992WAT     H1 3218   1.461   9.263   8.936
  992WAT     H2 3219   1.373   9.145   8.866
  993WAT      O 3220   3.991   3.987   5.241
  993WAT     H1 3221   3.996   4.013   5.145
  993WAT     H2 3222   3.948   4.061   5.293
  994WAT      O 3223   5.561   7.259   6.607
  994WAT     H1 3224   5.500   7.332   6.638
  994WAT     H2 3225   5.508   7.182   6.574
  995WAT      O 3226   4.661   5.326   7.227
  995WAT     H1 3227   4.685   5.268   7.305
  995WAT     H2 3228   4.600   5.399   7.257
  996WAT      O 3229   3.689   0.725   3.594
  996WAT     H1 3230   3.731   0.795   3.651
  996WAT     H2 3231   3.630   0.768   3.526
  997WAT      O 3232   4.289   8.572   1.415
  997WAT     H1 3233   4.197   8.565   1.376
  997WAT     H2 3234   4.293   8.521   1.501
  998WAT      O 3235   3.275   1.674   3.318
  998WAT     H1 3236   3.204   1.734   3.356
  998WAT     H2 3237   3.232   1.592   3.279
  999WAT      O 3238   8.051   4.529   4.688
  999WAT     H1 3239   7.963   4.570   4.664
  999WAT     H2 3240   8.115   4.602   4.714
 1000WAT      O 3241   2.074   0.541   6.313
 1000WAT     H1 3242   2.140   0.583   6.251
 1000WAT     H2 3243   1.983   0.545   6.272
 1001WAT      O 3244   2.139   9.772   4.357
 1001WAT     H1 3245   2.136   9.846   4.423
 1001WAT     H2 3246   2.047   9.733   4.346
 1002WAT      O 3247   9.770   0.080   6.721
 1002WAT     H1 3248   9.676   0.053   6.741
 1002WAT     H2 3249   9.831   0.001   6.734
 1003WAT      O 3250   9.581   6.483   0.463
 1003WAT     H1 3251   9.596   6.386   0.481
 1003WAT     H2 3252   9.575   6.532   0.550
 1004WAT      O 3253   7.259   4.934   5.802
 1004WAT     H1 3254   7.232   5.024   5.768
 1004WAT     H2 3255   7.317   4.889   5.733
 1005WAT      O 3256   3.620   3.055   4.578
 1005WAT     H1 3257   3.636   3.032   4.482
 1005WAT     H2 3258   3.687   3.123   4.608
 1006WAT      O 3259   8.351   2.389   7.880
 1006WAT     H1 3260   8.346   2.454   7.956
 1006WAT     H2 3261   8.429   2.327   7.894
 1007WAT      O 3262   8.595   1.275   3.245
 1007WAT     H1 3263   8.693   1.273   3.264
 1007WAT     H2 3264   8.546   1.302   3.328
 1008WAT      O 3265   6.072   0.521   7.642
 1008WAT     H1 3266   6.170   0.540   7.634
 1008WAT     H2 3267   6.028   0.533   7.553
 1009WAT      O 3268   5.236   3.719   1.138
 1009WAT     H1 3269   5.306   3.700   1.207
 1009WAT     H2 3270   5.172   3.787   1.174
 1010WAT      O 3271   3.317   0.946   7.049
 1010WAT     H1 3272   3.273   0.948   7.139
 1010WAT     H2 3273   3.300   1.032   7.001
 1011WAT      O 3274   9.117   3.332   3.049
 1011WAT     H1 3275   9.107   3.266   2.975
 1011WAT     H2 3276   9.052   3.311   3.121
 1012WAT      O 3277   7.835   0.729   7.796
 1012WAT     H1 3278   7.765   0.801   7.801
 1012WAT     H2 3279   7.796   0.644   7.830
 1013WAT      O 3280   8.283   0.075   3.551
 1013WAT     H1 3281   8.290   0.025   3.637
 1013WAT     H2 3282   8.277   0.173   3.570
 1014WAT      O 3283   4.541   7.439   8.188
 1014WAT     H1 3284   4.623   7.481   8.228
 1014WAT     H2 3285   4.526   7.476   8.096
 1015WAT      O 3286   4.491   6.830   3.193
 1015WAT     H1 3287   4.434   6.750   3.179
 1015WAT     H2 3288   4.437   6.913   3.179
 1016WAT      O 3289   0.909   0.055   8.349
 1016WAT     H1 3290   0.999   0.068   8.308
 1016WAT     H2 3291   0.845   0.020   8.280
 1017WAT      O 3292   1.253   1.242   0.132
 1017WAT     H1 3293   1.159   1.208   0.137
 1017WAT     H2 3294   1.292   1.218   0.043
 1018WAT      O 3295   0.241   1.349   8.447
 1018WAT     H1 3296   0.191   1.289   8.385
 1018WAT     H2 3297   0.195   1.352   8.535
 1019WAT      O 3298   3.433   6.516   4.396
 1019WAT     H1 3299   3.413   6.583   4.325
 1019WAT     H2 3300   3.532   6.507   4.408
 1020WAT      O 3301   2.013   0.760   6.661
 1020WAT     H1 3302   2.058   0.850   6.667
 1020WAT     H2 3303   1.926   0.764   6.711
 1021WAT      O 3304   4.613   9.712   7.244
 1021WAT     H1 3305   4.712   9.696   7.244
 1021WAT     H2 3306   4.593   9.793   7.188
 1022WAT      O 3307   3.908   5.485   3.347
 1022WAT     H1 3308   3.970   5.408   3.332
 1022WAT     H2 3309   3.837   5.458   3.412
 1023WAT      O 3310   0.778   1.728   7.795
 1023WAT     H1 3311   0.723   1.682   7.864
 1023WAT     H2 3312   0.760   1.688   7.705
 1024WAT      O 3313   4.704   1.474   8.266
 1024WAT     H1 3314   4.735   1.415   8.341
 1024WAT     H2 3315   4.692   1.420   8.183
 1025WAT      O 3316   8.433   1.216   6.915
 1025WAT     H1 3317   8.414   1.299   6.862
 1025WAT     H2 3318   8.379   1.217   6.999
 1026WAT      O 3319   2.959   2.988   0.949
 1026WAT     H1 3320   3.053   3.004   0.919
 1026WAT     H2 3321   2.939   2.890   0.945
 1027WAT      O 3322   9.350   7.070   3.710
 1027WAT     H1 3323   9.426   7.032   3.762
 1027WAT     H2 3324   9.378   7.156   3.667
 1028WAT      O 3325   0.288   0.245   9.507
 1028WAT     H1 3326   0.234   0.255   9.590
 1028WAT     H2 3327   0.374   0.295   9.516
 1029WAT      O 3328   7.396   8.139   2.694
 1029WAT     H1 3329   7.311   8.089   2.711
 1029WAT     H2 3330   7.474   8.078   2.707
 1030WAT      O 3331   9.017   5.242   3.393
 1030WAT     H1 3332   9.084   5.206   3.458
 1030WAT     H2 3333   9.056   5.321   3.346
 1031WAT      O 3334   5.639   6.217   1.780
 1031WAT     H1 3335   5.547   6.232   1.744
 1031WAT     H2 3336   5.701   6.288   1.746
 1032WAT      O 3337   6.139   7.895   2.228
 1032WAT     H1 3338   6.234   7.920   2.247
 1032WAT     H2 3339   6.090   7.974   2.191
 1033WAT      O 3340   9.565   8.085   2.910
 1033WAT     H1 3341   9.582   7.987   2.898
 1033WAT     H2 3342   9.602   8.135   2.831
 1034WAT      O 3343   6.117   8.448   2.874
 1034WAT     H1 3344   6.168   8.377   2.825
 1034WAT     H2 3345   6.111   8.424   2.971
 1035WAT      O 3346   0.814   8.305   7.998
 1035WAT     H1 3347   0.847   8.395   8.026
 1035WAT     H2 3348   0.887   8.255   7.950
 1036WAT      O 3349   1.292   0.556   8.039
 1036WAT     H1 3350   1.212   0.594   7.993
 1036WAT     H2 3351   1.297   0.591   8.132
 1037WAT      O 3352   7.792   7.389   0.359
 1037WAT     H1 3353   7.800   7.360   0.264
 1037WAT     H2 3354   7.711   7.346   0.400
 1038WAT      O 3355   7.283   1.400   2.227
 1038WAT     H1 3356   7.346   1.475   2.247
 1038WAT     H2 3357   7.214   1.431   2.161
 1039WAT      O 3358   1.770   7.889   3.876
 1039WAT     H1 3359   1.714   7.964   3.911
 1039WAT     H2 3360   1.859   7.924   3.847
 1040WAT      O 3361   9.112   5.881   0.692
 1040WAT     H1 3362   9.068   5.868   0.603
 1040WAT     H2 3363   9.055   5.841   0.764
 1041WAT      O 3364   3.368   1.826   6.834
 1041WAT     H1 3365   3.373   1.894   6.907
 1041WAT     H2 3366   3.433   1.753   6.852
 1042WAT      O 3367   2.180   3.721   8.217
 1042WAT     H1 3368   2.162   3.724   8.315
 1042WAT     H2 3369   2.095   3.699   8.168
 1043WAT      O 3370   2.505   3.510   0.171
 1043WAT     H1 3371   2.457   3.458   0.100
 1043WAT     H2 3372   2.438   3.551   0.232
 1044WAT      O 3373   5.395   2.851   9.726
 1044WAT     H1 3374   5.452   2.789   9.780
 1044WAT     H2 3375   5.381   2.813   9.635
 1045WAT      O 3376   7.342   7.549   7.639
 1045WAT     H1 3377   7.424   7.546   7.582
 1045WAT     H2 3378   7.297   7.459   7.637
 1046WAT      O 3379   1.604   8.472   6.383
 1046WAT     H1 3380   1.654   8.555   6.410
 1046WAT     H2 3381   1.514   8.498   6.349
 1047WAT      O 3382   7.430   1.633   8.157
 1047WAT     H1 3383   7.428   1.719   8.106
 1047WAT     H2 3384   7.378   1.563   8.107
 1048WAT      O 3385   6.177   8.460   8.915
 1048WAT     H1 3386   6.083   8.432   8.895
 1048WAT     H2 3387   6.225   8.476   8.829
 1049WAT      O 3388   5.814   6.826   2.516
 1049WAT     H1 3389   5.813   6.917   2.557
 1049WAT     H2 3390   5.758   6.826   2.433
 1050WAT      O 3391   0.718   2.500   7.925
 1050WAT     H1 3392   0.635   2.555   7.929
 1050WAT     H2 3393   0.772   2.528   7.845
 1051WAT      O 3394   5.038   4.741   7.523
 1051WAT     H1 3395   5.026   4.734   7.424
 1051WAT     H2 3396   5.129   4.776   7.543
 1052WAT      O 3397   8.615   9.247   5.745
 1052WAT     H1 3398   8.588   9.164   5.793
 1052WAT     H2 3399   8.619   9.323   5.811
 1053WAT      O 3400   0.728   7.703   4.768
 1053WAT     H1 3401   0.707   7.793   4.805
 1053WAT     H2 3402   0.783   7.652   4.835
 1054WAT      O 3403   2.775   2.634   0.602
 1054WAT     H1 3404   2.783   2.705   0.672
 1054WAT     H2 3405   2.678   2.614   0.587
 1055WAT      O 3406   2.002   7.081   6.454
 1055WAT     H1 3407   2.075   7.101   6.389
 1055WAT     H2 3408   1.928   7.147   6.443
 1056WAT      O 3409   6.539   9.767   2.961
 1056WAT     H1 3410   6.559   9.858   2.996
 1056WAT     H2 3411   6.444   9.743   2.979
 1057WAT      O 3412   1.204   0.395   2.089
 1057WAT     H1 3413   1.295   0.355   2.082
 1057WAT     H2 3414   1.157   0.358   2.169
 1058WAT      O 3415   7.939   7.287   4.837
 1058WAT     H1 3416   7.969   7.373   4.795
 1058WAT     H2 3417   7.973   7.210   4.784
 1059WAT      O 3418   1.071   3.619   6.344
 1059WAT     H1 3419   1.004   3.644   6.274
 1059WAT     H2 3420   1.046   3.532   6.386
 1060WAT      O 3421   2.591   1.449   7.682
 1060WAT     H1 3422   2.639   1.523   7.635
 1060WAT     H2 3423   2.653   1.371   7.694
 1061WAT      O 3424   0.087   5.867   5.553
 1061WAT     H1 3425   0.125   5.790   5.502
 1061WAT     H2 3426   0.053   5.835   5.642
 1062WAT      O 3427   8.356   3.261   5.846
 1062WAT     H1 3428   8.336   3.348   5.802
 1062WAT     H2 3429   8.435   3.219   5.803
 1063WAT      O 3430   4.376   7.149   3.724
 1063WAT     H1 3431   4.283   7.140   3.689
 1063WAT     H2 3432   4.379   7.117   3.819
 1064WAT      O 3433   2.649   3.716   5.429
 1064WAT     H1 3434   2.615   3.767   5.350
 1064WAT     H2 3435   2.742   3.684   5.410
 1065WAT      O 3436   3.180   6.450   1.269
 1065WAT     H1 3437   3.148   6.358   1.248
 1065WAT     H2 3438   3.108   6.516   1.246
 1066WAT      O 3439   9.326   9.354   4.975
 1066WAT     H1 3440   9.376   9.268   4.985
 1066WAT     H2 3441   9.319   9.398   5.065
 1067WAT      O 3442   2.590   0.810   1.813
 1067WAT     H1 3443   2.639   0.738   1.863
 1067WAT     H2 3444   2.603   0.797   1.715
 1068WAT      O 3445   8.231   9.015   6.162
 1068WAT     H1 3446   8.231   9.001   6.063
 1068WAT     H2 3447   8.257   9.109   6.183
 1069WAT      O 3448   7.830   3.623   0.699
 1069WAT     H1 3449   7.799   3.711   0.735
 1069WAT     H2 3450   7.912   3.593   0.748
 1070WAT      O 3451   3.219   7.938   3.827
 1070WAT     H1 3452   3.310   7.959   3.791
 1070WAT     H2 3453   3.229   7.891   3.915
 1071WAT      O 3454   1.373   3.229   9.301
 1071WAT     H1 3455   1.440   3.219   9.227
 1071WAT     H2 3456   1.309   3.302   9.278
 1072WAT      O 3457   4.253   1.687   8.792
 1072WAT     H1 3458   4.266   1.632   8.710
 1072WAT     H2 3459   4.156   1.686   8.818
 1073WAT      O 3460   7.224   7.555   7.354
 1073WAT     H1 3461   7.180   7.541   7.265
 1073WAT     H2 3462   7.323   7.552   7.343
 1074WAT      O 3463   8.690   9.423   0.679
 1074WAT     H1 3464   8.727   9.510   0.646
 1074WAT     H2 3465   8.662   9.366   0.601
 1075WAT      O 3466   2.322   5.355   6.827
 1075WAT     H1 3467   2.401   5.316   6.874
 1075WAT     H2 3468   2.298   5.442   6.870
 1076WAT      O 3469   6.886   5.805   7.107
 1076WAT     H1 3470   6.915   5.771   7.018
 1076WAT     H2 3471   6.964   5.852   7.151
 1077WAT      O 3472   1.193   1.364   5.510
 1077WAT     H1 3473   1.170   1.267   5.501
 1077WAT     H2 3474   1.194   1.389   5.607
 1078WAT      O 3475   6.629   4.460   6.919
 1078WAT     H1 3476   6.685   4.377   6.926
 1078WAT     H2 3477   6.673   4.535   6.969
 1079WAT      O 3478   9.682   0.731   3.480
 1079WAT     H1 3479   9.673   0.792   3.559
 1079WAT     H2 3480   9.641   0.773   3.400
 1080WAT      O 3481   1.158   1.058   8.393
 1080WAT     H1 3482   1.086   1.007   8.346
 1080WAT     H2 3483   1.247   1.034   8.354
 1081WAT      O 3484   5.965   4.617   1.901
 1081WAT     H1 3485   5.957   4.602   1.999
 1081WAT     H2 3486   6.006   4.536   1.858
 1082WAT      O 3487   1.779   0.271   8.908
 1082WAT     H1 3488   1.738   0.327   8.835
 1082WAT     H2 3489   1.752   0.176   8.895
 1083WAT      O 3490   2.126   6.817   6.409
 1083WAT     H1 3491   2.210   6.861   6.441
 1083WAT     H2 3492   2.050   6.843   6.469
 1084WAT      O 3493   8.243   7.281   0.981
 1084WAT     H1 3494   8.319   7.229   0.944
 1084WAT     H2 3495   8.242   7.272   1.081
 1085WAT      O 3496   9.103   1.817   3.190
 1085WAT     H1 3497   9.132   1.855   3.102
 1085WAT     H2 3498   9.178   1.764   3.229
 1086WAT      O 3499   8.450   1.293   2.375
 1086WAT     H1 3500   8.473   1.377   2.424
 1086WAT     H2 3501   8.421   1.315   2.282
 1087WAT      O 3502   9.872   6.514   3.510
 1087WAT     H1 3503   9.780   6.517   3.550
 1087WAT     H2 3504   9.891   6.599   3.462
 1088WAT      O 3505   6.851   0.180   6.521
 1088WAT     H1 3506   6.805   0.268   6.531
 1088WAT     H2 3507   6.889   0.152   6.610
 1089WAT      O 3508   4.531   2.668   2.737
 1089WAT     H1 3509   4.619   2.713   2.757
 1089WAT     H2 3510   4.471   2.732   2.689
 1090WAT      O 3511   8.508   7.417   7.270
 1090WAT     H1 3512   8.560   7.387   7.351
 1090WAT     H2 3513   8.413   7.435   7.296
 1091WAT      O 3514   0.783   0.985   4.702
 1091WAT     H1 3515   0.780   0.974   4.603
 1091WAT     H2 3516   0.855   1.051   4.726
 1092WAT      O 3517   9.572   7.868   8.851
 1092WAT     H1 3518   9.570   7.951   8.907
 1092WAT     H2 3519   9.635   7.881   8.775
 1093WAT      O 3520   4.200   0.428   0.830
 1093WAT     H1 3521   4.251   0.349   0.795
 1093WAT     H2 3522   4.223   0.442   0.926
 1094WAT      O 3523   6.809   0.479   9.675
 1094WAT     H1 3524   6.852   0.464   9.586
 1094WAT     H2 3525   6.845   0.562   9.716
 1095WAT      O 3526   5.146   9.692   7.018
 1095WAT     H1 3527   5.207   9.741   6.956
 1095WAT     H2 3528   5.090   9.627   6.965
 1096WAT      O 3529   0.525   4.618   0.730
 1096WAT     H1 3530   0.434   4.618   0.773
 1096WAT     H2 3531   0.524   4.558   0.650
 1097WAT      O 3532   8.768   3.871   8.564
 1097WAT     H1 3533   8.696   3.848   8.498
 1097WAT     H2 3534   8.738   3.846   8.656
 1098WAT      O 3535   0.403   5.509   3.163
 1098WAT     H1 3536   0.375   5.510   3.067
 1098WAT     H2 3537   0.434   5.417   3.187
 1099WAT      O 3538   3.693   8.179   6.782
 1099WAT     H1 3539   3.790   8.190   6.803
 1099WAT     H2 3540   3.665   8.085   6.801
 1100WAT      O 3541   5.759   5.164   8.108
 1100WAT     H1 3542   5.796   5.169   8.015
 1100WAT     H2 3543   5.707   5.078   8.118
 1101WAT      O 3544   0.377   7.899   4.889
 1101WAT     H1 3545   0.380   7.970   4.819
 1101WAT     H2 3546   0.334   7.817   4.852
 1102WAT      O 3547   7.941   7.688   1.144
 1102WAT     H1 3548   7.919   7.714   1.238
 1102WAT     H2 3549   8.038   7.707   1.126
 1103WAT      O 3550   7.694   3.853   2.179
 1103WAT     H1 3551   7.791   3.844   2.156
 1103WAT     H2 3552   7.660   3.767   2.216
 1104WAT      O 3553   5.772   4.907   8.870
 1104WAT     H1 3554   5.677   4.937   8.869
 1104WAT     H2 3555   5.831   4.984   8.894
 1105WAT      O 3556   0.571   5.000   9.778
 1105WAT     H1 3557   0.554   5.097   9.757
 1105WAT     H2 3558   0.585   4.990   9.877
 1106WAT      O 3559   4.161   4.556   1.277
 1106WAT     H1 3560   4.168   4.583   1.373
 1106WAT     H2 3561   4.074   4.508   1.262
 1107WAT      O 3562   8.399   1.412   2.119
 1107WAT     H1 3563   8.395   1.500   2.166
 1107WAT     H2 3564   8.482   1.407   2.063
 1108WAT      O 3565   9.422   3.263   6.704
 1108WAT     H1 3566   9.424   3.174   6.659
 1108WAT     H2 3567   9.336   3.310   6.682
 1109WAT      O 3568   8.649   4.201   9.422
 1109WAT     H1 3569   8.631   4.284   9.474
 1109WAT     H2 3570   8.725   4.151   9.463
 1110WAT      O 3571   3.675   8.022   7.896
 1110WAT     H1 3572   3.718   8.047   7.982
 1110WAT     H2 3573   3.598   8.084   7.878
 1111WAT      O 3574   0.326   0.332   1.141
 1111WAT     H1 3575   0.415   0.292   1.118
 1111WAT     H2 3576   0.341   0.419   1.188
 1112WAT      O 3577   1.535   0.776   1.906
 1112WAT     H1 3578   1.443   0.744   1.883
 1112WAT     H2 3579   1.583   0.804   1.823
 1113WAT      O 3580   5.153   6.860   2.968
 1113WAT     H1 3581   5.245   6.826   2.949
 1113WAT     H2 3582   5.088   6.784   2.966
 1114WAT      O 3583   7.331   8.707   3.758
 1114WAT     H1 3584   7.302   8.694   3.663
 1114WAT     H2 3585   7.293   8.634   3.815
 1115WAT      O 3586   7.913   0.228   1.986
 1115WAT     H1 3587   7.977   0.163   2.026
 1115WAT     H2 3588   7.885   0.294   2.056
 1116WAT      O 3589   0.615   4.625   7.572
 1116WAT     H1 3590   0.542   4.638   7.639
 1116WAT     H2 3591   0.576   4.625   7.480
 1117WAT      O 3592   0.212   1.680   4.530
 1117WAT     H1 3593   0.253   1.705   4.443
 1117WAT     H2 3594   0.230   1.752   4.598
 1118WAT      O 3595   2.070   5.561   4.311
 1118WAT     H1 3596   2.121   5.642   4.342
 1118WAT     H2 3597   2.086   5.547   4.213
 1119WAT      O 3598   7.894   9.748   2.588
 1119WAT     H1 3599   7.896   9.668   2.648
 1119WAT     H2 3600   7.921   9.829   2.639
 1120WAT      O 3601   4.963   1.992   5.504
 1120WAT     H1 3602   4.964   2.071   5.442
 1120WAT     H2 3603   4.982   1.909   5.452
 1121WAT      O 3604   3.624   2.305   3.746
 1121WAT     H1 3605   3.581   2.300   3.836
 1121WAT     H2 3606   3.678   2.223   3.730
 1122WAT      O 3607   9.029   8.262   3.812
 1122WAT     H1 3608   9.106   8.298   3.865
 1122WAT     H2 3609   9.060   8.242   3.719
 1123WAT      O 3610   0.370   8.465   9.040
 1123WAT     H1 3611   0.395   8.561   9.045
 1123WAT     H2 3612   0.453   8.410   9.027
 1124WAT      O 3613   7.543   8.067   0.181
 1124WAT     H1 3614   7.586   7.996   0.126
 1124WAT     H2 3615   7.450   8.084   0.147
 1125WAT      O 3616   1.522   7.596   0.549
 1125WAT     H1 3617   1.539   7.694   0.559
 1125WAT     H2 3618   1.434   7.572   0.590
 1126WAT      O 3619   2.073   0.946   8.124
 1126WAT     H1 3620   2.173   0.947   8.124
 1126WAT     H2 3621   2.040   0.918   8.034
 1127WAT      O 3622   2.134   7.580   3.117
 1127WAT     H1 3623   2.201   7.519   3.074
 1127WAT     H2 3624   2.079   7.625   3.047
 1128WAT      O 3625   4.588   6.942   4.442
 1128WAT     H1 3626   4.626   6.857   4.481
 1128WAT     H2 3627   4.663   7.005   4.421
 1129WAT      O 3628   1.485   3.055   8.149
 1129WAT     H1 3629   1.554   3.002   8.198
 1129WAT     H2 3630   1.529   3.129   8.098
 1130WAT      O 3631   3.985   9.819   2.945
 1130WAT     H1 3632   3.939   9.753   2.886
 1130WAT     H2 3633   3.955   9.911   2.922
 1131WAT      O 3634   7.077   8.974   1.874
 1131WAT     H1 3635   7.117   8.977   1.783
 1131WAT     H2 3636   7.036   9.063   1.895
 1132WAT      O 3637   5.661   5.588   9.786
 1132WAT     H1 3638   5.651   5.489   9.771
 1132WAT     H2 3639   5.606   5.615   9.865
 1133WAT      O 3640   9.196   5.390   3.632
 1133WAT     H1 3641   9.210   5.325   3.706
 1133WAT     H2 3642   9.115   5.445   3.651
 1134WAT      O 3643   7.696   4.592   6.596
 1134WAT     H1 3644   7.619   4.530   6.612
 1134WAT     H2 3645   7.778   4.539   6.575
 1135WAT      O 3646   5.367   3.292   0.450
 1135WAT     H1 3647   5.454   3.245   0.467
 1135WAT     H2 3648   5.293   3.225   0.448
 1136WAT      O 3649   2.842   4.130   5.221
 1136WAT     H1 3650   2.903   4.161   5.294
 1136WAT     H2 3651   2.815   4.207   5.164
 1137WAT      O 3652   1.896   9.239   4.174
 1137WAT     H1 3653   1.879   9.205   4.266
 1137WAT     H2 3654   1.843   9.322   4.158
 1138WAT      O 3655   6.624   4.557   4.662
 1138WAT     H1 3656   6.674   4.594   4.741
 1138WAT     H2 3657   6.610   4.630   4.595
 1139WAT      O 3658   0.635   4.533   3.919
 1139WAT     H1 3659   0.559   4.597   3.914
 1139WAT     H2 3660   0.607   4.444   3.882
 1140WAT      O 3661   7.601   8.403   1.823
 1140WAT     H1 3662   7.509   8.438   1.805
 1140WAT     H2 3663   7.627   8.424   1.917
 1141WAT      O 3664   4.473   5.741   7.432
 1141WAT     H1 3665   4.479   5.653   7.384
 1141WAT     H2 3666   4.460   5.725   7.530
 1142WAT      O 3667   8.614   1.941   7.094
 1142WAT     H1 3668   8.662   2.025   7.117
 1142WAT     H2 3669   8.677   1.876   7.051
 1143WAT      O 3670   4.109   8.225   7.134
 1143WAT     H1 3671   4.073   8.156   7.071
 1143WAT     H2 3672   4.137   8.181   7.219
 1144WAT      O 3673   5.665   7.885   0.277
 1144WAT     H1 3674   5.760   7.871   0.246
 1144WAT     H2 3675   5.603   7.838   0.214
 1145WAT      O 3676   4.133   1.719   2.834
 1145WAT     H1 3677   4.120   1.650   2.904
 1145WAT     H2 3678   4.113   1.810   2.872
 1146WAT      O 3679   1.721   1.664   2.380
 1146WAT     H1 3680   1.734   1.743   2.439
 1146WAT     H2 3681   1.624   1.656   2.355
 1147WAT      O 3682   5.209   0.352   7.316
 1147WAT     H1 3683   5.167   0.420   7.376
 1147WAT     H2 3684   5.164   0.264   7.329
 1148WAT      O 3685   4.703   5.544   1.044
 1148WAT     H1 3686   4.741   5.501   0.962
 1148WAT     H2 3687   4.622   5.597   1.020
 1149WAT      O 3688   7.557   8.259   6.540
 1149WAT     H1 3689   7.568   8.228   6.446
 1149WAT     H2 3690   7.605   8.197   6.602
 1150WAT      O 3691   7.956   8.595   0.315
 1150WAT     H1 3692   7.893   8.569   0.388
 1150WAT     H2 3693   7.917   8.567   0.227
 1151WAT      O 3694   6.741   7.774   6.027
 1151WAT     H1 3695   6.652   7.805   5.992
 1151WAT     H2 3696   6.794   7.734   5.952
 1152WAT      O 3697   6.428   7.268   9.839
 1152WAT     H1 3698   6.509   7.326   9.840
 1152WAT     H2 3699   6.393   7.258   9.932
 1153WAT      O 3700   0.720   4.067   7.196
 1153WAT     H1 3701   0.738   4.125   7.275
 1153WAT     H2 3702   0.701   4.125   7.116
 1154WAT      O 3703   6.864   6.114   9.595
 1154WAT     H1 3704   6.850   6.035   9.535
 1154WAT     H2 3705   6.933   6.175   9.554
 1155WAT      O 3706   2.944   6.422   8.936
 1155WAT     H1 3707   2.873   6.492   8.934
 1155WAT     H2 3708   2.966   6.400   9.031
 1156WAT      O 3709   5.044   9.253   1.158
 1156WAT     H1 3710   5.096   9.181   1.111
 1156WAT     H2 3711   5.105   9.305   1.218
 1157WAT      O 3712   7.504   3.872   2.551
 1157WAT     H1 3713   7.447   3.939   2.505
 1157WAT     H2 3714   7.599   3.882   2.521
 1158WAT      O 3715   4.393   0.118   2.735
 1158WAT     H1 3716   4.318   0.172   2.698
 1158WAT     H2 3717   4.356   0.043   2.790
 1159WAT      O 3718   5.794   2.032   5.954
 1159WAT     H1 3719   5.797   2.000   5.860
 1159WAT     H2 3720   5.759   1.960   6.014
 1160WAT      O 3721   2.645   2.688   6.124
 1160WAT     H1 3722   2.570   2.753   6.133
 1160WAT     H2 3723   2.723   2.733   6.079
 1161WAT      O 3724   7.236   6.004   8.722
 1161WAT     H1 3725   7.296   5.925   8.719
 1161WAT     H2 3726   7.142   5.975   8.706
 1162WAT      O 3727   1.316   1.936   8.821
 1162WAT     H1 3728   1.221   1.907   8.830
 1162WAT     H2 3729   1.369   1.903   8.899
 1163WAT      O 3730   8.399   6.071   1.849
 1163WAT     H1 3731   8.357   6.142   1.793
 1163WAT     H2 3732   8.370   6.080   1.944
 1164WAT      O 3733   9.038   6.837   2.526
 1164WAT     H1 3734   9.019   6.929   2.490
 1164WAT     H2 3735   9.041   6.772   2.450
 1165WAT      O 3736   1.028   0.423   8.064
 1165WAT     H1 3737   1.087   0.390   7.991
 1165WAT     H2 3738   0.945   0.367   8.068
 1166WAT      O 3739   2.730   0.591   1.930
 1166WAT     H1 3740   2.658   0.556   1.990
 1166WAT     H2 3741   2.819   0.580   1.974
 1167WAT      O 3742   5.304   5.698   8.037
 1167WAT     H1 3743   5.403   5.695   8.056
 1167WAT     H2 3744   5.277   5.791   8.015
 1168WAT      O 3745   3.435   2.809   4.051
 1168WAT     H1 3746   3.447   2.854   4.140
 1168WAT     H2 3747   3.357   2.748   4.055
 1169WAT      O 3748   5.623   9.533   8.982
 1169WAT     H1 3749   5.597   9.589   9.060
 1169WAT     H2 3750   5.708   9.568   8.942
 1170WAT      O 3751   8.985   4.156   0.652
 1170WAT     H1 3752   8.992   4.206   0.738
 1170WAT     H2 3753   9.075   4.153   0.608
 1171WAT      O 3754   9.100   8.010   3.506
 1171WAT     H1 3755   9.178   8.008   3.443
 1171WAT     H2 3756   9.113   7.942   3.578
 1172WAT      O 3757   3.951   8.759   0.147
 1172WAT     H1 3758   3.882   8.795   0.210
 1172WAT     H2 3759   4.042   8.775   0.185
 1173WAT      O 3760   2.534   5.568   9.073
 1173WAT     H1 3761   2.437   5.595   9.069
 1173WAT     H2 3762   2.591   5.651   9.075
 1174WAT      O 3763   4.216   5.279   9.444
 1174WAT     H1 3764   4.218   5.292   9.345
 1174WAT     H2 3765   4.270   5.198   9.468
 1175WAT      O 3766   2.800   4.999   5.041
 1175WAT     H1 3767   2.863   4.933   5.001
 1175WAT     H2 3768   2.714   4.953   5.066
 1176WAT      O 3769   4.721   6.714   4.457
 1176WAT     H1 3770   4.666   6.634   4.434
 1176WAT     H2 3771   4.757   6.756   4.374
 1177WAT      O 3772   1.207   4.961   7.278
 1177WAT     H1 3773   1.241   4.963   7.372
 1177WAT     H2 3774   1.108   4.974   7.278
 1178WAT      O 3775   4.308   9.529   4.871
 1178WAT     H1 3776   4.381   9.525   4.802
 1178WAT     H2 3777   4.311   9.447   4.928
 1179WAT      O 3778   3.375   5.452   7.330
 1179WAT     H1 3779   3.386   5.444   7.429
 1179WAT     H2 3780   3.300   5.515   7.310
 1180WAT      O 3781   9.844   8.670   8.988
 1180WAT     H1 3782   9.866   8.659   9.085
 1180WAT     H2 3783   9.878   8.759   8.956
 1181WAT      O 3784   4.346   3.921   9.687
 1181WAT     H1 3785   4.400   3.957   9.763
 1181WAT     H2 3786   4.386   3.951   9.600
 1182WAT      O 3787   3.919   4.439   2.904
 1182WAT     H1 3788   4.016   4.445   2.881
 1182WAT     H2 3789   3.866   4.496   2.841
 1183WAT      O 3790   3.314   4.531   5.458
 1183WAT     H1 3791   3.335   4.575   5.371
 1183WAT     H2 3792   3.214   4.524   5.467
 1184WAT      O 3793   0.422   8.389   8.033
 1184WAT     H1 3794   0.343   8.406   7.974
 1184WAT     H2 3795   0.465   8.476   8.057
 1185WAT      O 3796   2.859   2.468   2.683
 1185WAT     H1 3797   2.853   2.369   2.674
 1185WAT     H2 3798   2.906   2.506   2.603
 1186WAT      O 3799   6.836   4.426   0.663
 1186WAT     H1 3800   6.769   4.425   0.589
 1186WAT     H2 3801   6.818   4.504   0.723
 1187WAT      O 3802   2.813   9.249   6.208
 1187WAT     H1 3803   2.816   9.185   6.131
 1187WAT     H2 3804   2.741   9.317   6.192
 1188WAT      O 3805   8.103   3.327   6.725
 1188WAT     H1 3806   8.025   3.354   6.668
 1188WAT     H2 3807   8.070   3.273   6.803
 1189WAT      O 3808   6.991   4.015   8.083
 1189WAT     H1 3809   6.903   4.002   8.036
 1189WAT     H2 3810   7.063   4.032   8.016
 1190WAT      O 3811   8.209   6.606   9.386
 1190WAT     H1 3812   8.202   6.535   9.316
 1190WAT     H2 3813   8.193   6.565   9.476
 1191WAT      O 3814   7.843   9.212   2.298
 1191WAT     H1 3815   7.762   9.194   2.242
 1191WAT     H2 3816   7.840   9.307   2.330
 1192WAT      O 3817   8.950   6.796   4.108
 1192WAT     H1 3818   9.008   6.728   4.064
 1192WAT     H2 3819   9.002   6.881   4.121
 1193WAT      O 3820   3.375   6.138   4.816
 1193WAT     H1 3821   3.306   6.130   4.744
 1193WAT     H2 3822   3.464   6.113   4.780
 1194WAT      O 3823   9.685   5.829   2.120
 1194WAT     H1 3824   9.662   5.773   2.200
 1194WAT     H2 3825   9.768   5.792   2.077
 1195WAT      O 3826   1.976   0.760   1.640
 1195WAT     H1 3827   2.063   0.798   1.609
 1195WAT     H2 3828   1.902   0.794   1.583
 1196WAT      O 3829   8.742   3.932   9.289
 1196WAT     H1 3830   8.810   3.951   9.359
 1196WAT     H2 3831   8.787   3.921   9.200
 1197WAT      O 3832   8.383   9.043   2.515
 1197WAT     H1 3833   8.287   9.071   2.517
 1197WAT     H2 3834   8.418   9.037   2.608
 1198WAT      O 3835   2.938   2.953   8.319
 1198WAT     H1 3836   2.876   2.907   8.256
 1198WAT     H2 3837   3.030   2.955   8.281
 1199WAT      O 3838   3.976   5.965   2.944
 1199WAT     H1 3839   3.977   5.865   2.949
 1199WAT     H2 3840   4.050   6.002   3.000
 1200WAT      O 3841   4.994   5.254   0.763
 1200WAT     H1 3842   5.051   5.215   0.835
 1200WAT     H2 3843   4.919   5.191   0.743
 1201WAT      O 3844   4.801   9.047   3.161
 1201WAT     H1 3845   4.900   9.042   3.172
 1201WAT     H2 3846   4.758   8.975   3.215
 1202WAT      O 3847   4.834   7.801   1.345
 1202WAT     H1 3848   4.823   7.899   1.327
 1202WAT     H2 3849   4.744   7.759   1.357
 1203WAT      O 3850   0.962   5.365   7.095
 1203WAT     H1 3851   1.008   5.448   7.060
 1203WAT     H2 3852   1.031   5.294   7.112
 1204WAT      O 3853   4.150   9.708   6.466
 1204WAT     H1 3854   4.148   9.800   6.505
 1204WAT     H2 3855   4.066   9.691   6.415
 1205WAT      O 3856   6.103   7.691   9.694
 1205WAT     H1 3857   6.180   7.664   9.637
 1205WAT     H2 3858   6.115   7.655   9.786
 1206WAT      O 3859   6.117   9.041   5.642
 1206WAT     H1 3860   6.128   9.060   5.739
 1206WAT     H2 3861   6.059   8.960   5.630
 1207WAT      O 3862   7.223   6.159   4.536
 1207WAT     H1 3863   7.280   6.191   4.460
 1207WAT     H2 3864   7.158   6.091   4.503
 1208WAT      O 3865   3.694   6.803   8.826
 1208WAT     H1 3866   3.696   6.725   8.762
 1208WAT     H2 3867   3.643   6.878   8.785
 1209WAT      O 3868   0.667   5.712   4.032
 1209WAT     H1 3869   0.595   5.643   4.033
 1209WAT     H2 3870   0.633   5.797   4.073
 1210WAT      O 3871   4.691   6.631   3.047
 1210WAT     H1 3872   4.706   6.729   3.060
 1210WAT     H2 3873   4.593   6.612   3.050
 1211WAT      O 3874   3.958   0.539   2.552
 1211WAT     H1 3875   3.989   0.472   2.620
 1211WAT     H2 3876   3.863   0.563   2.570
 1212WAT      O 3877   4.050   2.484   6.864
 1212WAT     H1 3878   4.144   2.501   6.834
 1212WAT     H2 3879   4.023   2.392   6.838
 1213WAT      O 3880   1.327   9.150   7.911
 1213WAT     H1 3881   1.423   9.137   7.887
 1213WAT     H2 3882   1.305   9.095   7.991
 1214WAT      O 3883   6.190   6.927   9.093
 1214WAT     H1 3884   6.265   6.966   9.146
 1214WAT     H2 3885   6.113   6.992   9.092
 1215WAT      O 3886   1.668   6.375   8.685
 1215WAT     H1 3887   1.738   6.307   8.665
 1215WAT     H2 3888   1.654   6.380   8.784
 1216WAT      O 3889   0.785   8.209   0.353
 1216WAT     H1 3890   0.686   8.205   0.368
 1216WAT     H2 3891   0.829   8.252   0.431
 1217WAT      O 3892   3.912   1.982   8.645
 1217WAT     H1 3893   3.902   1.918   8.569
 1217WAT     H2 3894   3.939   1.932   8.727
 1218WAT      O 3895   3.086   5.531   3.761
 1218WAT     H1 3896   3.041   5.525   3.672
 1218WAT     H2 3897   3.184   5.520   3.750
 1219WAT      O 3898   2.442   4.992   2.144
 1219WAT     H1 3899   2.475   5.079   2.180
 1219WAT     H2 3900   2.360   5.007   2.089
 1220WAT      O 3901   9.667   7.325   6.288
 1220WAT     H1 3902   9.620   7.370   6.212
 1220WAT     H2 3903   9.678   7.389   6.364
 1221WAT      O 3904   9.127   9.004   3.670
 1221WAT     H1 3905   9.215   8.961   3.651
 1221WAT     H2 3906   9.113   9.009   3.769
 1222WAT      O 3907   6.228   0.533   1.216
 1222WAT     H1 3908   6.137   0.501   1.190
 1222WAT     H2 3909   6.294   0.459   1.204
 1223WAT      O 3910   5.549   7.544   9.135
 1223WAT     H1 3911   5.546   7.640   9.161
 1223WAT     H2 3912   5.464   7.499   9.161
 1224WAT      O 3913   0.009   6.968   5.537
 1224WAT     H1 3914  -0.043   6.899   5.588
 1224WAT     H2 3915   0.086   7.000   5.592
 1225WAT      O 3916   5.296   4.174   7.093
 1225WAT     H1 3917   5.276   4.168   7.191
 1225WAT     H2 3918   5.319   4.269   7.070
 1226WAT      O 3919   0.742   5.932   3.462
 1226WAT     H1 3920   0.821   5.878   3.492
 1226WAT     H2 3921   0.687   5.878   3.398
 1227WAT      O 3922   2.635   5.710   9.596
 1227WAT     H1 3923   2.669   5.649   9.667
 1227WAT     H2 3924   2.671   5.802   9.611
 1228WAT      O 3925   2.224   2.736   1.999
 1228WAT     H1 3926   2.135   2.694   1.983
 1228WAT     H2 3927   2.283   2.721   1.919
 1229WAT      O 3928   4.560   0.893   2.750
 1229WAT     H1 3929   4.510   0.866   2.833
 1229WAT     H2 3930   4.514   0.857   2.670
 1230WAT      O 3931   4.040   0.466   4.124
 1230WAT     H1 3932   3.999   0.556   4.135
 1230WAT     H2 3933   4.135   0.476   4.095
 1231WAT      O 3934   8.215   7.266   1.246
 1231WAT     H1 3935   8.237   7.175   1.282
 1231WAT     H2 3936   8.232   7.334   1.317
 1232WAT      O 3937   9.380   3.228   7.794
 1232WAT     H1 3938   9.285   3.198   7.802
 1232WAT     H2 3939   9.409   3.270   7.880
 1233WAT      O 3940   2.776   7.648   5.993
 1233WAT     H1 3941   2.875   7.649   5.983
 1233WAT     H2 3942   2.734   7.703   5.920
 1234WAT      O 3943   6.158   5.672   7.145
 1234WAT     H1 3944   6.099   5.593   7.159
 1234WAT     H2 3945   6.195   5.670   7.052
 1235WAT      O 3946   0.916   9.675   4.566
 1235WAT     H1 3947   0.885   9.711   4.654
 1235WAT     H2 3948   0.944   9.580   4.577
 1236WAT      O 3949   1.796   2.958   8.685
 1236WAT     H1 3950   1.718   3.007   8.724
 1236WAT     H2 3951   1.764   2.895   8.614
 1237WAT      O 3952   1.494   2.399   3.050
 1237WAT     H1 3953   1.532   2.485   3.086
 1237WAT     H2 3954   1.537   2.322   3.097
 1238WAT      O 3955   9.539   5.480   8.254
 1238WAT     H1 3956   9.623   5.436   8.225
 1238WAT     H2 3957   9.480   5.496   8.175
 1239WAT      O 3958   8.564   4.073   3.342
 1239WAT     H1 3959   8.557   3.993   3.283
 1239WAT     H2 3960   8.602   4.149   3.291
 1240WAT      O 3961   2.723   5.760   9.080
 1240WAT     H1 3962   2.743   5.818   9.001
 1240WAT     H2 3963   2.793   5.772   9.150
 1241WAT      O 3964   9.138   7.830   0.551
 1241WAT     H1 3965   9.189   7.916   0.552
 1241WAT     H2 3966   9.057   7.840   0.493
 1242WAT      O 3967   3.840   1.197   8.546
 1242WAT     H1 3968   3.891   1.152   8.619
 1242WAT     H2 3969   3.791   1.276   8.582
 1243WAT      O 3970   3.496   7.219   3.106
 1243WAT     H1 3971   3.407   7.250   3.071
 1243WAT     H2 3972   3.493   7.219   3.206
 1244WAT      O 3973   2.404   7.050   9.866
 1244WAT     H1 3974   2.344   6.983   9.909
 1244WAT     H2 3975   2.459   7.004   9.795
 1245WAT      O 3976   3.860   9.271   4.423
 1245WAT     H1 3977   3.866   9.206   4.348
 1245WAT     H2 3978   3.869   9.223   4.510
 1246WAT      O 3979   7.780   5.672   0.640
 1246WAT     H1 3980   7.766   5.757   0.691
 1246WAT     H2 3981   7.692   5.633   0.615
 1247WAT      O 3982   6.552   6.128   1.769
 1247WAT     H1 3983   6.482   6.107   1.700
 1247WAT     H2 3984   6.536   6.072   1.850
 1248WAT      O 3985   8.161   0.876   2.405
 1248WAT     H1 3986   8.102   0.855   2.327
 1248WAT     H2 3987   8.111   0.859   2.490
 1249WAT      O 3988   0.815   5.209   4.078
 1249WAT     H1 3989   0.885   5.280   4.087
 1249WAT     H2 3990   0.774   5.214   3.987
 1250WAT      O 3991   4.694   1.985   2.772
 1250WAT     H1 3992   4.713   2.081   2.752
 1250WAT     H2 3993   4.608   1.958   2.730
 1251WAT      O 3994   3.398   8.462   4.507
 1251WAT     H1 3995   3.460   8.499   4.576
 1251WAT     H2 3996   3.443   8.386   4.459
 1252WAT      O 3997   7.606   5.434   7.877
 1252WAT     H1 3998   7.569   5.438   7.970
 1252WAT     H2 3999   7.565   5.508   7.822
 1253WAT      O 4000   4.868   8.756   2.053
 1253WAT     H1 4001   4.800   8.829   2.064
 1253WAT     H2 4002   4.821   8.669   2.037
 1254WAT      O 4003   0.500   1.092   9.246
 1254WAT     H1 4004   0.568   1.026   9.278
 1254WAT     H2 4005   0.439   1.116   9.321
 1255WAT      O 4006   8.345   2.447   2.309
 1255WAT     H1 4007   8.262   2.479   2.262
 1255WAT     H2 4008   8.423   2.455   2.248
 1256WAT      O 4009   6.125   5.199   3.118
 1256WAT     H1 4010   6.091   5.234   3.205
 1256WAT     H2 4011   6.209   5.147   3.133
 1257WAT      O 4012   7.201   7.690   6.084
 1257WAT     H1 4013   7.188   7.723   6.178
 1257WAT     H2 4014   7.112   7.686   6.038
 1258WAT      O 4015   7.659   9.559   8.809
 1258WAT     H1 4016   7.677   9.556   8.710
 1258WAT     H2 4017   7.696   9.644   8.846
 1259WAT      O 4018   5.689   5.662   1.521
 1259WAT     H1 4019   5.668   5.616   1.435
 1259WAT     H2 4020   5.726   5.753   1.503
 1260WAT      O 4021   1.454   1.854   7.687
 1260WAT     H1 4022   1.409   1.772   7.723
 1260WAT     H2 4023   1.494   1.832   7.598
 1261WAT      O 4024   3.414   7.706   8.962
 1261WAT     H1 4025   3.473   7.768   8.912
 1261WAT     H2 4026   3.359   7.653   8.898
 1262WAT      O 4027   1.772   1.022   5.556
 1262WAT     H1 4028   1.673   1.032   5.559
 1262WAT     H2 4029   1.795   0.925   5.552
 1263WAT      O 4030   6.195   8.962   7.132
 1263WAT     H1 4031   6.285   8.919   7.136
 1263WAT     H2 4032   6.126   8.897   7.165
 1264WAT      O 4033   1.671   1.990   2.791
 1264WAT     H1 4034   1.590   2.048   2.802
 1264WAT     H2 4035   1.668   1.945   2.701
 1265WAT      O 4036   5.764   6.275   9.265
 1265WAT     H1 4037   5.685   6.226   9.301
 1265WAT     H2 4038   5.836   6.211   9.240
 1266WAT      O 4039   0.956   9.451   9.775
 1266WAT     H1 4040   0.919   9.453   9.682
 1266WAT     H2 4041   1.054   9.466   9.773
 1267WAT      O 4042   7.933   4.662   4.070
 1267WAT     H1 4043   7.889   4.582   4.030
 1267WAT     H2 4044   8.032   4.648   4.074
 1268WAT      O 4045   5.028   2.698   7.864
 1268WAT     H1 4046   5.100   2.756   7.903
 1268WAT     H2 4047   5.069   2.615   7.826
 1269WAT      O 4048   6.881   0.434   0.804
 1269WAT     H1 4049   6.883   0.502   0.731
 1269WAT     H2 4050   6.962   0.376   0.798
 1270WAT      O 4051   6.292   3.531   4.417
 1270WAT     H1 4052   6.243   3.555   4.334
 1270WAT     H2 4053   6.390   3.551   4.405
 1271WAT      O 4054   6.430   8.234   8.498
 1271WAT     H1 4055   6.441   8.334   8.497
 1271WAT     H2 4056   6.355   8.210   8.560
 1272WAT      O 4057   9.766   1.525   1.554
 1272WAT     H1 4058   9.706   1.598   1.587
 1272WAT     H2 4059   9.837   1.507   1.621
 1273WAT      O 4060   2.052   2.447   3.082
 1273WAT     H1 4061   2.088   2.540   3.090
 1273WAT     H2 4062   1.969   2.439   3.136
 1274WAT      O 4063   6.410   1.561   0.542
 1274WAT     H1 4064   6.339   1.619   0.503
 1274WAT     H2 4065   6.423   1.583   0.638
 1275WAT      O 4066   0.199   7.881   9.173
 1275WAT     H1 4067   0.122   7.824   9.145
 1275WAT     H2 4068   0.218   7.867   9.270
 1276WAT      O 4069   3.449   0.552   2.802
 1276WAT     H1 4070   3.365   0.568   2.750
 1276WAT     H2 4071   3.522   0.524   2.740
 1277WAT      O 4072   3.810   8.222   1.358
 1277WAT     H1 4073   3.878   8.291   1.383
 1277WAT     H2 4074   3.719   8.263   1.359
 1278WAT      O 4075   7.081   5.825   9.433
 1278WAT     H1 4076   7.139   5.743   9.441
 1278WAT     H2 4077   7.106   5.875   9.350
 1279WAT      O 4078   6.395   6.212   9.283
 1279WAT     H1 4079   6.401   6.139   9.351
 1279WAT     H2 4080   6.326   6.278   9.310
 1280WAT      O 4081   7.679   1.434   5.007
 1280WAT     H1 4082   7.586   1.470   4.996
 1280WAT     H2 4083   7.745   1.500   4.970
 1281WAT      O 4084   5.277   2.395   7.274
 1281WAT     H1 4085   5.359   2.452   7.275
 1281WAT     H2 4086   5.259   2.365   7.180
 1282WAT      O 4087   1.782   9.187   5.574
 1282WAT     H1 4088   1.776   9.259   5.643
 1282WAT     H2 4089   1.693   9.145   5.561
 1283WAT      O 4090   3.579   2.309   3.342
 1283WAT     H1 4091   3.518   2.379   3.306
 1283WAT     H2 4092   3.527   2.240   3.393
 1284WAT      O 4093   6.933   7.210   2.322
 1284WAT     H1 4094   6.938   7.123   2.274
 1284WAT     H2 4095   6.840   7.246   2.316
 1285WAT      O 4096   3.219   0.722   8.397
 1285WAT     H1 4097   3.129   0.680   8.388
 1285WAT     H2 4098   3.223   0.805   8.342
 1286WAT      O 4099   5.158   6.660   3.872
 1286WAT     H1 4100   5.220   6.613   3.809
 1286WAT     H2 4101   5.096   6.719   3.821
 1287WAT      O 4102   9.566   5.197   7.848
 1287WAT     H1 4103   9.620   5.187   7.765
 1287WAT     H2 4104   9.521   5.111   7.870
 1288WAT      O 4105   3.794   5.637   5.838
 1288WAT     H1 4106   3.736   5.558   5.815
 1288WAT     H2 4107   3.804   5.695   5.757
 1289WAT      O 4108   0.215   6.769   6.263
 1289WAT     H1 4109   0.147   6.720   6.209
 1289WAT     H2 4110   0.295   6.789   6.205
 1290WAT      O 4111   4.113   8.837   5.282
 1290WAT     H1 4112   4.149   8.782   5.207
 1290WAT     H2 4113   4.128   8.789   5.368
 1291WAT      O 4114   1.742   3.957   1.396
 1291WAT     H1 4115   1.800   4.035   1.374
 1291WAT     H2 4116   1.650   3.972   1.361
 1292WAT      O 4117   6.248   2.465   5.362
 1292WAT     H1 4118   6.216   2.556   5.389
 1292WAT     H2 4119   6.304   2.426   5.435
 1293WAT      O 4120   2.490   2.212   8.541
 1293WAT     H1 4121   2.537   2.169   8.463
 1293WAT     H2 4122   2.490   2.148   8.618
 1294WAT      O 4123   6.876   2.065   8.412
 1294WAT     H1 4124   6.870   2.031   8.318
 1294WAT     H2 4125   6.791   2.044   8.460
 1295WAT      O 4126   7.740   3.379   3.568
 1295WAT     H1 4127   7.810   3.420   3.509
 1295WAT     H2 4128   7.693   3.450   3.619
 1296WAT      O 4129   5.025   2.676   3.191
 1296WAT     H1 4130   5.058   2.643   3.280
 1296WAT     H2 4131   5.013   2.775   3.195
 1297WAT      O 4132   3.430   1.711   2.586
 1297WAT     H1 4133   3.462   1.806   2.584
 1297WAT     H2 4134   3.339   1.705   2.546
 1298WAT      O 4135   1.195   1.855   3.199
 1298WAT     H1 4136   1.168   1.823   3.109
 1298WAT     H2 4137   1.281   1.811   3.226
 1299WAT      O 4138   6.964   7.028   7.818
 1299WAT     H1 4139   6.962   7.114   7.767
 1299WAT     H2 4140   6.881   7.021   7.874
 1300WAT      O 4141   1.054   6.841   6.825
 1300WAT     H1 4142   1.046   6.922   6.884
 1300WAT     H2 4143   1.060   6.870   6.730
 1301WAT      O 4144   8.991   2.573   9.761
 1301WAT     H1 4145   9.072   2.627   9.784
 1301WAT     H2 4146   8.923   2.632   9.718
 1302WAT      O 4147   3.953   5.466   2.769
 1302WAT     H1 4148   4.051   5.482   2.778
 1302WAT     H2 4149   3.913   5.535   2.707
 1303WAT      O 4150   9.399   6.877   7.942
 1303WAT     H1 4151   9.433   6.911   7.854
 1303WAT     H2 4152   9.398   6.952   8.008
 1304WAT      O 4153   7.593   3.140   9.687
 1304WAT     H1 4154   7.654   3.063   9.709
 1304WAT     H2 4155   7.598   3.160   9.590
 1305WAT      O 4156   1.349   0.295   4.399
 1305WAT     H1 4157   1.257   0.279   4.363
 1305WAT     H2 4158   1.343   0.350   4.483
 1306WAT      O 4159   2.797   2.034   0.422
 1306WAT     H1 4160   2.857   2.113   0.410
 1306WAT     H2 4161   2.702   2.062   0.409
 1307WAT      O 4162   0.977   7.501   9.487
 1307WAT     H1 4163   1.015   7.578   9.436
 1307WAT     H2 4164   0.877   7.505   9.484
 1308WAT      O 4165   2.242   0.290   6.011
 1308WAT     H1 4166   2.291   0.377   6.002
 1308WAT     H2 4167   2.301   0.223   6.054
 1309WAT      O 4168   7.055   5.999   2.952
 1309WAT     H1 4169   6.971   5.963   2.992
 1309WAT     H2 4170   7.033   6.048   2.867
 1310WAT      O 4171   8.402   4.482   0.255
 1310WAT     H1 4172   8.365   4.569   0.222
 1310WAT     H2 4173   8.429   4.492   0.351
 1311WAT      O 4174   1.494   1.904   5.773
 1311WAT     H1 4175   1.396   1.922   5.760
 1311WAT     H2 4176   1.527   1.958   5.850
 1312WAT      O 4177   2.396   0.922   0.084
 1312WAT     H1 4178   2.495   0.939   0.075
 1312WAT     H2 4179   2.346   0.987   0.027
 1313WAT      O 4180   2.505   4.456   5.349
 1313WAT     H1 4181   2.567   4.510   5.405
 1313WAT     H2 4182   2.414   4.455   5.391
 1314WAT      O 4183   4.817   7.874   8.856
 1314WAT     H1 4184   4.807   7.827   8.768
 1314WAT     H2 4185   4.764   7.959   8.855
 1315WAT      O 4186   7.353   2.886   9.244
 1315WAT     H1 4187   7.420   2.835   9.298
 1315WAT     H2 4188   7.271   2.901   9.299
 1316WAT      O 4189   1.950   2.595   6.878
 1316WAT     H1 4190   1.978   2.667   6.815
 1316WAT     H2 4191   2.030   2.558   6.925
 1317WAT      O 4192   6.287   6.574   6.624
 1317WAT     H1 4193   6.301   6.533   6.534
 1317WAT     H2 4194   6.264   6.671   6.613
 1318WAT      O 4195   5.670   6.680   1.789
 1318WAT     H1 4196   5.611   6.628   1.728
 1318WAT     H2 4197   5.646   6.660   1.884
 1319WAT      O 4198   8.978   7.882   5.523
 1319WAT     H1 4199   9.020   7.960   5.569
 1319WAT     H2 4200   8.926   7.829   5.589
 1320WAT      O 4201   4.916   2.700   9.387
 1320WAT     H1 4202   4.935   2.769   9.458
 1320WAT     H2 4203   5.000   2.652   9.364
 1321WAT      O 4204   0.346   1.353   3.743
 1321WAT     H1 4205   0.423   1.320   3.797
 1321WAT     H2 4206   0.379   1.414   3.671
 1322WAT      O 4207   2.020   7.973   2.510
 1322WAT     H1 4208   2.028   8.072   2.498
 1322WAT     H2 4209   2.108   7.929   2.491
 1323WAT      O 4210   6.836   2.607   1.702
 1323WAT     H1 4211   6.768   2.626   1.772
 1323WAT     H2 4212   6.916   2.665   1.716
 1324WAT      O 4213   8.748   6.070   7.838
 1324WAT     H1 4214   8.827   6.121   7.805
 1324WAT     H2 4215   8.749   5.978   7.801
 1325WAT      O 4216   8.582   5.311   3.541
 1325WAT     H1 4217   8.525   5.390   3.520
 1325WAT     H2 4218   8.552   5.232   3.489
 1326WAT      O 4219   0.569   1.205   7.096
 1326WAT     H1 4220   0.630   1.271   7.141
 1326WAT     H2 4221   0.573   1.118   7.144
 1327WAT      O 4222   3.209   5.593   9.367
 1327WAT     H1 4223   3.114   5.570   9.392
 1327WAT     H2 4224   3.233   5.682   9.406
 1328WAT      O 4225   5.033   5.715   0.422
 1328WAT     H1 4226   4.963   5.643   0.434
 1328WAT     H2 4227   5.047   5.732   0.325
 1329WAT      O 4228   2.251   4.343   4.207
 1329WAT     H1 4229   2.223   4.418   4.147
 1329WAT     H2 4230   2.221   4.363   4.301
 1330WAT      O 4231   5.525   3.745   9.572
 1330WAT     H1 4232   5.597   3.753   9.640
 1330WAT     H2 4233   5.470   3.829   9.571
 1331WAT      O 4234   6.264   3.301   8.443
 1331WAT     H1 4235   6.345   3.294   8.501
 1331WAT     H2 4236   6.258   3.220   8.384
 1332WAT      O 4237   1.868   1.552   4.227
 1332WAT     H1 4238   1.892   1.608   4.148
 1332WAT     H2 4239   1.939   1.483   4.242
 1333WAT      O 4240   3.723   4.055   3.858
 1333WAT     H1 4241   3.692   4.139   3.903
 1333WAT     H2 4242   3.736   4.073   3.761
 1334WAT      O 4243   4.168   4.304   6.041
 1334WAT     H1 4244   4.248   4.306   5.982
 1334WAT     H2 4245   4.142   4.209   6.058
 1335WAT      O 4246   5.342   7.424   4.581
 1335WAT     H1 4247   5.243   7.410   4.570
 1335WAT     H2 4248   5.387   7.335   4.592
 1336WAT      O 4249   4.608   8.699   4.849
 1336WAT     H1 4250   4.550   8.753   4.909
 1336WAT     H2 4251   4.686   8.754   4.819
 1337WAT      O 4252   6.376   2.830   3.513
 1337WAT     H1 4253   6.414   2.864   3.599
 1337WAT     H2 4254   6.402   2.734   3.501
 1338WAT      O 4255   7.074   2.348   0.651
 1338WAT     H1 4256   7.040   2.441   0.668
 1338WAT     H2 4257   7.012   2.301   0.588
 1339WAT      O 4258   8.175   2.627   4.648
 1339WAT     H1 4259   8.116   2.682   4.589
 1339WAT     H2 4260   8.180   2.534   4.613
 1340WAT      O 4261   2.880   1.881   8.300
 1340WAT     H1 4262   2.901   1.863   8.397
 1340WAT     H2 4263   2.956   1.931   8.258
 1341WAT      O 4264   8.123   1.954   8.591
 1341WAT     H1 4265   8.078   1.881   8.540
 1341WAT     H2 4266   8.129   2.036   8.535
 1342WAT      O 4267   2.550   7.151   8.559
 1342WAT     H1 4268   2.477   7.143   8.492
 1342WAT     H2 4269   2.520   7.113   8.647
 1343WAT      O 4270   3.997   6.157   5.965
 1343WAT     H1 4271   3.991   6.257   5.964
 1343WAT     H2 4272   3.962   6.121   6.051
 1344WAT      O 4273   5.775   2.529   3.464
 1344WAT     H1 4274   5.741   2.623   3.470
 1344WAT     H2 4275   5.828   2.518   3.381
 1345WAT      O 4276   9.758   8.951   4.010
 1345WAT     H1 4277   9.788   8.968   3.916
 1345WAT     H2 4278   9.825   8.990   4.074
 1346WAT      O 4279   2.106   5.313   1.025
 1346WAT     H1 4280   2.035   5.352   1.083
 1346WAT     H2 4281   2.064   5.246   0.963
 1347WAT      O 4282   6.693   2.683   1.047
 1347WAT     H1 4283   6.690   2.670   0.948
 1347WAT     H2 4284   6.619   2.631   1.090
 1348WAT      O 4285   3.152   1.892   1.041
 1348WAT     H1 4286   3.207   1.933   0.968
 1348WAT     H2 4287   3.101   1.964   1.089
 1349WAT      O 4288   9.375   9.531   0.945
 1349WAT     H1 4289   9.336   9.552   1.035
 1349WAT     H2 4290   9.475   9.532   0.951
 1350WAT      O 4291   7.489   6.476   9.047
 1350WAT     H1 4292   7.577   6.483   9.000
 1350WAT     H2 4293   7.454   6.568   9.068
 1351WAT      O 4294   5.566   7.136   4.219
 1351WAT     H1 4295   5.610   7.225   4.212
 1351WAT     H2 4296   5.619   7.068   4.168
 1352WAT      O 4297   4.621   4.245   6.221
 1352WAT     H1 4298   4.588   4.320   6.279
 1352WAT     H2 4299   4.574   4.161   6.246
 1353WAT      O 4300   9.750   0.781   4.862
 1353WAT     H1 4301   9.775   0.783   4.765
 1353WAT     H2 4302   9.695   0.700   4.881
 1354WAT      O 4303   0.173   6.045   0.509
 1354WAT     H1 4304   0.224   6.103   0.444
 1354WAT     H2 4305   0.219   5.957   0.518
 1355WAT      O 4306   8.385   8.855   9.580
 1355WAT     H1 4307   8.390   8.800   9.663
 1355WAT     H2 4308   8.338   8.804   9.508
 1356WAT      O 4309   6.671   5.386   4.207
 1356WAT     H1 4310   6.725   5.469   4.216
 1356WAT     H2 4311   6.696   5.322   4.280
 1357WAT      O 4312   3.549   4.020   9.828
 1357WAT     H1 4313   3.618   3.988   9.763
 1357WAT     H2 4314   3.519   4.111   9.801
 1358WAT      O 4315   8.687   6.177   0.090
 1358WAT     H1 4316   8.595   6.215   0.080
 1358WAT     H2 4317   8.738   6.190   0.004
 1359WAT      O 4318   0.543   2.431   8.567
 1359WAT     H1 4319   0.446   2.423   8.589
 1359WAT     H2 4320   0.565   2.368   8.493
 1360WAT      O 4321   0.430   5.408   7.698
 1360WAT     H1 4322   0.369   5.426   7.620
 1360WAT     H2 4323   0.389   5.446   7.781
 1361WAT      O 4324   9.541   3.869   9.265
 1361WAT     H1 4325   9.603   3.797   9.232
 1361WAT     H2 4326   9.489   3.834   9.343
 1362WAT      O 4327   0.687   5.764   5.329
 1362WAT     H1 4328   0.780   5.798   5.316
 1362WAT     H2 4329   0.665   5.698   5.257
 1363WAT      O 4330   5.092   2.410   2.887
 1363WAT     H1 4331   4.992   2.402   2.888
 1363WAT     H2 4332   5.118   2.501   2.919
 1364WAT      O 4333   0.157   8.453   3.005
 1364WAT     H1 4334   0.230   8.435   2.939
 1364WAT     H2 4335   0.093   8.520   2.968
 1365WAT      O 4336   0.067   3.166   3.191
 1365WAT     H1 4337  -0.022   3.135   3.224
 1365WAT     H2 4338   0.097   3.246   3.244
 1366WAT      O 4339   4.077   0.671   9.227
 1366WAT     H1 4340   3.988   0.695   9.266
 1366WAT     H2 4341   4.107   0.584   9.267
 1367WAT      O 4342   6.671   3.706   3.911
 1367WAT     H1 4343   6.576   3.731   3.891
 1367WAT     H2 4344   6.704   3.641   3.843
 1368WAT      O 4345   6.708   9.471   9.466
 1368WAT     H1 4346   6.645   9.522   9.525
 1368WAT     H2 4347   6.657   9.436   9.386
 1369WAT      O 4348   8.264   1.399   1.241
 1369WAT     H1 4349   8.201   1.418   1.315
 1369WAT     H2 4350   8.230   1.321   1.188
 1370WAT      O 4351   3.909   0.428   7.087
 1370WAT     H1 4352   3.856   0.491   7.030
 1370WAT     H2 4353   3.865   0.339   7.087
 1371WAT      O 4354   9.594   0.469   6.604
 1371WAT     H1 4355   9.544   0.383   6.601
 1371WAT     H2 4356   9.576   0.522   6.521
 1372WAT      O 4357   8.726   4.617   1.937
 1372WAT     H1 4358   8.814   4.662   1.953
 1372WAT     H2 4359   8.669   4.676   1.879
 1373WAT      O 4360   2.496   7.375   3.436
 1373WAT     H1 4361   2.423   7.309   3.417
 1373WAT     H2 4362   2.567   7.367   3.366
 1374WAT      O 4363   4.963   1.900   1.385
 1374WAT     H1 4364   4.883   1.847   1.412
 1374WAT     H2 4365   5.020   1.917   1.466
 1375WAT      O 4366   6.884   0.310   5.047
 1375WAT     H1 4367   6.961   0.373   5.035
 1375WAT     H2 4368   6.857   0.273   4.959
 1376WAT      O 4369   1.400   7.146   6.874
 1376WAT     H1 4370   1.355   7.197   6.947
 1376WAT     H2 4371   1.354   7.163   6.788
 1377WAT      O 4372   4.955   8.434   7.799
 1377WAT     H1 4373   4.948   8.437   7.700
 1377WAT     H2 4374   4.987   8.522   7.833
 1378WAT      O 4375   4.552   3.440   4.395
 1378WAT     H1 4376   4.524   3.368   4.331
 1378WAT     H2 4377   4.643   3.472   4.370
 1379WAT      O 4378   7.065   1.576   3.126
 1379WAT     H1 4379   6.978   1.600   3.169
 1379WAT     H2 4380   7.048   1.526   3.041
 1380WAT      O 4381   3.861   9.522   5.961
 1380WAT     H1 4382   3.928   9.587   5.997
 1380WAT     H2 4383   3.813   9.479   6.038
 1381WAT      O 4384   4.083   7.077   1.897
 1381WAT     H1 4385   4.059   7.150   1.961
 1381WAT     H2 4386   4.001   7.026   1.871
 1382WAT      O 4387   3.137   5.176   4.355
 1382WAT     H1 4388   3.156   5.258   4.408
 1382WAT     H2 4389   3.074   5.117   4.405
 1383WAT      O 4390   2.855   1.428   4.996
 1383WAT     H1 4391   2.855   1.528   4.999
 1383WAT     H2 4392   2.855   1.391   5.089
 1384WAT      O 4393   8.896   2.978   2.559
 1384WAT     H1 4394   8.984   2.963   2.515
 1384WAT     H2 4395   8.866   3.072   2.542
 1385WAT      O 4396   6.259   4.125   9.535
 1385WAT     H1 4397   6.276   4.029   9.558
 1385WAT     H2 4398   6.160   4.141   9.536
 1386WAT      O 4399   6.734   6.264   7.871
 1386WAT     H1 4400   6.753   6.356   7.905
 1386WAT     H2 4401   6.752   6.259   7.773
 1387WAT      O 4402   6.585   4.837   0.728
 1387WAT     H1 4403   6.490   4.815   0.707
 1387WAT     H2 4404   6.607   4.928   0.692
 1388WAT      O 4405   6.960   0.514   7.431
 1388WAT     H1 4406   6.878   0.464   7.405
 1388WAT     H2 4407   6.955   0.537   7.528
 1389WAT      O 4408   6.072   7.815   8.387
 1389WAT     H1 4409   6.064   7.726   8.342
 1389WAT     H2 4410   6.081   7.886   8.317
 1390WAT      O 4411   3.318   7.106   6.149
 1390WAT     H1 4412   3.400   7.149   6.113
 1390WAT     H2 4413   3.305   7.132   6.244
 1391WAT      O 4414   7.784   4.241   9.663
 1391WAT     H1 4415   7.843   4.317   9.689
 1391WAT     H2 4416   7.693   4.254   9.703
 1392WAT      O 4417   5.427   0.461   2.200
 1392WAT     H1 4418   5.438   0.515   2.283
 1392WAT     H2 4419   5.374   0.378   2.221
 1393WAT      O 4420   4.044   2.518   3.750
 1393WAT     H1 4421   4.114   2.546   3.683
 1393WAT     H2 4422   3.956   2.509   3.703
 1394WAT      O 4423   1.426   6.321   2.926
 1394WAT     H1 4424   1.514   6.305   2.970
 1394WAT     H2 4425   1.402   6.418   2.933
 1395WAT      O 4426   4.274   2.103   9.208
 1395WAT     H1 4427   4.268   2.095   9.109
 1395WAT     H2 4428   4.203   2.164   9.241
 1396WAT      O 4429   1.104   7.940   4.747
 1396WAT     H1 4430   1.183   7.911   4.694
 1396WAT     H2 4431   1.044   7.862   4.765
 1397WAT      O 4432   9.538   3.825   1.297
 1397WAT     H1 4433   9.452   3.791   1.258
 1397WAT     H2 4434   9.520   3.866   1.386
 1398WAT      O 4435   4.890   0.928   7.351
 1398WAT     H1 4436   4.898   0.927   7.251
 1398WAT     H2 4437   4.929   1.014   7.386
 1399WAT      O 4438   8.670   0.340   7.944
 1399WAT     H1 4439   8.577   0.370   7.961
 1399WAT     H2 4440   8.718   0.328   8.031
 1400WAT      O 4441   7.371   2.729   9.682
 1400WAT     H1 4442   7.326   2.810   9.720
 1400WAT     H2 4443   7.424   2.684   9.754
 1401WAT      O 4444   9.021   7.611   4.468
 1401WAT     H1 4445   9.029   7.586   4.371
 1401WAT     H2 4446   8.967   7.694   4.477
 1402WAT      O 4447   3.345   9.023   3.840
 1402WAT     H1 4448   3.257   8.996   3.800
 1402WAT     H2 4449   3.401   8.942   3.855
 1403WAT      O 4450   5.117   2.477   4.750
 1403WAT     H1 4451   5.116   2.464   4.849
 1403WAT     H2 4452   5.181   2.413   4.708
 1404WAT      O 4453   1.564   2.878   5.078
 1404WAT     H1 4454   1.569   2.806   5.009
 1404WAT     H2 4455   1.490   2.941   5.055
 1405WAT      O 4456   6.006   9.743   3.264
 1405WAT     H1 4457   5.934   9.765   3.330
 1405WAT     H2 4458   5.965   9.705   3.181
 1406WAT      O 4459   5.324   4.159   1.535
 1406WAT     H1 4460   5.417   4.132   1.511
 1406WAT     H2 4461   5.263   4.142   1.457
 1407WAT      O 4462   0.965   4.962   2.698
 1407WAT     H1 4463   0.893   4.931   2.760
 1407WAT     H2 4464   0.934   5.043   2.648
 1408WAT      O 4465   3.223   0.711   3.320
 1408WAT     H1 4466   3.144   0.773   3.319
 1408WAT     H2 4467   3.307   0.763   3.304
 1409WAT      O 4468   3.581   4.297   3.176
 1409WAT     H1 4469   3.493   4.304   3.128
 1409WAT     H2 4470   3.641   4.371   3.145
 1410WAT      O 4471   2.259   1.652   0.506
 1410WAT     H1 4472   2.271   1.553   0.517
 1410WAT     H2 4473   2.342   1.692   0.467
 1411WAT      O 4474   8.032   3.915   0.649
 1411WAT     H1 4475   7.936   3.942   0.642
 1411WAT     H2 4476   8.052   3.886   0.742
 1412WAT      O 4477   0.975   6.019   4.224
 1412WAT     H1 4478   0.969   6.042   4.126
 1412WAT     H2 4479   0.985   6.104   4.277
 1413WAT      O 4480   7.563   4.498   2.624
 1413WAT     H1 4481   7.626   4.573   2.639
 1413WAT     H2 4482   7.476   4.518   2.670
 1414WAT      O 4483   0.809   8.292   4.556
 1414WAT     H1 4484   0.784   8.203   4.520
 1414WAT     H2 4485   0.783   8.297   4.653
 1415WAT      O 4486   2.929   4.754   7.093
 1415WAT     H1 4487   2.960   4.848   7.078
 1415WAT     H2 4488   2.955   4.697   7.015
 1416WAT      O 4489   6.529   8.672   0.410
 1416WAT     H1 4490   6.499   8.638   0.499
 1416WAT     H2 4491   6.628   8.680   0.408
 1417WAT      O 4492   6.394   1.984   6.921
 1417WAT     H1 4493   6.310   2.038   6.929
 1417WAT     H2 4494   6.374   1.888   6.940
 1418WAT      O 4495   2.477   3.140   7.259
 1418WAT     H1 4496   2.557   3.165   7.313
 1418WAT     H2 4497   2.394   3.165   7.309
 1419WAT      O 4498   0.793   9.307   0.046
 1419WAT     H1 4499   0.848   9.349  -0.026
 1419WAT     H2 4500   0.712   9.363   0.064
 1420WAT      O 4501   8.833   8.630   9.710
 1420WAT     H1 4502   8.739   8.609   9.683
 1420WAT     H2 4503   8.868   8.706   9.656
 1421WAT      O 4504   5.344   5.291   3.904
 1421WAT     H1 4505   5.426   5.345   3.887
 1421WAT     H2 4506   5.362   5.225   3.978
 1422WAT      O 4507   8.246   9.298   6.202
 1422WAT     H1 4508   8.291   9.330   6.119
 1422WAT     H2 4509   8.180   9.366   6.233
 1423WAT      O 4510   8.508   4.731   2.992
 1423WAT     H1 4511   8.567   4.800   3.034
 1423WAT     H2 4512   8.442   4.698   3.059
 1424WAT      O 4513   9.128   3.597   2.985
 1424WAT     H1 4514   9.208   3.600   2.925
 1424WAT     H2 4515   9.104   3.502   3.004
 1425WAT      O 4516   0.330   6.623   0.995
 1425WAT     H1 4517   0.375   6.710   1.013
 1425WAT     H2 4518   0.287   6.590   1.079
 1426WAT      O 4519   4.725   5.805   6.155
 1426WAT     H1 4520   4.670   5.877   6.197
 1426WAT     H2 4521   4.777   5.842   6.078
 1427WAT      O 4522   4.277   6.730   7.953
 1427WAT     H1 4523   4.264   6.755   8.049
 1427WAT     H2 4524   4.362   6.679   7.943
 1428WAT      O 4525   4.837   9.526   6.430
 1428WAT     H1 4526   4.771   9.464   6.388
 1428WAT     H2 4527   4.908   9.549   6.364
 1429WAT      O 4528   5.119   0.812   5.217
 1429WAT     H1 4529   5.112   0.909   5.237
 1429WAT     H2 4530   5.185   0.770   5.280
 1430WAT      O 4531   0.849   8.572   0.742
 1430WAT     H1 4532   0.796   8.626   0.807
 1430WAT     H2 4533   0.914   8.514   0.791
 1431WAT      O 4534   3.482   4.728   3.135
 1431WAT     H1 4535   3.398   4.698   3.090
 1431WAT     H2 4536   3.549   4.755   3.066
 1432WAT      O 4537   6.405   2.493   8.719
 1432WAT     H1 4538   6.347   2.550   8.776
 1432WAT     H2 4539   6.459   2.551   8.658
 1433WAT      O 4540   9.647   2.802   4.390
 1433WAT     H1 4541   9.657   2.791   4.291
 1433WAT     H2 4542   9.689   2.888   4.418
 1434WAT      O 4543   1.138   1.198   9.238
 1434WAT     H1 4544   1.048   1.242   9.229
 1434WAT     H2 4545   1.200   1.258   9.288
 1435WAT      O 4546   3.938   0.412   9.513
 1435WAT     H1 4547   3.841   0.412   9.538
 1435WAT     H2 4548   3.989   0.466   9.580
 1436WAT      O 4549   9.256   0.380   7.957
 1436WAT     H1 4550   9.166   0.357   7.919
 1436WAT     H2 4551   9.249   0.387   8.056
 1437WAT      O 4552   8.443   1.991   1.020
 1437WAT     H1 4553   8.455   1.972   0.922
 1437WAT     H2 4554   8.351   1.964   1.048
 1438WAT      O 4555   3.328   5.562   8.650
 1438WAT     H1 4556   3.297   5.593   8.560
 1438WAT     H2 4557   3.249   5.530   8.703
 1439WAT      O 4558   2.877   6.290   0.750
 1439WAT     H1 4559   2.853   6.302   0.654
 1439WAT     H2 4560   2.840   6.204   0.783
 1440WAT      O 4561   4.046   6.460   3.930
 1440WAT     H1 4562   4.089   6.499   3.848
 1440WAT     H2 4563   4.077   6.511   4.010
 1441WAT      O 4564   6.089   5.378   4.226
 1441WAT     H1 4565   6.043   5.391   4.138
 1441WAT     H2 4566   6.097   5.281   4.246
 1442WAT      O 4567   1.943   8.017   1.649
 1442WAT     H1 4568   1.938   7.998   1.747
 1442WAT     H2 4569   1.944   7.930   1.598
 1443WAT      O 4570   9.725   6.070   8.876
 1443WAT     H1 4571   9.708   6.119   8.790
 1443WAT     H2 4572   9.802   6.007   8.864
 1444WAT      O 4573   4.656   0.363   2.580
 1444WAT     H1 4574   4.751   0.392   2.574
 1444WAT     H2 4575   4.636   0.297   2.507
 1445WAT      O 4576   6.222   4.140   6.482
 1445WAT     H1 4577   6.132   4.153   6.524
 1445WAT     H2 4578   6.294   4.160   6.548
 1446WAT      O 4579   4.357   9.619   5.475
 1446WAT     H1 4580   4.372   9.653   5.382
 1446WAT     H2 4581   4.358   9.696   5.539
 1447WAT      O 4582   1.061   0.237   1.852
 1447WAT     H1 4583   1.153   0.207   1.877
 1447WAT     H2 4584   1.009   0.258   1.935
 1448WAT      O 4585   2.660   1.114   4.543
 1448WAT     H1 4586   2.719   1.147   4.616
 1448WAT     H2 4587   2.663   1.179   4.466
 1449WAT      O 4588   7.835   8.267   1.696
 1449WAT     H1 4589   7.745   8.305   1.721
 1449WAT     H2 4590   7.858   8.194   1.760
 1450WAT      O 4591   6.753   9.067   3.003
 1450WAT     H1 4592   6.834   9.023   3.042
 1450WAT     H2 4593   6.782   9.147   2.951
 1451WAT      O 4594   1.333   3.503   0.101
 1451WAT     H1 4595   1.285   3.553   0.172
 1451WAT     H2 4596   1.374   3.421   0.140
 1452WAT      O 4597   1.001   7.297   4.692
 1452WAT     H1 4598   0.928   7.343   4.743
 1452WAT     H2 4599   1.078   7.281   4.753
 1453WAT      O 4600   9.599   9.545   6.060
 1453WAT     H1 4601   9.692   9.565   6.092
 1453WAT     H2 4602   9.574   9.612   5.989
 1454WAT      O 4603   5.474   7.095   7.378
 1454WAT     H1 4604   5.519   7.008   7.400
 1454WAT     H2 4605   5.398   7.078   7.315
 1455WAT      O 4606   5.666   4.565   0.156
 1455WAT     H1 4607   5.589   4.569   0.093
 1455WAT     H2 4608   5.689   4.469   0.174
 1456WAT      O 4609   9.219   4.216   8.545
 1456WAT     H1 4610   9.242   4.311   8.562
 1456WAT     H2 4611   9.121   4.202   8.557
 1457WAT      O 4612   1.968   9.057   5.790
 1457WAT     H1 4613   1.895   9.081   5.854
 1457WAT     H2 4614   1.960   9.115   5.709
 1458WAT      O 4615   8.068   7.020   8.539
 1458WAT     H1 4616   8.073   6.959   8.461
 1458WAT     H2 4617   7.982   7.072   8.535
 1459WAT      O 4618   3.344   4.282   4.450
 1459WAT     H1 4619   3.312   4.188   4.432
 1459WAT     H2 4620   3.302   4.344   4.384
 1460WAT      O 4621   2.946   1.439   0.283
 1460WAT     H1 4622   2.887   1.509   0.322
 1460WAT     H2 4623   3.008   1.404   0.354
 1461WAT      O 4624   8.943   6.596   3.480
 1461WAT     H1 4625   8.899   6.597   3.571
 1461WAT     H2 4626   9.041   6.584   3.491
 1462WAT      O 4627   8.789   9.056   0.429
 1462WAT     H1 4628   8.779   8.981   0.363
 1462WAT     H2 4629   8.868   9.039   0.488
 1463WAT      O 4630   1.870   7.678   5.700
 1463WAT     H1 4631   1.843   7.743   5.629
 1463WAT     H2 4632   1.855   7.584   5.668
 1464WAT      O 4633   6.273   0.337   3.585
 1464WAT     H1 4634   6.266   0.243   3.551
 1464WAT     H2 4635   6.283   0.336   3.684
 1465WAT      O 4636   9.073   2.536   1.146
 1465WAT     H1 4637   9.010   2.468   1.107
 1465WAT     H2 4638   9.082   2.613   1.083
 1466WAT      O 4639   8.055   8.412   6.634
 1466WAT     H1 4640   8.083   8.508   6.627
 1466WAT     H2 4641   8.084   8.363   6.552
 1467WAT      O 4642   3.933   8.585   5.714
 1467WAT     H1 4643   3.883   8.652   5.769
 1467WAT     H2 4644   3.989   8.529   5.774
 1468WAT      O 4645   9.534   9.040   7.914
 1468WAT     H1 4646   9.614   9.059   7.969
 1468WAT     H2 4647   9.499   9.125   7.874
 1469WAT      O 4648   5.879   6.340   0.639
 1469WAT     H1 4649   5.940   6.264   0.617
 1469WAT     H2 4650   5.918   6.394   0.714
 1470WAT      O 4651   9.430   3.069   1.452
 1470WAT     H1 4652   9.495   2.997   1.426
 1470WAT     H2 4653   9.439   3.089   1.549
 1471WAT      O 4654   7.779   5.109   8.719
 1471WAT     H1 4655   7.725   5.047   8.663
 1471WAT     H2 4656   7.874   5.111   8.686
 1472WAT      O 4657   1.246   2.880   3.834
 1472WAT     H1 4658   1.277   2.788   3.808
 1472WAT     H2 4659   1.147   2.880   3.845
 1473WAT      O 4660   1.666   1.507   2.740
 1473WAT     H1 4661   1.624   1.569   2.806
 1473WAT     H2 4662   1.636   1.413   2.759
 1474WAT      O 4663   5.310   3.618   3.658
 1474WAT     H1 4664   5.398   3.641   3.615
 1474WAT     H2 4665   5.254   3.567   3.593
 1475WAT      O 4666   3.313   6.907   6.433
 1475WAT     H1 4667   3.408   6.877   6.420
 1475WAT     H2 4668   3.307   7.005   6.419
 1476WAT      O 4669   4.628   6.235   3.572
 1476WAT     H1 4670   4.657   6.274   3.659
 1476WAT     H2 4671   4.644   6.301   3.498
 1477WAT      O 4672   2.328   0.203   1.621
 1477WAT     H1 4673   2.373   0.161   1.700
 1477WAT     H2 4674   2.256   0.143   1.587
 1478WAT      O 4675   6.766   9.284   1.762
 1478WAT     H1 4676   6.716   9.197   1.762
 1478WAT     H2 4677   6.708   9.356   1.800
 1479WAT      O 4678   7.862   6.839   3.422
 1479WAT     H1 4679   7.866   6.794   3.512
 1479WAT     H2 4680   7.811   6.925   3.430
 1480WAT      O 4681   8.475   1.703   1.907
 1480WAT     H1 4682   8.391   1.755   1.890
 1480WAT     H2 4683   8.546   1.764   1.941
 1481WAT      O 4684   4.619   0.034   0.899
 1481WAT     H1 4685   4.585  -0.055   0.869
 1481WAT     H2 4686   4.653   0.086   0.820
 1482WAT      O 4687   7.707   6.629   3.808
 1482WAT     H1 4688   7.615   6.628   3.769
 1482WAT     H2 4689   7.744   6.536   3.809
 1483WAT      O 4690   2.263   2.914   6.543
 1483WAT     H1 4691   2.188   2.974   6.516
 1483WAT     H2 4692   2.262   2.831   6.486
 1484WAT      O 4693   0.877   6.003   7.390
 1484WAT     H1 4694   0.835   6.094   7.390
 1484WAT     H2 4695   0.967   6.008   7.346
 1485WAT      O 4696   0.439   8.620   4.582
 1485WAT     H1 4697   0.480   8.598   4.671
 1485WAT     H2 4698   0.476   8.558   4.513
 1486WAT      O 4699   4.076   9.454   7.442
 1486WAT     H1 4700   4.141   9.496   7.505
 1486WAT     H2 4701   3.990   9.506   7.443
 1487WAT      O 4702   4.403   1.735   4.599
 1487WAT     H1 4703   4.351   1.740   4.684
 1487WAT     H2 4704   4.373   1.809   4.538
 1488WAT      O 4705   8.088   3.251   4.823
 1488WAT     H1 4706   8.063   3.347   4.806
 1488WAT     H2 4707   8.156   3.222   4.757
 1489WAT      O 4708   4.946   3.816   8.651
 1489WAT     H1 4709   5.026   3.760   8.628
 1489WAT     H2 4710   4.870   3.755   8.676
 1490WAT      O 4711   3.145   1.708   1.638
 1490WAT     H1 4712   3.051   1.685   1.611
 1490WAT     H2 4713   3.195   1.743   1.559
 1491WAT      O 4714   9.590   1.192   2.508
 1491WAT     H1 4715   9.561   1.098   2.529
 1491WAT     H2 4716   9.509   1.248   2.490
 1492WAT      O 4717   3.065   5.144   0.093
 1492WAT     H1 4718   3.034   5.112   0.182
 1492WAT     H2 4719   3.165   5.141   0.089
 1493WAT      O 4720   7.209   0.096   7.802
 1493WAT     H1 4721   7.218   0.161   7.726
 1493WAT     H2 4722   7.298   0.082   7.845
 1494WAT      O 4723   2.362   5.137   7.808
 1494WAT     H1 4724   2.270   5.127   7.771
 1494WAT     H2 4725   2.357   5.182   7.897
 1495WAT      O 4726   1.540   5.091   2.973
 1495WAT     H1 4727   1.497   5.112   2.886
 1495WAT     H2 4728   1.512   5.157   3.042
 1496WAT      O 4729   6.343   8.376   4.095
 1496WAT     H1 4730   6.385   8.286   4.108
 1496WAT     H2 4731   6.306   8.409   4.182
 1497WAT      O 4732   3.858   4.686   3.636
 1497WAT     H1 4733   3.816   4.755   3.695
 1497WAT     H2 4734   3.956   4.683   3.653
 1498WAT      O 4735   5.909   5.712   3.624
 1498WAT     H1 4736   5.965   5.791   3.649
 1498WAT     H2 4737   5.955   5.629   3.655
 1499WAT      O 4738   2.176   9.618   6.907
 1499WAT     H1 4739   2.149   9.595   6.814
 1499WAT     H2 4740   2.162   9.716   6.922
 1500WAT      O 4741   0.352   5.152   5.474
 1500WAT     H1 4742   0.387   5.246   5.472
 1500WAT     H2 4743   0.329   5.127   5.568
 1501WAT      O 4744   9.752   3.237   1.338
 1501WAT     H1 4745   9.727   3.141   1.342
 1501WAT     H2 4746   9.794   3.257   1.249
 1502WAT      O 4747   4.528   4.143   8.808
 1502WAT     H1 4748   4.624   4.171   8.807
 1502WAT     H2 4749   4.470   4.224   8.818
 1503WAT      O 4750   7.388   1.061   2.403
 1503WAT     H1 4751   7.353   1.073   2.310
 1503WAT     H2 4752   7.338   0.989   2.449
 1504WAT      O 4753   2.149   2.711   3.906
 1504WAT     H1 4754   2.120   2.802   3.877
 1504WAT     H2 4755   2.249   2.706   3.903
 1505WAT      O 4756   1.784   1.143   7.396
 1505WAT     H1 4757   1.868   1.127   7.448
 1505WAT     H2 4758   1.773   1.072   7.327
 1506WAT      O 4759   6.227   9.574   2.271
 1506WAT     H1 4760   6.241   9.589   2.173
 1506WAT     H2 4761   6.136   9.607   2.297
 1507WAT      O 4762   6.712   1.661   2.153
 1507WAT     H1 4763   6.655   1.585   2.188
 1507WAT     H2 4764   6.669   1.748   2.177
 1508WAT      O 4765   6.957   0.403   8.335
 1508WAT     H1 4766   7.043   0.386   8.288
 1508WAT     H2 4767   6.902   0.466   8.281
 1509WAT      O 4768   5.523   7.441   3.988
 1509WAT     H1 4769   5.527   7.487   3.899
 1509WAT     H2 4770   5.428   7.435   4.018
 1510WAT      O 4771   0.657   9.253   6.576
 1510WAT     H1 4772   0.599   9.249   6.658
 1510WAT     H2 4773   0.698   9.344   6.569
 1511WAT      O 4774   2.867   9.593   5.221
 1511WAT     H1 4775   2.921   9.516   5.187
 1511WAT     H2 4776   2.895   9.676   5.172
 1512WAT      O 4777   8.505   4.570   7.764
 1512WAT     H1 4778   8.495   4.472   7.748
 1512WAT     H2 4779   8.460   4.594   7.850
 1513WAT      O 4780   3.094   9.309   9.369
 1513WAT     H1 4781   3.117   9.263   9.455
 1513WAT     H2 4782   3.033   9.386   9.388
 1514WAT      O 4783   0.525   4.065   4.179
 1514WAT     H1 4784   0.574   4.110   4.253
 1514WAT     H2 4785   0.585   4.057   4.099
 1515WAT      O 4786   5.207   5.392   0.636
 1515WAT     H1 4787   5.141   5.335   0.684
 1515WAT     H2 4788   5.193   5.488   0.662
 1516WAT      O 4789   9.771   4.746   3.249
 1516WAT     H1 4790   9.769   4.835   3.294
 1516WAT     H2 4791   9.747   4.674   3.316
 1517WAT      O 4792   0.640   3.765   4.412
 1517WAT     H1 4793   0.553   3.813   4.425
 1517WAT     H2 4794   0.650   3.739   4.316
 1518WAT      O 4795   2.725   3.214   7.060
 1518WAT     H1 4796   2.769   3.129   7.089
 1518WAT     H2 4797   2.635   3.221   7.102
 1519WAT      O 4798   2.265   7.418   1.544
 1519WAT     H1 4799   2.184   7.407   1.602
 1519WAT     H2 4800   2.307   7.507   1.562
 1520WAT      O 4801   3.898   7.362   8.579
 1520WAT     H1 4802   3.828   7.422   8.618
 1520WAT     H2 4803   3.948   7.318   8.653
 1521WAT      O 4804   5.694   6.504   4.385
 1521WAT     H1 4805   5.712   6.409   4.359
 1521WAT     H2 4806   5.682   6.559   4.302
 1522WAT      O 4807   9.143   0.255   3.203
 1522WAT     H1 4808   9.214   0.295   3.261
 1522WAT     H2 4809   9.182   0.230   3.114
 1523WAT      O 4810   9.443   5.850   3.029
 1523WAT     H1 4811   9.487   5.779   3.083
 1523WAT     H2 4812   9.497   5.934   3.034
 1524WAT      O 4813   8.918   8.066   1.190
 1524WAT     H1 4814   8.920   7.971   1.223
 1524WAT     H2 4815   8.978   8.074   1.110
 1525WAT      O 4816   9.689   5.286   1.005
 1525WAT     H1 4817   9.690   5.226   0.926
 1525WAT     H2 4818   9.615   5.258   1.067
 1526WAT      O 4819   4.749   4.695   0.250
 1526WAT     H1 4820   4.755   4.624   0.180
 1526WAT     H2 4821   4.669   4.753   0.231
 1527WAT      O 4822   6.361   4.116   1.314
 1527WAT     H1 4823   6.356   4.212   1.286
 1527WAT     H2 4824   6.277   4.091   1.361
 1528WAT      O 4825   7.792   6.220   9.593
 1528WAT     H1 4826   7.794   6.319   9.598
 1528WAT     H2 4827   7.704   6.186   9.625
 1529WAT      O 4828   0.268   2.672   5.247
 1529WAT     H1 4829   0.336   2.615   5.200
 1529WAT     H2 4830   0.266   2.649   5.344
 1530WAT      O 4831   5.425   7.890   7.124
 1530WAT     H1 4832   5.370   7.863   7.203
 1530WAT     H2 4833   5.381   7.858   7.040
 1531WAT      O 4834   3.753   9.828   3.645
 1531WAT     H1 4835   3.768   9.859   3.551
 1531WAT     H2 4836   3.840   9.800   3.685
 1532WAT      O 4837   0.044   3.705   7.172
 1532WAT     H1 4838   0.126   3.734   7.221
 1532WAT     H2 4839   0.023   3.610   7.195
 1533WAT      O 4840   6.153   7.337   7.391
 1533WAT     H1 4841   6.140   7.284   7.474
 1533WAT     H2 4842   6.225   7.405   7.405
 1534WAT      O 4843   7.013   5.103   9.011
 1534WAT     H1 4844   7.041   5.191   8.975
 1534WAT     H2 4845   7.085   5.064   9.068
 1535WAT      O 4846   3.601   8.211   9.870
 1535WAT     H1 4847   3.607   8.202   9.771
 1535WAT     H2 4848   3.591   8.307   9.894
 1536WAT      O 4849   4.094   5.805   2.446
 1536WAT     H1 4850   4.149   5.867   2.503
 1536WAT     H2 4851   4.145   5.720   2.432
 1537WAT      O 4852   4.677   4.510   2.471
 1537WAT     H1 4853   4.728   4.582   2.518
 1537WAT     H2 4854   4.656   4.437   2.536
 1538WAT      O 4855   0.344   5.589   6.372
 1538WAT     H1 4856   0.254   5.626   6.395
 1538WAT     H2 4857   0.380   5.540   6.451
 1539WAT      O 4858   9.216   9.333   3.823
 1539WAT     H1 4859   9.132   9.328   3.770
 1539WAT     H2 4860   9.280   9.263   3.790
 1540WAT      O 4861   4.138   0.400   8.376
 1540WAT     H1 4862   4.177   0.476   8.324
 1540WAT     H2 4863   4.190   0.317   8.356
 1541WAT      O 4864   9.890   5.336   9.340
 1541WAT     H1 4865   9.913   5.286   9.423
 1541WAT     H2 4866   9.845   5.274   9.275
 1542WAT      O 4867   6.367   6.694   2.247
 1542WAT     H1 4868   6.417   6.613   2.278
 1542WAT     H2 4869   6.292   6.665   2.187
 1543WAT      O 4870   9.830   3.277   1.048
 1543WAT     H1 4871   9.813   3.336   0.970
 1543WAT     H2 4872   9.792   3.186   1.030
 1544WAT      O 4873   9.591   9.437   8.860
 1544WAT     H1 4874   9.617   9.525   8.820
 1544WAT     H2 4875   9.613   9.436   8.957
 1545WAT      O 4876   6.439   2.858   9.121
 1545WAT     H1 4877   6.485   2.770   9.134
 1545WAT     H2 4878   6.424   2.874   9.024
 1546WAT      O 4879   1.926   0.153   9.837
 1546WAT     H1 4880   1.985   0.182   9.761
 1546WAT     H2 4881   1.856   0.091   9.802
 1547WAT      O 4882   1.989   1.761   7.616
 1547WAT     H1 4883   1.982   1.857   7.643
 1547WAT     H2 4884   1.898   1.726   7.593
 1548WAT      O 4885   7.448   0.326   4.645
 1548WAT     H1 4886   7.470   0.291   4.735
 1548WAT     H2 4887   7.437   0.250   4.581
 1549WAT      O 4888   2.592   4.613   0.438
 1549WAT     H1 4889   2.643   4.527   0.433
 1549WAT     H2 4890   2.644   4.686   0.393
 1550WAT      O 4891   2.346   2.383   2.786
 1550WAT     H1 4892   2.407   2.377   2.864
 1550WAT     H2 4893   2.251   2.376   2.817
 1551WAT      O 4894   1.323   0.698   1.264
 1551WAT     H1 4895   1.399   0.710   1.328
 1551WAT     H2 4896   1.342   0.750   1.180
 1552WAT      O 4897   3.791   5.435   8.543
 1552WAT     H1 4898   3.711   5.440   8.602
 1552WAT     H2 4899   3.830   5.526   8.532
 1553WAT      O 4900   3.897   5.286   7.923
 1553WAT     H1 4901   3.922   5.213   7.859
 1553WAT     H2 4902   3.979   5.315   7.973
 1554WAT      O 4903   8.600   0.204   2.502
 1554WAT     H1 4904   8.677   0.260   2.474
 1554WAT     H2 4905   8.631   0.110   2.518
 1555WAT      O 4906   8.885   6.441   9.311
 1555WAT     H1 4907   8.955   6.415   9.244
 1555WAT     H2 4908   8.844   6.528   9.284
 1556WAT      O 4909   8.203   6.037   0.920
 1556WAT     H1 4910   8.161   6.102   0.983
 1556WAT     H2 4911   8.249   6.087   0.846
 1557WAT      O 4912   3.648   5.082   9.331
 1557WAT     H1 4913   3.647   5.080   9.431
 1557WAT     H2 4914   3.561   5.118   9.298
 1558WAT      O 4915   9.000   2.845   9.473
 1558WAT     H1 4916   8.956   2.778   9.532
 1558WAT     H2 4917   9.049   2.912   9.530
 1559WAT      O 4918   5.877   3.488   1.058
 1559WAT     H1 4919   5.846   3.422   1.126
 1559WAT     H2 4920   5.971   3.516   1.078
 1560WAT      O 4921   5.851   3.319   1.260
 1560WAT     H1 4922   5.905   3.237   1.245
 1560WAT     H2 4923   5.839   3.334   1.358
 1561WAT      O 4924   2.792   4.164   6.659
 1561WAT     H1 4925   2.771   4.188   6.754
 1561WAT     H2 4926   2.782   4.065   6.647
 1562WAT      O 4927   7.337   1.899   2.467
 1562WAT     H1 4928   7.247   1.883   2.427
 1562WAT     H2 4929   7.327   1.955   2.550
 1563WAT      O 4930   7.763   5.792   9.339
 1563WAT     H1 4931   7.669   5.806   9.307
 1563WAT     H2 4932   7.797   5.876   9.380
 1564WAT      O 4933   4.827   7.852   7.095
 1564WAT     H1 4934   4.917   7.818   7.124
 1564WAT     H2 4935   4.797   7.801   7.014
 1565WAT      O 4936   7.047   9.714   7.807
 1565WAT     H1 4937   7.118   9.643   7.805
 1565WAT     H2 4938   7.090   9.804   7.814
 1566WAT      O 4939   7.280   6.111   8.167
 1566WAT     H1 4940   7.196   6.149   8.128
 1566WAT     H2 4941   7.359   6.143   8.115
 1567WAT      O 4942   8.176   4.474   9.463
 1567WAT     H1 4943   8.149   4.566   9.489
 1567WAT     H2 4944   8.276   4.469   9.457
 1568WAT      O 4945   1.534   4.633   6.803
 1568WAT     H1 4946   1.509   4.726   6.828
 1568WAT     H2 4947   1.620   4.608   6.847
 1569WAT      O 4948   4.415   5.011   4.789
 1569WAT     H1 4949   4.454   4.959   4.866
 1569WAT     H2 4950   4.474   5.002   4.709
 1570WAT      O 4951   9.212   8.475   3.238
 1570WAT     H1 4952   9.209   8.527   3.323
 1570WAT     H2 4953   9.277   8.517   3.175
 1571WAT      O 4954   8.330   7.539   0.940
 1571WAT     H1 4955   8.291   7.456   0.980
 1571WAT     H2 4956   8.257   7.598   0.907
 1572WAT      O 4957   0.089   7.894   3.443
 1572WAT     H1 4958   0.020   7.905   3.372
 1572WAT     H2 4959   0.179   7.914   3.405
 1573WAT      O 4960   7.542   1.478   3.870
 1573WAT     H1 4961   7.632   1.439   3.851
 1573WAT     H2 4962   7.548   1.540   3.948
 1574WAT      O 4963   4.234   3.450   0.897
 1574WAT     H1 4964   4.321   3.428   0.942
 1574WAT     H2 4965   4.169   3.376   0.912
 1575WAT      O 4966   4.965   2.427   8.016
 1575WAT     H1 4967   5.017   2.439   8.100
 1575WAT     H2 4968   4.903   2.505   8.003
 1576WAT      O 4969   1.015   2.786   7.610
 1576WAT     H1 4970   1.061   2.704   7.645
 1576WAT     H2 4971   1.083   2.848   7.570
 1577WAT      O 4972   4.911   0.794   1.489
 1577WAT     H1 4973   4.844   0.850   1.440
 1577WAT     H2 4974   4.863   0.732   1.552
 1578WAT      O 4975   3.686   2.157   6.949
 1578WAT     H1 4976   3.645   2.130   6.862
 1578WAT     H2 4977   3.625   2.221   6.996
 1579WAT      O 4978   5.724   1.382   2.933
 1579WAT     H1 4979   5.644   1.323   2.943
 1579WAT     H2 4980   5.773   1.359   2.849
 1580WAT      O 4981   3.338   9.809   0.109
 1580WAT     H1 4982   3.255   9.780   0.062
 1580WAT     H2 4983   3.409   9.739   0.097
 1581WAT      O 4984   7.593   1.432   1.755
 1581WAT     H1 4985   7.636   1.346   1.727
 1581WAT     H2 4986   7.551   1.477   1.676
 1582WAT      O 4987   8.512   5.528   8.193
 1582WAT     H1 4988   8.492   5.430   8.182
 1582WAT     H2 4989   8.531   5.547   8.289
 1583WAT      O 4990   2.062   3.495   5.178
 1583WAT     H1 4991   2.150   3.527   5.215
 1583WAT     H2 4992   2.044   3.402   5.210
 1584WAT      O 4993   5.399   5.830   7.086
 1584WAT     H1 4994   5.369   5.747   7.131
 1584WAT     H2 4995   5.498   5.827   7.073
 1585WAT      O 4996   5.099   0.873   0.756
 1585WAT     H1 4997   5.194   0.894   0.782
 1585WAT     H2 4998   5.086   0.774   0.755
 1586WAT      O 4999   5.558   0.421   3.841
 1586WAT     H1 5000   5.494   0.375   3.780
 1586WAT     H2 5001   5.507   0.477   3.907
 1587WAT      O 5002   3.603   4.498   8.002
 1587WAT     H1 5003   3.579   4.579   7.947
 1587WAT     H2 5004   3.579   4.415   7.952
 1588WAT      O 5005   5.294   3.826   0.905
 1588WAT     H1 5006   5.385   3.864   0.890
 1588WAT     H2 5007   5.291   3.779   0.993
 1589WAT      O 5008   2.194   3.740   8.535
 1589WAT     H1 5009   2.228   3.659   8.582
 1589WAT     H2 5010   2.271   3.798   8.508
 1590WAT      O 5011   1.717   6.582   3.078
 1590WAT     H1 5012   1.683   6.583   3.172
 1590WAT     H2 5013   1.782   6.507   3.067
 1591WAT      O 5014   7.007   8.730   2.817
 1591WAT     H1 5015   6.973   8.671   2.890
 1591WAT     H2 5016   7.107   8.735   2.823
 1592WAT      O 5017   4.569   2.860   5.064
 1592WAT     H1 5018   4.614   2.949   5.067
 1592WAT     H2 5019   4.475   2.872   5.030
 1593WAT      O 5020   9.668   4.477   7.008
 1593WAT     H1 5021   9.680   4.417   7.087
 1593WAT     H2 5022   9.709   4.435   6.927
 1594WAT      O 5023   2.825   9.392   1.375
 1594WAT     H1 5024   2.905   9.449   1.390
 1594WAT     H2 5025   2.777   9.379   1.462
 1595WAT      O 5026   4.882   3.502   3.673
 1595WAT     H1 5027   4.794   3.484   3.716
 1595WAT     H2 5028   4.896   3.601   3.666
 1596WAT      O 5029   5.250   0.567   0.983
 1596WAT     H1 5030   5.224   0.534   1.074
 1596WAT     H2 5031   5.319   0.639   0.992
 1597WAT      O 5032   8.706   8.285   9.400
 1597WAT     H1 5033   8.715   8.211   9.333
 1597WAT     H2 5034   8.639   8.259   9.469
 1598WAT      O 5035   3.564   7.014   2.636
 1598WAT     H1 5036   3.500   6.939   2.647
 1598WAT     H2 5037   3.513   7.100   2.625
 1599WAT      O 5038   3.746   5.118   0.778
 1599WAT     H1 5039   3.752   5.060   0.860
 1599WAT     H2 5040   3.676   5.188   0.791
 1600WAT      O 5041   4.658   6.643   5.855
 1600WAT     H1 5042   4.732   6.605   5.800
 1600WAT     H2 5043   4.678   6.630   5.952
 1601WAT      O 5044   2.202   1.470   7.093
 1601WAT     H1 5045   2.102   1.464   7.085
 1601WAT     H2 5046   2.233   1.556   7.054
 1602WAT      O 5047   3.641   6.036   6.660
 1602WAT     H1 5048   3.693   6.120   6.671
 1602WAT     H2 5049   3.586   6.041   6.576
 1603WAT      O 5050   7.715   5.919   0.771
 1603WAT     H1 5051   7.757   6.005   0.801
 1603WAT     H2 5052   7.641   5.939   0.707
 1604WAT      O 5053   8.171   0.833   0.589
 1604WAT     H1 5054   8.190   0.929   0.568
 1604WAT     H2 5055   8.087   0.805   0.544
 1605WAT      O 5056   7.442   1.008   3.379
 1605WAT     H1 5057   7.430   1.100   3.415
 1605WAT     H2 5058   7.360   0.953   3.399
 1606WAT      O 5059   1.251   2.324   5.375
 1606WAT     H1 5060   1.236   2.387   5.451
 1606WAT     H2 5061   1.239   2.230   5.407
 1607WAT      O 5062   2.226   1.930   2.470
 1607WAT     H1 5063   2.247   1.892   2.380
 1607WAT     H2 5064   2.146   1.990   2.464
 1608WAT      O 5065   5.827   0.782   5.085
 1608WAT     H1 5066   5.814   0.863   5.143
 1608WAT     H2 5067   5.890   0.805   5.010
 1609WAT      O 5068   2.447   9.691   6.935
 1609WAT     H1 5069   2.448   9.712   6.838
 1609WAT     H2 5070   2.357   9.654   6.961
 1610WAT      O 5071   3.134   0.491   7.495
 1610WAT     H1 5072   3.215   0.455   7.448
 1610WAT     H2 5073   3.161   0.568   7.553
 1611WAT      O 5074   6.759   5.178   9.406
 1611WAT     H1 5075   6.704   5.133   9.477
 1611WAT     H2 5076   6.792   5.266   9.440
 1612WAT      O 5077   8.518   7.005   6.309
 1612WAT     H1 5078   8.421   7.018   6.333
 1612WAT     H2 5079   8.524   6.965   6.218
 1613WAT      O 5080   3.436   9.127   0.217
 1613WAT     H1 5081   3.410   9.125   0.314
 1613WAT     H2 5082   3.369   9.074   0.164
 1614WAT      O 5083   0.090   8.155   0.477
 1614WAT     H1 5084   0.177   8.140   0.429
 1614WAT     H2 5085   0.019   8.176   0.410
 1615WAT      O 5086   8.505   0.009   8.076
 1615WAT     H1 5087   8.483   0.078   8.145
 1615WAT     H2 5088   8.582  -0.046   8.106
 1616WAT      O 5089   4.819   2.949   3.355
 1616WAT     H1 5090   4.809   2.984   3.448
 1616WAT     H2 5091   4.860   3.020   3.297
 1617WAT      O 5092   8.522   2.886   1.429
 1617WAT     H1 5093   8.509   2.923   1.336
 1617WAT     H2 5094   8.613   2.911   1.462
 1618WAT      O 5095   4.227   6.370   8.213
 1618WAT     H1 5096   4.282   6.286   8.216
 1618WAT     H2 5097   4.171   6.371   8.131
 1619WAT      O 5098   0.763   8.862   7.715
 1619WAT     H1 5099   0.783   8.775   7.670
 1619WAT     H2 5100   0.776   8.852   7.814
 1620WAT      O 5101   6.723   7.462   6.406
 1620WAT     H1 5102   6.632   7.462   6.363
 1620WAT     H2 5103   6.724   7.530   6.479
 1621WAT      O 5104   2.385   6.051   8.068
 1621WAT     H1 5105   2.364   6.021   8.161
 1621WAT     H2 5106   2.426   6.143   8.071
 1622WAT      O 5107   6.635   7.442   1.869
 1622WAT     H1 5108   6.573   7.506   1.823
 1622WAT     H2 5109   6.590   7.404   1.949
 1623WAT      O 5110   2.623   6.740   3.726
 1623WAT     H1 5111   2.626   6.839   3.727
 1623WAT     H2 5112   2.529   6.709   3.743
 1624WAT      O 5113   4.976   7.610   1.487
 1624WAT     H1 5114   4.958   7.664   1.569
 1624WAT     H2 5115   4.958   7.665   1.406
 1625WAT      O 5116   3.027   1.797   3.108
 1625WAT     H1 5117   3.010   1.781   3.205
 1625WAT     H2 5118   3.064   1.889   3.095
 1626WAT      O 5119   3.346   4.828   1.806
 1626WAT     H1 5120   3.441   4.857   1.815
 1626WAT     H2 5121   3.325   4.814   1.710
 1627WAT      O 5122   8.678   2.196   6.717
 1627WAT     H1 5123   8.581   2.180   6.736
 1627WAT     H2 5124   8.694   2.191   6.618
 1628WAT      O 5125   1.563   0.943   8.960
 1628WAT     H1 5126   1.488   0.996   8.999
 1628WAT     H2 5127   1.650   0.987   8.981
 1629WAT      O 5128   1.979   4.273   9.039
 1629WAT     H1 5129   1.946   4.232   8.954
 1629WAT     H2 5130   2.076   4.251   9.051
 1630WAT      O 5131   1.098   6.766   6.169
 1630WAT     H1 5132   1.002   6.784   6.144
 1630WAT     H2 5133   1.110   6.780   6.267
 1631WAT      O 5134   1.177   1.414   8.159
 1631WAT     H1 5135   1.236   1.368   8.226
 1631WAT     H2 5136   1.166   1.510   8.185
 1632WAT      O 5137   9.664   9.787   9.896
 1632WAT     H1 5138   9.714   9.764   9.812
 1632WAT     H2 5139   9.568   9.803   9.874
 1633WAT      O 5140   5.941   3.442   4.333
 1633WAT     H1 5141   5.918   3.537   4.311
 1633WAT     H2 5142   5.990   3.401   4.256
 1634WAT      O 5143   2.916   6.315   3.556
 1634WAT     H1 5144   2.818   6.306   3.537
 1634WAT     H2 5145   2.945   6.409   3.541
 1635WAT      O 5146   1.057   2.721   1.133
 1635WAT     H1 5147   0.994   2.785   1.176
 1635WAT     H2 5148   1.091   2.761   1.047
 1636WAT      O 5149   3.274   0.695   3.751
 1636WAT     H1 5150   3.293   0.618   3.812
 1636WAT     H2 5151   3.261   0.661   3.658
 1637WAT      O 5152   6.696   5.954   6.322
 1637WAT     H1 5153   6.794   5.946   6.305
 1637WAT     H2 5154   6.671   6.050   6.331
 1638WAT      O 5155   7.912   5.302   4.106
 1638WAT     H1 5156   7.979   5.353   4.160
 1638WAT     H2 5157   7.916   5.333   4.011
 1639WAT      O 5158   5.159   3.519   2.989
 1639WAT     H1 5159   5.250   3.502   2.953
 1639WAT     H2 5160   5.159   3.604   3.042
 1640WAT      O 5161   8.931   7.310   0.734
 1640WAT     H1 5162   8.859   7.378   0.721
 1640WAT     H2 5163   9.003   7.349   0.792
 1641WAT      O 5164   0.004   4.155   8.974
 1641WAT     H1 5165  -0.029   4.228   8.914
 1641WAT     H2 5166   0.049   4.196   9.054
 1642WAT      O 5167   1.837   7.546   0.095
 1642WAT     H1 5168   1.781   7.467   0.119
 1642WAT     H2 5169   1.822   7.620   0.161
 1643WAT      O 5170   9.381   8.220   5.046
 1643WAT     H1 5171   9.402   8.262   5.135
 1643WAT     H2 5172   9.295   8.170   5.053
 1644WAT      O 5173   7.678   1.855   6.258
 1644WAT     H1 5174   7.657   1.951   6.276
 1644WAT     H2 5175   7.649   1.799   6.336
 1645WAT      O 5176   7.112   4.456   4.280
 1645WAT     H1 5177   7.158   4.391   4.340
 1645WAT     H2 5178   7.027   4.416   4.246
 1646WAT      O 5179   7.119   1.726   3.718
 1646WAT     H1 5180   7.211   1.764   3.709
 1646WAT     H2 5181   7.094   1.677   3.635
 1647WAT      O 5182   5.037   6.608   4.491
 1647WAT     H1 5183   4.976   6.651   4.557
 1647WAT     H2 5184   5.128   6.650   4.497
 1648WAT      O 5185   3.551   2.536   1.731
 1648WAT     H1 5186   3.487   2.603   1.771
 1648WAT     H2 5187   3.516   2.444   1.746
 1649WAT      O 5188   2.523   7.912   0.685
 1649WAT     H1 5189   2.489   7.868   0.768
 1649WAT     H2 5190   2.585   7.986   0.709
 1650WAT      O 5191   5.477   6.165   2.760
 1650WAT     H1 5192   5.562   6.201   2.721
 1650WAT     H2 5193   5.499   6.088   2.821
 1651WAT      O 5194   7.389   4.233   8.470
 1651WAT     H1 5195   7.384   4.173   8.549
 1651WAT     H2 5196   7.468   4.294   8.479
 1652WAT      O 5197   5.503   8.511   6.076
 1652WAT     H1 5198   5.502   8.516   6.175
 1652WAT     H2 5199   5.547   8.426   6.047
 1653WAT      O 5200   8.670   3.818   0.377
 1653WAT     H1 5201   8.680   3.866   0.464
 1653WAT     H2 5202   8.754   3.827   0.324
 1654WAT      O 5203   6.390   6.077   8.583
 1654WAT     H1 5204   6.386   6.056   8.681
 1654WAT     H2 5205   6.481   6.055   8.548
 1655WAT      O 5206   1.652   0.307   2.374
 1655WAT     H1 5207   1.609   0.313   2.464
 1655WAT     H2 5208   1.660   0.211   2.347
 1656WAT      O 5209   5.120   1.499   3.111
 1656WAT     H1 5210   5.204   1.551   3.099
 1656WAT     H2 5211   5.082   1.516   3.202
 1657WAT      O 5212   6.521   8.998   4.900
 1657WAT     H1 5213   6.615   9.006   4.865
 1657WAT     H2 5214   6.486   9.089   4.920
 1658WAT      O 5215   6.785   7.059   4.400
 1658WAT     H1 5216   6.833   7.136   4.359
 1658WAT     H2 5217   6.730   7.090   4.477
 1659WAT      O 5218   3.242   5.731   0.584
 1659WAT     H1 5219   3.236   5.828   0.559
 1659WAT     H2 5220   3.152   5.688   0.577
 1660WAT      O 5221   3.239   4.293   0.553
 1660WAT     H1 5222   3.291   4.219   0.595
 1660WAT     H2 5223   3.148   4.297   0.593
 1661WAT      O 5224   7.680   0.805   6.962
 1661WAT     H1 5225   7.718   0.796   7.054
 1661WAT     H2 5226   7.734   0.750   6.898
 1662WAT      O 5227   2.287   3.545   2.412
 1662WAT     H1 5228   2.282   3.464   2.354
 1662WAT     H2 5229   2.205   3.549   2.470
 1663WAT      O 5230   1.909   4.063   4.636
 1663WAT     H1 5231   1.984   4.062   4.570
 1663WAT     H2 5232   1.925   4.137   4.702
 1664WAT      O 5233   5.465   4.833   6.243
 1664WAT     H1 5234   5.375   4.794   6.264
 1664WAT     H2 5235   5.478   4.835   6.144
 1665WAT      O 5236   3.664   5.702   5.161
 1665WAT     H1 5237   3.710   5.785   5.129
 1665WAT     H2 5238   3.729   5.627   5.163
 1666WAT      O 5239   3.539   0.580   6.281
 1666WAT     H1 5240   3.582   0.647   6.220
 1666WAT     H2 5241   3.455   0.619   6.318
 1667WAT      O 5242   2.397   9.069   8.108
 1667WAT     H1 5243   2.490   9.102   8.094
 1667WAT     H2 5244   2.365   9.021   8.026
 1668WAT      O 5245   3.858   3.354   9.336
 1668WAT     H1 5246   3.881   3.284   9.269
 1668WAT     H2 5247   3.790   3.417   9.298
 1669WAT      O 5248   8.310   5.894   9.695
 1669WAT     H1 5249   8.225   5.925   9.651
 1669WAT     H2 5250   8.388   5.916   9.636
 1670WAT      O 5251   0.126   2.862   7.385
 1670WAT     H1 5252   0.196   2.846   7.455
 1670WAT     H2 5253   0.145   2.949   7.339
 1671WAT      O 5254   4.285   2.732   7.126
 1671WAT     H1 5255   4.372   2.760   7.167
 1671WAT     H2 5256   4.289   2.742   7.027
 1672WAT      O 5257   6.829   9.097   7.237
 1672WAT     H1 5258   6.824   9.092   7.337
 1672WAT     H2 5259   6.754   9.043   7.198
 1673WAT      O 5260   8.177   1.054   3.865
 1673WAT     H1 5261   8.103   1.088   3.807
 1673WAT     H2 5262   8.192   1.118   3.941
 1674WAT      O 5263   7.570   7.258   4.630
 1674WAT     H1 5264   7.543   7.229   4.722
 1674WAT     H2 5265   7.533   7.349   4.612
 1675WAT      O 5266   5.204   1.146   5.759
 1675WAT     H1 5267   5.245   1.215   5.818
 1675WAT     H2 5268   5.111   1.127   5.789
 1676WAT      O 5269   1.252   6.792   8.414
 1676WAT     H1 5270   1.167   6.816   8.461
 1676WAT     H2 5271   1.239   6.798   8.315
 1677WAT      O 5272   6.871   3.082   7.548
 1677WAT     H1 5273   6.929   3.010   7.512
 1677WAT     H2 5274   6.889   3.094   7.646
 1678WAT      O 5275   7.869   6.741   0.452
 1678WAT     H1 5276   7.793   6.683   0.483
 1678WAT     H2 5277   7.942   6.739   0.520
 1679WAT      O 5278   9.485   1.152   6.767
 1679WAT     H1 5279   9.453   1.183   6.857
 1679WAT     H2 5280   9.418   1.088   6.729
 1680WAT      O 5281   0.096   0.658   1.134
 1680WAT     H1 5282   0.104   0.588   1.063
 1680WAT     H2 5283   0.179   0.657   1.191
 1681WAT      O 5284   9.455   5.151   8.785
 1681WAT     H1 5285   9.532   5.210   8.807
 1681WAT     H2 5286   9.418   5.177   8.696
 1682WAT      O 5287   1.681   5.181   1.226
 1682WAT     H1 5288   1.660   5.086   1.205
 1682WAT     H2 5289   1.645   5.240   1.153
 1683WAT      O 5290   6.706   2.168   3.438
 1683WAT     H1 5291   6.661   2.137   3.522
 1683WAT     H2 5292   6.796   2.204   3.461
 1684WAT      O 5293   8.630   2.654   6.518
 1684WAT     H1 5294   8.547   2.647   6.573
 1684WAT     H2 5295   8.622   2.732   6.455
 1685WAT      O 5296   4.373   6.211   3.138
 1685WAT     H1 5297   4.437   6.179   3.208
 1685WAT     H2 5298   4.416   6.284   3.084
 1686WAT      O 5299   9.164   7.859   3.905
 1686WAT     H1 5300   9.068   7.882   3.889
 1686WAT     H2 5301   9.196   7.907   3.987
 1687WAT      O 5302   3.552   0.671   7.223
 1687WAT     H1 5303   3.516   0.745   7.166
 1687WAT     H2 5304   3.651   0.667   7.214
 1688WAT      O 5305   0.681   8.336   7.722
 1688WAT     H1 5306   0.690   8.386   7.809
 1688WAT     H2 5307   0.634   8.393   7.655
 1689WAT      O 5308   8.992   9.295   5.214
 1689WAT     H1 5309   8.982   9.341   5.126
 1689WAT     H2 5310   8.913   9.315   5.272
 1690WAT      O 5311   6.648   8.017   9.387
 1690WAT     H1 5312   6.559   8.060   9.405
 1690WAT     H2 5313   6.633   7.925   9.351
 1691WAT      O 5314   2.824   9.172   8.767
 1691WAT     H1 5315   2.770   9.218   8.838
 1691WAT     H2 5316   2.766   9.106   8.720
 1692WAT      O 5317   8.742   3.823   7.765
 1692WAT     H1 5318   8.674   3.829   7.838
 1692WAT     H2 5319   8.701   3.854   7.679
 1693WAT      O 5320   2.874   1.846   3.688
 1693WAT     H1 5321   2.850   1.943   3.679
 1693WAT     H2 5322   2.814   1.792   3.630
 1694WAT      O 5323   4.721   2.828   9.242
 1694WAT     H1 5324   4.668   2.752   9.204
 1694WAT     H2 5325   4.798   2.791   9.295
 1695WAT      O 5326   7.199   6.554   0.917
 1695WAT     H1 5327   7.204   6.488   0.842
 1695WAT     H2 5328   7.122   6.617   0.901
 1696WAT      O 5329   2.230   4.414   3.812
 1696WAT     H1 5330   2.190   4.455   3.894
 1696WAT     H2 5331   2.283   4.333   3.837
 1697WAT      O 5332   7.236   6.027   5.976
 1697WAT     H1 5333   7.229   6.000   5.880
 1697WAT     H2 5334   7.253   5.947   6.033
 1698WAT      O 5335   0.429   0.647   2.416
 1698WAT     H1 5336   0.335   0.678   2.403
 1698WAT     H2 5337   0.430   0.564   2.471
 1699WAT      O 5338   0.610   3.915   3.584
 1699WAT     H1 5339   0.560   3.906   3.670
 1699WAT     H2 5340   0.692   3.971   3.600
 1700WAT      O 5341   3.357   0.886   2.098
 1700WAT     H1 5342   3.276   0.865   2.043
 1700WAT     H2 5343   3.434   0.905   2.039
 1701WAT      O 5344   2.185   3.067   8.693
 1701WAT     H1 5345   2.136   3.026   8.770
 1701WAT     H2 5346   2.265   3.117   8.729
 1702WAT      O 5347   0.071   8.039   5.291
 1702WAT     H1 5348  -0.025   8.011   5.288
 1702WAT     H2 5349   0.103   8.060   5.199
 1703WAT      O 5350   9.570   7.492   1.751
 1703WAT     H1 5351   9.505   7.567   1.738
 1703WAT     H2 5352   9.628   7.510   1.830
 1704WAT      O 5353   9.218   2.468   0.161
 1704WAT     H1 5354   9.286   2.541   0.166
 1704WAT     H2 5355   9.135   2.495   0.210
 1705WAT      O 5356   7.649   0.909   7.956
 1705WAT     H1 5357   7.568   0.906   8.015
 1705WAT     H2 5358   7.724   0.954   8.005
 1706WAT      O 5359   6.352   5.941   2.945
 1706WAT     H1 5360   6.305   5.960   3.031
 1706WAT     H2 5361   6.309   5.863   2.900
 1707WAT      O 5362   5.803   9.233   5.360
 1707WAT     H1 5363   5.845   9.144   5.344
 1707WAT     H2 5364   5.862   9.286   5.421
 1708WAT      O 5365   7.901   0.532   5.803
 1708WAT     H1 5366   7.802   0.548   5.811
 1708WAT     H2 5367   7.944   0.543   5.892
 1709WAT      O 5368   5.723   0.355   8.947
 1709WAT     H1 5369   5.709   0.389   9.040
 1709WAT     H2 5370   5.673   0.269   8.935
 1710WAT      O 5371   7.917   4.288   3.991
 1710WAT     H1 5372   7.923   4.297   3.892
 1710WAT     H2 5373   7.834   4.333   4.024
 1711WAT      O 5374   7.247   3.494   2.439
 1711WAT     H1 5375   7.298   3.543   2.510
 1711WAT     H2 5376   7.259   3.396   2.453
 1712WAT      O 5377   2.143   4.004   1.666
 1712WAT     H1 5378   2.097   4.080   1.713
 1712WAT     H2 5379   2.220   4.039   1.613
 1713WAT      O 5380   3.870   5.300   4.499
 1713WAT     H1 5381   3.937   5.248   4.553
 1713WAT     H2 5382   3.918   5.373   4.449
 1714WAT      O 5383   5.894   1.434   9.734
 1714WAT     H1 5384   5.903   1.350   9.787
 1714WAT     H2 5385   5.946   1.426   9.649
 1715WAT      O 5386   0.838   3.774   5.672
 1715WAT     H1 5387   0.817   3.832   5.592
 1715WAT     H2 5388   0.790   3.687   5.663
 1716WAT      O 5389   5.172   1.754   2.064
 1716WAT     H1 5390   5.211   1.662   2.064
 1716WAT     H2 5391   5.215   1.808   2.137
 1717WAT      O 5392   8.050   2.850   9.224
 1717WAT     H1 5393   8.108   2.796   9.285
 1717WAT     H2 5394   7.998   2.788   9.165
 1718WAT      O 5395   8.047   0.967   0.207
 1718WAT     H1 5396   8.052   1.029   0.285
 1718WAT     H2 5397   8.109   0.889   0.222
 1719WAT      O 5398   5.693   6.286   0.947
 1719WAT     H1 5399   5.620   6.287   0.879
 1719WAT     H2 5400   5.744   6.201   0.941
 1720WAT      O 5401   2.698   1.524   8.049
 1720WAT     H1 5402   2.619   1.464   8.059
 1720WAT     H2 5403   2.757   1.489   7.976
 1721WAT      O 5404   6.143   7.501   1.056
 1721WAT     H1 5405   6.242   7.503   1.049
 1721WAT     H2 5406   6.113   7.411   1.086
 1722WAT      O 5407   3.099   3.956   0.525
 1722WAT     H1 5408   3.198   3.965   0.511
 1722WAT     H2 5409   3.079   3.955   0.623
 1723WAT      O 5410   2.951   1.537   5.543
 1723WAT     H1 5411   2.969   1.576   5.452
 1723WAT     H2 5412   2.863   1.570   5.577
 1724WAT      O 5413   4.740   1.197   5.765
 1724WAT     H1 5414   4.696   1.112   5.736
 1724WAT     H2 5415   4.686   1.239   5.838
 1725WAT      O 5416   1.602   2.618   2.589
 1725WAT     H1 5417   1.570   2.523   2.590
 1725WAT     H2 5418   1.663   2.631   2.511
 1726WAT      O 5419   3.652   5.261   6.077
 1726WAT     H1 5420   3.591   5.195   6.034
 1726WAT     H2 5421   3.689   5.223   6.162
 1727WAT      O 5422   4.480   4.521   7.218
 1727WAT     H1 5423   4.545   4.446   7.231
 1727WAT     H2 5424   4.507   4.599   7.275
 1728WAT      O 5425   9.210   7.142   2.199
 1728WAT     H1 5426   9.131   7.108   2.251
 1728WAT     H2 5427   9.228   7.237   2.227
 1729WAT      O 5428   3.558   6.128   2.431
 1729WAT     H1 5429   3.600   6.206   2.384
 1729WAT     H2 5430   3.540   6.055   2.365
 1730WAT      O 5431   2.418   0.215   3.305
 1730WAT     H1 5432   2.516   0.204   3.288
 1730WAT     H2 5433   2.373   0.127   3.297
 1731WAT      O 5434   0.468   4.159   7.982
 1731WAT     H1 5435   0.532   4.089   8.016
 1731WAT     H2 5436   0.512   4.248   7.984
 1732WAT      O 5437   9.635   5.468   5.901
 1732WAT     H1 5438   9.731   5.498   5.905
 1732WAT     H2 5439   9.630   5.371   5.926
 1733WAT      O 5440   2.026   6.692   1.988
 1733WAT     H1 5441   1.998   6.775   1.941
 1733WAT     H2 5442   2.061   6.626   1.921
 1734WAT      O 5443   6.263   4.232   0.876
 1734WAT     H1 5444   6.344   4.266   0.923
 1734WAT     H2 5445   6.181   4.258   0.926
 1735WAT      O 5446   6.364   0.515   8.152
 1735WAT     H1 5447   6.339   0.481   8.242
 1735WAT     H2 5448   6.463   0.503   8.138
 1736WAT      O 5449   0.948   1.261   2.733
 1736WAT     H1 5450   0.998   1.275   2.648
 1736WAT     H2 5451   0.904   1.346   2.762
 1737WAT      O 5452   4.555   4.497   6.413
 1737WAT     H1 5453   4.465   4.491   6.456
 1737WAT     H2 5454   4.571   4.590   6.382
 1738WAT      O 5455   3.156   4.869   0.199
 1738WAT     H1 5456   3.122   4.807   0.128
 1738WAT     H2 5457   3.078   4.911   0.247
 1739WAT      O 5458   4.304   6.233   0.090
 1739WAT     H1 5459   4.242   6.286   0.147
 1739WAT     H2 5460   4.372   6.294   0.049
 1740WAT      O 5461   7.764   2.938   5.635
 1740WAT     H1 5462   7.753   3.018   5.694
 1740WAT     H2 5463   7.685   2.878   5.646
 1741WAT      O 5464   8.275   8.178   8.842
 1741WAT     H1 5465   8.292   8.221   8.753
 1741WAT     H2 5466   8.179   8.192   8.868
 1742WAT      O 5467   7.151   6.892   4.613
 1742WAT     H1 5468   7.214   6.829   4.659
 1742WAT     H2 5469   7.137   6.863   4.519
 1743WAT      O 5470   2.292   1.756   2.673
 1743WAT     H1 5471   2.384   1.717   2.664
 1743WAT     H2 5472   2.282   1.832   2.609
 1744WAT      O 5473   9.418   3.193   2.421
 1744WAT     H1 5474   9.326   3.204   2.457
 1744WAT     H2 5475   9.452   3.280   2.386
 1745WAT      O 5476   7.502   0.708   7.657
 1745WAT     H1 5477   7.570   0.647   7.614
 1745WAT     H2 5478   7.428   0.653   7.696
 1746WAT      O 5479   3.304   9.224   3.336
 1746WAT     H1 5480   3.327   9.312   3.295
 1746WAT     H2 5481   3.384   9.189   3.386
 1747WAT      O 5482   6.596   8.479   7.952
 1747WAT     H1 5483   6.634   8.551   8.011
 1747WAT     H2 5484   6.510   8.512   7.912
 1748WAT      O 5485   1.270   8.112   4.143
 1748WAT     H1 5486   1.255   8.090   4.047
 1748WAT     H2 5487   1.323   8.197   4.150
 1749WAT      O 5488   9.358   6.261   3.265
 1749WAT     H1 5489   9.319   6.251   3.174
 1749WAT     H2 5490   9.453   6.291   3.257
 1750WAT      O 5491   5.692   6.820   2.279
 1750WAT     H1 5492   5.650   6.888   2.219
 1750WAT     H2 5493   5.655   6.729   2.258
 1751WAT      O 5494   1.988   5.269   7.028
 1751WAT     H1 5495   1.960   5.263   6.932
 1751WAT     H2 5496   1.913   5.237   7.086
 1752WAT      O 5497   6.973   2.895   4.397
 1752WAT     H1 5498   6.881   2.856   4.400
 1752WAT     H2 5499   6.984   2.963   4.469
 1753WAT      O 5500   7.066   1.909   7.942
 1753WAT     H1 5501   7.102   2.001   7.959
 1753WAT     H2 5502   7.138   1.851   7.904
 1754WAT      O 5503   6.720   0.418   0.035
 1754WAT     H1 5504   6.768   0.330   0.041
 1754WAT     H2 5505   6.775   0.482  -0.018
 1755WAT      O 5506   0.440   4.160   2.915
 1755WAT     H1 5507   0.384   4.234   2.878
 1755WAT     H2 5508   0.396   4.072   2.895
 1756WAT      O 5509   8.041   6.211   1.054
 1756WAT     H1 5510   8.075   6.263   0.976
 1756WAT     H2 5511   7.943   6.194   1.043
 1757WAT      O 5512   3.033   7.235   0.771
 1757WAT     H1 5513   3.100   7.187   0.827
 1757WAT     H2 5514   3.005   7.176   0.695
 1758WAT      O 5515   1.830   0.693   8.631
 1758WAT     H1 5516   1.735   0.696   8.662
 1758WAT     H2 5517   1.891   0.693   8.711
 1759WAT      O 5518   7.728   6.287   2.307
 1759WAT     H1 5519   7.651   6.256   2.363
 1759WAT     H2 5520   7.769   6.368   2.348
 1760WAT      O 5521   6.771   4.731   6.833
 1760WAT     H1 5522   6.798   4.827   6.829
 1760WAT     H2 5523   6.702   4.713   6.764
 1761WAT      O 5524   7.577   8.216   3.827
 1761WAT     H1 5525   7.575   8.269   3.912
 1761WAT     H2 5526   7.549   8.122   3.845
 1762WAT      O 5527   6.463   4.620   5.180
 1762WAT     H1 5528   6.562   4.625   5.169
 1762WAT     H2 5529   6.436   4.676   5.258
 1763WAT      O 5530   5.453   5.561   7.655
 1763WAT     H1 5531   5.371   5.614   7.673
 1763WAT     H2 5532   5.532   5.604   7.700
 1764WAT      O 5533   2.365   5.865   8.418
 1764WAT     H1 5534   2.422   5.941   8.385
 1764WAT     H2 5535   2.419   5.781   8.419
 1765WAT      O 5536   0.475   8.702   7.647
 1765WAT     H1 5537   0.569   8.728   7.625
 1765WAT     H2 5538   0.458   8.608   7.617
 1766WAT      O 5539   1.865   2.585   3.434
 1766WAT     H1 5540   1.824   2.590   3.525
 1766WAT     H2 5541   1.903   2.674   3.409
 1767WAT      O 5542   7.909   1.258   4.656
 1767WAT     H1 5543   7.917   1.338   4.597
 1767WAT     H2 5544   7.814   1.249   4.686
 1768WAT      O 5545   0.919   1.298   8.470
 1768WAT     H1 5546   1.009   1.340   8.456
 1768WAT     H2 5547   0.931   1.202   8.495
 1769WAT      O 5548   9.558   8.354   1.211
 1769WAT     H1 5549   9.647   8.376   1.172
 1769WAT     H2 5550   9.486   8.388   1.150
 1770WAT      O 5551   2.312   6.260   4.491
 1770WAT     H1 5552   2.407   6.288   4.484
 1770WAT     H2 5553   2.306   6.171   4.535
 1771WAT      O 5554   8.060   7.645   3.134
 1771WAT     H1 5555   8.058   7.721   3.070
 1771WAT     H2 5556   8.063   7.559   3.083
 1772WAT      O 5557   0.448   3.369   7.942
 1772WAT     H1 5558   0.516   3.433   7.979
 1772WAT     H2 5559   0.461   3.360   7.843
 1773WAT      O 5560   1.284   4.923   3.048
 1773WAT     H1 5561   1.352   4.892   2.981
 1773WAT     H2 5562   1.192   4.913   3.010
 1774WAT      O 5563   2.253   8.834   7.990
 1774WAT     H1 5564   2.211   8.869   8.074
 1774WAT     H2 5565   2.239   8.735   7.984
 1775WAT      O 5566   3.105   9.741   4.137
 1775WAT     H1 5567   3.140   9.832   4.113
 1775WAT     H2 5568   3.177   9.690   4.185
 1776WAT      O 5569   5.525   8.986   8.019
 1776WAT     H1 5570   5.584   8.941   8.085
 1776WAT     H2 5571   5.432   8.951   8.027
 1777WAT      O 5572   5.429   5.322   9.612
 1777WAT     H1 5573   5.449   5.238   9.561
 1777WAT     H2 5574   5.463   5.313   9.706
 1778WAT      O 5575   2.110   2.768   2.566
 1778WAT     H1 5576   2.143   2.700   2.501
 1778WAT     H2 5577   2.166   2.764   2.649
 1779WAT      O 5578   0.027   0.590   0.309
 1779WAT     H1 5579  -0.019   0.513   0.265
 1779WAT     H2 5580   0.034   0.572   0.408
 1780WAT      O 5581   3.628   6.182   8.968
 1780WAT     H1 5582   3.565   6.257   8.946
 1780WAT     H2 5583   3.647   6.182   9.066
 1781WAT      O 5584   3.469   1.868   7.590
 1781WAT     H1 5585   3.549   1.818   7.558
 1781WAT     H2 5586   3.495   1.930   7.664
 1782WAT      O 5587   6.843   3.053   3.457
 1782WAT     H1 5588   6.754   3.015   3.431
 1782WAT     H2 5589   6.832   3.149   3.481
 1783WAT      O 5590   3.275   5.117   2.983
 1783WAT     H1 5591   3.328   5.176   2.922
 1783WAT     H2 5592   3.212   5.173   3.037
 1784WAT      O 5593   7.856   6.991   6.129
 1784WAT     H1 5594   7.875   7.066   6.065
 1784WAT     H2 5595   7.908   7.005   6.213
 1785WAT      O 5596   6.881   5.560   6.535
 1785WAT     H1 5597   6.800   5.523   6.581
 1785WAT     H2 5598   6.854   5.603   6.449
 1786WAT      O 5599   6.649   1.570   7.720
 1786WAT     H1 5600   6.725   1.560   7.784
 1786WAT     H2 5601   6.640   1.665   7.692
 1787WAT      O 5602   3.795   1.370   3.339
 1787WAT     H1 5603   3.729   1.355   3.265
 1787WAT     H2 5604   3.888   1.369   3.302
 1788WAT      O 5605   4.241   2.582   4.871
 1788WAT     H1 5606   4.319   2.623   4.825
 1788WAT     H2 5607   4.265   2.562   4.966
 1789WAT      O 5608   4.507   3.120   1.768
 1789WAT     H1 5609   4.512   3.210   1.812
 1789WAT     H2 5610   4.416   3.109   1.727
 1790WAT      O 5611   6.747   1.202   8.872
 1790WAT     H1 5612   6.845   1.192   8.893
 1790WAT     H2 5613   6.716   1.122   8.821
 1791WAT      O 5614   7.592   4.933   8.599
 1791WAT     H1 5615   7.523   4.920   8.670
 1791WAT     H2 5616   7.650   4.852   8.594
 1792WAT      O 5617   0.402   7.532   3.844
 1792WAT     H1 5618   0.406   7.631   3.854
 1792WAT     H2 5619   0.349   7.493   3.919
 1793WAT      O 5620   5.981   8.815   5.778
 1793WAT     H1 5621   5.946   8.796   5.687
 1793WAT     H2 5622   6.038   8.738   5.808
 1794WAT      O 5623   2.119   8.288   1.577
 1794WAT     H1 5624   2.103   8.368   1.520
 1794WAT     H2 5625   2.101   8.310   1.673
 1795WAT      O 5626   3.342   1.173   5.062
 1795WAT     H1 5627   3.250   1.202   5.037
 1795WAT     H2 5628   3.383   1.239   5.124
 1796WAT      O 5629   0.662   0.119   2.481
 1796WAT     H1 5630   0.752   0.137   2.519
 1796WAT     H2 5631   0.628   0.200   2.434
 1797WAT      O 5632   4.266   7.108   0.892
 1797WAT     H1 5633   4.359   7.100   0.927
 1797WAT     H2 5634   4.214   7.172   0.948
 1798WAT      O 5635   4.510   4.444   5.325
 1798WAT     H1 5636   4.610   4.451   5.328
 1798WAT     H2 5637   4.481   4.358   5.367
 1799WAT      O 5638   1.704   5.173   7.537
 1799WAT     H1 5639   1.724   5.199   7.442
 1799WAT     H2 5640   1.731   5.248   7.598
 1800WAT      O 5641   5.417   4.509   0.815
 1800WAT     H1 5642   5.356   4.572   0.768
 1800WAT     H2 5643   5.505   4.506   0.768
 1801WAT      O 5644   9.864   5.223   3.521
 1801WAT     H1 5645   9.932   5.297   3.525
 1801WAT     H2 5646   9.866   5.171   3.606
 1802WAT      O 5647   7.903   4.768   1.282
 1802WAT     H1 5648   7.841   4.721   1.219
 1802WAT     H2 5649   7.857   4.783   1.369
 1803WAT      O 5650   7.054   0.597   6.790
 1803WAT     H1 5651   7.118   0.522   6.773
 1803WAT     H2 5652   7.081   0.646   6.873
 1804WAT      O 5653   7.180   0.422   8.954
 1804WAT     H1 5654   7.250   0.493   8.943
 1804WAT     H2 5655   7.131   0.410   8.868
 1805WAT      O 5656   1.034   5.580   9.558
 1805WAT     H1 5657   1.063   5.668   9.521
 1805WAT     H2 5658   1.107   5.543   9.616
 1806WAT      O 5659   5.223   8.025   5.680
 1806WAT     H1 5660   5.234   7.987   5.772
 1806WAT     H2 5661   5.146   8.088   5.679
 1807WAT      O 5662   9.413   5.037   7.245
 1807WAT     H1 5663   9.334   5.054   7.187
 1807WAT     H2 5664   9.391   5.062   7.340
 1808WAT      O 5665   9.174   8.208   1.967
 1808WAT     H1 5666   9.212   8.116   1.976
 1808WAT     H2 5667   9.103   8.207   1.897
 1809WAT      O 5668   7.480   5.648   1.944
 1809WAT     H1 5669   7.395   5.684   1.981
 1809WAT     H2 5670   7.475   5.549   1.937
 1810WAT      O 5671   6.542   2.084   9.706
 1810WAT     H1 5672   6.553   2.165   9.649
 1810WAT     H2 5673   6.613   2.017   9.684
 1811WAT      O 5674   5.901   1.276   0.060
 1811WAT     H1 5675   5.923   1.327   0.143
 1811WAT     H2 5676   5.922   1.180   0.073
 1812WAT      O 5677   7.766   5.825   0.365
 1812WAT     H1 5678   7.790   5.769   0.444
 1812WAT     H2 5679   7.797   5.780   0.281
 1813WAT      O 5680   4.636   5.216   4.473
 1813WAT     H1 5681   4.607   5.125   4.503
 1813WAT     H2 5682   4.570   5.284   4.505
 1814WAT      O 5683   9.075   9.440   6.817
 1814WAT     H1 5684   9.051   9.456   6.721
 1814WAT     H2 5685   8.992   9.418   6.869
 1815WAT      O 5686   9.786   4.711   6.640
 1815WAT     H1 5687   9.770   4.793   6.584
 1815WAT     H2 5688   9.849   4.734   6.714
 1816WAT      O 5689   7.036   1.087   2.259
 1816WAT     H1 5690   7.047   1.175   2.306
 1816WAT     H2 5691   7.063   1.013   2.320
 1817WAT      O 5692   0.537   6.746   3.223
 1817WAT     H1 5693   0.529   6.815   3.151
 1817WAT     H2 5694   0.479   6.771   3.300
 1818WAT      O 5695   9.354   4.897   1.673
 1818WAT     H1 5696   9.353   4.900   1.574
 1818WAT     H2 5697   9.276   4.844   1.707
 1819WAT      O 5698   5.714   3.287   8.533
 1819WAT     H1 5699   5.705   3.189   8.547
 1819WAT     H2 5700   5.807   3.316   8.555
 1820WAT      O 5701   6.742   5.824   5.909
 1820WAT     H1 5702   6.658   5.859   5.950
 1820WAT     H2 5703   6.747   5.725   5.922
 1821WAT      O 5704   3.340   7.633   9.205
 1821WAT     H1 5705   3.250   7.654   9.242
 1821WAT     H2 5706   3.353   7.681   9.119
 1822WAT      O 5707   7.552   1.785   7.078
 1822WAT     H1 5708   7.501   1.768   7.163
 1822WAT     H2 5709   7.525   1.718   7.009
 1823WAT      O 5710   1.135   2.282   3.609
 1823WAT     H1 5711   1.122   2.351   3.680
 1823WAT     H2 5712   1.223   2.236   3.622
 1824WAT      O 5713   3.475   5.022   1.319
 1824WAT     H1 5714   3.438   5.016   1.226
 1824WAT     H2 5715   3.546   4.953   1.330
 1825WAT      O 5716   9.306   1.415   2.072
 1825WAT     H1 5717   9.220   1.430   2.120
 1825WAT     H2 5718   9.293   1.433   1.974
 1826WAT      O 5719   1.744   7.748   4.268
 1826WAT     H1 5720   1.693   7.717   4.188
 1826WAT     H2 5721   1.839   7.768   4.241
 1827WAT      O 5722   6.566   1.045   8.472
 1827WAT     H1 5723   6.569   0.945   8.475
 1827WAT     H2 5724   6.571   1.075   8.376
 1828WAT      O 5725   0.040   0.565   7.696
 1828WAT     H1 5726  -0.047   0.578   7.744
 1828WAT     H2 5727   0.023   0.521   7.608
 1829WAT      O 5728   4.546   5.381   0.071
 1829WAT     H1 5729   4.629   5.419   0.031
 1829WAT     H2 5730   4.491   5.455   0.110
 1830WAT      O 5731   3.853   3.193   1.801
 1830WAT     H1 5732   3.821   3.098   1.805
 1830WAT     H2 5733   3.953   3.194   1.800
 1831WAT      O 5734   6.653   2.900   6.664
 1831WAT     H1 5735   6.712   2.819   6.667
 1831WAT     H2 5736   6.599   2.905   6.748
 1832WAT      O 5737   4.858   0.743   2.163
 1832WAT     H1 5738   4.878   0.822   2.105
 1832WAT     H2 5739   4.918   0.745   2.244
 1833WAT      O 5740   7.771   4.782   1.496
 1833WAT     H1 5741   7.725   4.696   1.517
 1833WAT     H2 5742   7.703   4.855   1.488
 1834WAT      O 5743   7.588   7.160   1.216
 1834WAT     H1 5744   7.675   7.205   1.235
 1834WAT     H2 5745   7.585   7.131   1.120
 1835WAT      O 5746   6.988   1.922   9.825
 1835WAT     H1 5747   7.005   1.994   9.757
 1835WAT     H2 5748   7.045   1.940   9.906
 1836WAT      O 5749   2.275   6.882   2.709
 1836WAT     H1 5750   2.356   6.907   2.763
 1836WAT     H2 5751   2.304   6.836   2.625
 1837WAT      O 5752   6.250   5.162   1.662
 1837WAT     H1 5753   6.302   5.084   1.625
 1837WAT     H2 5754   6.160   5.164   1.620
 1838WAT      O 5755   2.841   2.420   1.683
 1838WAT     H1 5756   2.865   2.334   1.638
 1838WAT     H2 5757   2.864   2.496   1.622
 1839WAT      O 5758   9.585   7.845   9.248
 1839WAT     H1 5759   9.534   7.761   9.229
 1839WAT     H2 5760   9.539   7.923   9.205
 1840WAT      O 5761   7.274   9.772   1.646
 1840WAT     H1 5762   7.265   9.775   1.546
 1840WAT     H2 5763   7.334   9.846   1.676
 1841WAT      O 5764   6.567   9.384   4.596
 1841WAT     H1 5765   6.499   9.390   4.522
 1841WAT     H2 5766   6.526   9.418   4.681
 1842WAT      O 5767   3.558   7.641   3.178
 1842WAT     H1 5768   3.520   7.673   3.265
 1842WAT     H2 5769   3.498   7.671   3.103
 1843WAT      O 5770   8.335   7.336   4.921
 1843WAT     H1 5771   8.311   7.424   4.961
 1843WAT     H2 5772   8.269   7.267   4.949
 1844WAT      O 5773   2.097   3.130   5.037
 1844WAT     H1 5774   2.177   3.189   5.037
 1844WAT     H2 5775   2.014   3.185   5.041
 1845WAT      O 5776   7.365   1.577   0.665
 1845WAT     H1 5777   7.288   1.593   0.603
 1845WAT     H2 5778   7.396   1.664   0.703
 1846WAT      O 5779   1.643   8.573   1.169
 1846WAT     H1 5780   1.696   8.629   1.233
 1846WAT     H2 5781   1.678   8.586   1.076
 1847WAT      O 5782   8.317   2.460   7.586
 1847WAT     H1 5783   8.279   2.385   7.532
 1847WAT     H2 5784   8.341   2.426   7.678
 1848WAT      O 5785   2.303   2.532   0.833
 1848WAT     H1 5786   2.293   2.490   0.743
 1848WAT     H2 5787   2.224   2.590   0.852
 1849WAT      O 5788   0.624   6.141   2.841
 1849WAT     H1 5789   0.637   6.230   2.885
 1849WAT     H2 5790   0.610   6.155   2.743
 1850WAT      O 5791   7.777   4.182   2.250
 1850WAT     H1 5792   7.810   4.207   2.341
 1850WAT     H2 5793   7.687   4.223   2.235
 1851WAT      O 5794   7.617   1.482   6.716
 1851WAT     H1 5795   7.662   1.543   6.651
 1851WAT     H2 5796   7.684   1.420   6.756
 1852WAT      O 5797   6.117   2.374   4.743
 1852WAT     H1 5798   6.028   2.406   4.711
 1852WAT     H2 5799   6.119   2.376   4.843
 1853WAT      O 5800   2.823   6.312   4.194
 1853WAT     H1 5801   2.916   6.274   4.195
 1853WAT     H2 5802   2.819   6.391   4.255
 1854WAT      O 5803   7.108   8.845   8.999
 1854WAT     H1 5804   7.161   8.763   9.019
 1854WAT     H2 5805   7.027   8.848   9.058
 1855WAT      O 5806   8.951   0.618   2.829
 1855WAT     H1 5807   8.911   0.598   2.918
 1855WAT     H2 5808   9.040   0.573   2.822
 1856WAT      O 5809   8.908   9.307   7.184
 1856WAT     H1 5810   8.984   9.348   7.234
 1856WAT     H2 5811   8.914   9.207   7.190
 1857WAT      O 5812   4.077   8.634   2.788
 1857WAT     H1 5813   4.026   8.597   2.710
 1857WAT     H2 5814   4.049   8.587   2.872
 1858WAT      O 5815   8.703   9.371   6.564
 1858WAT     H1 5816   8.715   9.303   6.637
 1858WAT     H2 5817   8.622   9.425   6.581
 1859WAT      O 5818   0.854   3.998   1.386
 1859WAT     H1 5819   0.837   4.004   1.485
 1859WAT     H2 5820   0.815   4.079   1.341
 1860WAT      O 5821   5.946   0.748   7.996
 1860WAT     H1 5822   6.026   0.690   7.982
 1860WAT     H2 5823   5.902   0.724   8.083
 1861WAT      O 5824   1.737   8.083   7.309
 1861WAT     H1 5825   1.659   8.052   7.255
 1861WAT     H2 5826   1.794   8.143   7.253
 1862WAT      O 5827   2.382   1.029   9.720
 1862WAT     H1 5828   2.481   1.043   9.714
 1862WAT     H2 5829   2.362   0.932   9.712
 1863WAT      O 5830   1.284   0.802   9.006
 1863WAT     H1 5831   1.269   0.898   9.033
 1863WAT     H2 5832   1.282   0.795   8.907
 1864WAT      O 5833   6.483   8.485   4.961
 1864WAT     H1 5834   6.432   8.564   4.926
 1864WAT     H2 5835   6.445   8.457   5.049
 1865WAT      O 5836   8.595   3.186   5.152
 1865WAT     H1 5837   8.590   3.270   5.098
 1865WAT     H2 5838   8.610   3.208   5.248
 1866WAT      O 5839   5.798   3.878   8.992
 1866WAT     H1 5840   5.714   3.824   9.002
 1866WAT     H2 5841   5.821   3.920   9.080
 1867WAT      O 5842   3.367   1.377   3.525
 1867WAT     H1 5843   3.408   1.348   3.438
 1867WAT     H2 5844   3.337   1.296   3.575
 1868WAT      O 5845   8.477   0.072   5.514
 1868WAT     H1 5846   8.544   0.129   5.562
 1868WAT     H2 5847   8.485   0.087   5.416
 1869WAT      O 5848   8.042   9.652   9.593
 1869WAT     H1 5849   7.949   9.669   9.562
 1869WAT     H2 5850   8.055   9.691   9.685
 1870WAT      O 5851   9.555   2.422   6.112
 1870WAT     H1 5852   9.465   2.399   6.149
 1870WAT     H2 5853   9.558   2.519   6.089
 1871WAT      O 5854   1.849   2.712   5.671
 1871WAT     H1 5855   1.836   2.757   5.582
 1871WAT     H2 5856   1.815   2.618   5.665
 1872WAT      O 5857   1.150   0.894   6.366
 1872WAT     H1 5858   1.213   0.881   6.289
 1872WAT     H2 5859   1.106   0.808   6.388
 1873WAT      O 5860   9.438   7.149   1.443
 1873WAT     H1 5861   9.424   7.203   1.526
 1873WAT     H2 5862   9.533   7.156   1.414
 1874WAT      O 5863   2.012   5.928   3.427
 1874WAT     H1 5864   1.924   5.882   3.422
 1874WAT     H2 5865   2.074   5.878   3.487
 1875WAT      O 5866   5.820   8.891   4.051
 1875WAT     H1 5867   5.869   8.962   4.001
 1875WAT     H2 5868   5.807   8.812   3.992
 1876WAT      O 5869   8.985   8.860   8.065
 1876WAT     H1 5870   9.033   8.926   8.007
 1876WAT     H2 5871   8.997   8.886   8.161
 1877WAT      O 5872   6.419   7.021   7.885
 1877WAT     H1 5873   6.353   6.959   7.927
 1877WAT     H2 5874   6.495   6.968   7.846
 1878WAT      O 5875   4.637   3.513   8.107
 1878WAT     H1 5876   4.681   3.577   8.169
 1878WAT     H2 5877   4.560   3.468   8.153
 1879WAT      O 5878   3.426   4.143   8.504
 1879WAT     H1 5879   3.509   4.199   8.497
 1879WAT     H2 5880   3.384   4.159   8.594
 1880WAT      O 5881   8.075   5.331   1.801
 1880WAT     H1 5882   8.007   5.366   1.736
 1880WAT     H2 5883   8.151   5.289   1.751
 1881WAT      O 5884   2.327   0.856   8.160
 1881WAT     H1 5885   2.375   0.930   8.207
 1881WAT     H2 5886   2.394   0.793   8.121
 1882WAT      O 5887   2.815   4.610   0.148
 1882WAT     H1 5888   2.720   4.597   0.119
 1882WAT     H2 5889   2.816   4.662   0.234
 1883WAT      O 5890   6.747   7.462   5.239
 1883WAT     H1 5891   6.776   7.449   5.333
 1883WAT     H2 5892   6.771   7.382   5.184
 1884WAT      O 5893   2.076   2.088   6.402
 1884WAT     H1 5894   2.167   2.067   6.439
 1884WAT     H2 5895   2.023   2.138   6.470
 1885WAT      O 5896   1.573   4.425   7.867
 1885WAT     H1 5897   1.622   4.512   7.867
 1885WAT     H2 5898   1.621   4.360   7.926
 1886WAT      O 5899   7.396  -0.001   7.368
 1886WAT     H1 5900   7.354   0.090   7.362
 1886WAT     H2 5901   7.451  -0.008   7.451
 1887WAT      O 5902   4.408   4.563   2.206
 1887WAT     H1 5903   4.357   4.494   2.258
 1887WAT     H2 5904   4.420   4.532   2.112
 1888WAT      O 5905   2.433   9.267   2.739
 1888WAT     H1 5906   2.409   9.225   2.826
 1888WAT     H2 5907   2.489   9.203   2.686
 1889WAT      O 5908   8.714   6.996   0.900
 1889WAT     H1 5909   8.711   6.902   0.933
 1889WAT     H2 5910   8.806   7.033   0.912
 1890WAT      O 5911   6.756   9.512   1.347
 1890WAT     H1 5912   6.702   9.564   1.280
 1890WAT     H2 5913   6.851   9.505   1.315
 1891WAT      O 5914   8.824   6.343   7.753
 1891WAT     H1 5915   8.794   6.283   7.678
 1891WAT     H2 5916   8.754   6.344   7.824
 1892WAT      O 5917   6.247   7.622   5.981
 1892WAT     H1 5918   6.298   7.696   6.026
 1892WAT     H2 5919   6.309   7.571   5.922
 1893WAT      O 5920   2.402   6.975   8.326
 1893WAT     H1 5921   2.371   6.909   8.394
 1893WAT     H2 5922   2.323   7.016   8.281
 1894WAT      O 5923   3.427   1.608   7.385
 1894WAT     H1 5924   3.520   1.619   7.419
 1894WAT     H2 5925   3.414   1.662   7.302
 1895WAT      O 5926   6.506   0.618   3.466
 1895WAT     H1 5927   6.533   0.709   3.437
 1895WAT     H2 5928   6.488   0.618   3.565
 1896WAT      O 5929   0.340   7.465   2.212
 1896WAT     H1 5930   0.420   7.406   2.223
 1896WAT     H2 5931   0.261   7.422   2.256
 1897WAT      O 5932   9.529   3.344   1.118
 1897WAT     H1 5933   9.503   3.407   1.044
 1897WAT     H2 5934   9.598   3.387   1.175
 1898WAT      O 5935   9.328   9.777   7.529
 1898WAT     H1 5936   9.281   9.828   7.457
 1898WAT     H2 5937   9.427   9.783   7.516
 1899WAT      O 5938   9.460   3.593   5.114
 1899WAT     H1 5939   9.495   3.503   5.142
 1899WAT     H2 5940   9.536   3.656   5.103
 1900WAT      O 5941   3.297   1.767   2.146
 1900WAT     H1 5942   3.308   1.726   2.055
 1900WAT     H2 5943   3.366   1.729   2.208
 1901WAT      O 5944   6.634   4.326   7.325
 1901WAT     H1 5945   6.674   4.405   7.278
 1901WAT     H2 5946   6.535   4.333   7.322
 1902WAT      O 5947   7.419   3.336   7.801
 1902WAT     H1 5948   7.464   3.417   7.837
 1902WAT     H2 5949   7.452   3.255   7.849
 1903WAT      O 5950   4.544   7.619   2.482
 1903WAT     H1 5951   4.552   7.676   2.400
 1903WAT     H2 5952   4.634   7.601   2.520
 1904WAT      O 5953   3.261   5.709   7.276
 1904WAT     H1 5954   3.295   5.722   7.183
 1904WAT     H2 5955   3.161   5.711   7.275
 1905WAT      O 5956   3.896   3.912   2.370
 1905WAT     H1 5957   3.878   3.956   2.282
 1905WAT     H2 5958   3.911   3.814   2.356
 1906WAT      O 5959   8.901   2.664   4.849
 1906WAT     H1 5960   8.806   2.696   4.838
 1906WAT     H2 5961   8.929   2.614   4.768
 1907WAT      O 5962   0.230   0.011   7.439
 1907WAT     H1 5963   0.233   0.102   7.480
 1907WAT     H2 5964   0.157   0.007   7.371
 1908WAT      O 5965   2.533   7.203   9.440
 1908WAT     H1 5966   2.586   7.147   9.376
 1908WAT     H2 5967   2.451   7.153   9.468
 1909WAT      O 5968   2.052   9.031   8.442
 1909WAT     H1 5969   2.118   9.098   8.409
 1909WAT     H2 5970   2.067   8.944   8.395
 1910WAT      O 5971   3.481   7.958   8.879
 1910WAT     H1 5972   3.471   8.049   8.839
 1910WAT     H2 5973   3.550   7.961   8.952
 1911WAT      O 5974   8.774   8.693   1.310
 1911WAT     H1 5975   8.722   8.693   1.224
 1911WAT     H2 5976   8.821   8.781   1.320
 1912WAT      O 5977   4.995   4.893   8.462
 1912WAT     H1 5978   5.055   4.817   8.487
 1912WAT     H2 5979   4.934   4.914   8.539
 1913WAT      O 5980   1.704   8.297   0.937
 1913WAT     H1 5981   1.657   8.282   0.851
 1913WAT     H2 5982   1.667   8.236   1.007
 1914WAT      O 5983   0.596   5.627   8.313
 1914WAT     H1 5984   0.615   5.715   8.356
 1914WAT     H2 5985   0.681   5.579   8.295
 1915WAT      O 5986   4.288   1.613   0.805
 1915WAT     H1 5987   4.348   1.684   0.840
 1915WAT     H2 5988   4.251   1.641   0.716
 1916WAT      O 5989   8.130   7.309   8.308
 1916WAT     H1 5990   8.211   7.344   8.355
 1916WAT     H2 5991   8.090   7.382   8.252
 1917WAT      O 5992   1.349   4.402   6.751
 1917WAT     H1 5993   1.337   4.380   6.654
 1917WAT     H2 5994   1.426   4.465   6.762
 1918WAT      O 5995   5.453   8.713   7.255
 1918WAT     H1 5996   5.386   8.758   7.196
 1918WAT     H2 5997   5.463   8.618   7.228
 1919WAT      O 5998   9.289   7.425   4.855
 1919WAT     H1 5999   9.254   7.488   4.924
 1919WAT     H2 6000   9.320   7.477   4.775
 1920WAT      O 6001   3.015   4.957   0.960
 1920WAT     H1 6002   3.020   5.027   1.031
 1920WAT     H2 6003   2.949   4.887   0.987
 1921WAT      O 6004   3.167   6.169   5.581
 1921WAT     H1 6005   3.201   6.219   5.662
 1921WAT     H2 6006   3.182   6.225   5.500
 1922WAT      O 6007   9.478   4.611   4.324
 1922WAT     H1 6008   9.410   4.570   4.265
 1922WAT     H2 6009   9.446   4.608   4.419
 1923WAT      O 6010   1.965   4.614   5.337
 1923WAT     H1 6011   2.030   4.539   5.351
 1923WAT     H2 6012   1.925   4.639   5.425
 1924WAT      O 6013   8.108   2.575   2.924
 1924WAT     H1 6014   8.104   2.477   2.941
 1924WAT     H2 6015   8.026   2.619   2.961
 1925WAT      O 6016   5.857   8.204   9.511
 1925WAT     H1 6017   5.928   8.270   9.538
 1925WAT     H2 6018   5.883   8.113   9.542
 1926WAT      O 6019   8.056   2.671   8.477
 1926WAT     H1 6020   8.138   2.636   8.521
 1926WAT     H2 6021   8.048   2.769   8.492
 1927WAT      O 6022   7.150   9.782   9.805
 1927WAT     H1 6023   7.241   9.753   9.834
 1927WAT     H2 6024   7.146   9.882   9.803
 1928WAT      O 6025   3.944   4.697   7.899
 1928WAT     H1 6026   4.035   4.740   7.899
 1928WAT     H2 6027   3.875   4.766   7.875
 1929WAT      O 6028   3.691   1.889   0.062
 1929WAT     H1 6029   3.671   1.913   0.157
 1929WAT     H2 6030   3.773   1.831   0.058
 1930WAT      O 6031   9.365   0.769   3.632
 1930WAT     H1 6032   9.357   0.848   3.693
 1930WAT     H2 6033   9.346   0.798   3.538
 1931WAT      O 6034   7.293   9.693   2.556
 1931WAT     H1 6035   7.241   9.642   2.625
 1931WAT     H2 6036   7.389   9.667   2.560
 1932WAT      O 6037   6.973   7.710   5.836
 1932WAT     H1 6038   7.004   7.707   5.741
 1932WAT     H2 6039   6.966   7.806   5.866
 1933WAT      O 6040   8.358   1.831   8.652
 1933WAT     H1 6041   8.372   1.801   8.558
 1933WAT     H2 6042   8.283   1.896   8.657
 1934WAT      O 6043   5.891   2.259   7.244
 1934WAT     H1 6044   5.920   2.192   7.175
 1934WAT     H2 6045   5.914   2.351   7.213
 1935WAT      O 6046   4.770   7.674   7.629
 1935WAT     H1 6047   4.831   7.690   7.552
 1935WAT     H2 6048   4.676   7.662   7.596
 1936WAT      O 6049   7.340   5.768   5.315
 1936WAT     H1 6050   7.376   5.859   5.336
 1936WAT     H2 6051   7.367   5.742   5.222
 1937WAT      O 6052   7.931   0.996   0.984
 1937WAT     H1 6053   7.976   0.928   1.043
 1937WAT     H2 6054   7.902   1.073   1.040
 1938WAT      O 6055   0.609   3.580   3.252
 1938WAT     H1 6056   0.644   3.556   3.343
 1938WAT     H2 6057   0.686   3.587   3.188
 1939WAT      O 6058   4.028   7.213   9.076
 1939WAT     H1 6059   4.063   7.135   9.024
 1939WAT     H2 6060   4.103   7.268   9.110
 1940WAT      O 6061   3.501   9.510   4.991
 1940WAT     H1 6062   3.406   9.487   5.011
 1940WAT     H2 6063   3.530   9.584   5.051
 1941WAT      O 6064   9.183   0.776   5.140
 1941WAT     H1 6065   9.223   0.845   5.200
 1941WAT     H2 6066   9.239   0.694   5.139
 1942WAT      O 6067   1.479   5.735   8.173
 1942WAT     H1 6068   1.512   5.728   8.079
 1942WAT     H2 6069   1.462   5.831   8.196
 1943WAT      O 6070   4.743   1.660   4.470
 1943WAT     H1 6071   4.685   1.581   4.488
 1943WAT     H2 6072   4.799   1.679   4.551
 1944WAT      O 6073   3.063   7.724   8.462
 1944WAT     H1 6074   2.970   7.707   8.493
 1944WAT     H2 6075   3.093   7.648   8.404
 1945WAT      O 6076   8.008   7.478   0.483
 1945WAT     H1 6077   7.935   7.416   0.453
 1945WAT     H2 6078   7.979   7.527   0.564
 1946WAT      O 6079   1.586   6.920   9.080
 1946WAT     H1 6080   1.610   7.013   9.052
 1946WAT     H2 6081   1.665   6.878   9.125
 1947WAT      O 6082   6.749   3.409   9.044
 1947WAT     H1 6083   6.795   3.454   8.967
 1947WAT     H2 6084   6.817   3.355   9.095
 1948WAT      O 6085   3.919   2.270   7.493
 1948WAT     H1 6086   3.939   2.262   7.395
 1948WAT     H2 6087   3.961   2.194   7.542
 1949WAT      O 6088   9.076   0.112   1.042
 1949WAT     H1 6089   9.024   0.032   1.069
 1949WAT     H2 6090   9.015   0.180   1.001
 1950WAT      O 6091   4.727   8.620   8.135
 1950WAT     H1 6092   4.719   8.713   8.171
 1950WAT     H2 6093   4.701   8.619   8.039
 1951WAT      O 6094   9.449   6.887   1.981
 1951WAT     H1 6095   9.375   6.855   2.039
 1951WAT     H2 6096   9.441   6.845   1.891
 1952WAT      O 6097   6.645   3.050   4.777
 1952WAT     H1 6098   6.720   3.071   4.841
 1952WAT     H2 6099   6.576   3.122   4.783
 1953WAT      O 6100   2.994   6.374   5.923
 1953WAT     H1 6101   2.946   6.422   5.849
 1953WAT     H2 6102   2.932   6.310   5.967
 1954WAT      O 6103   5.371   1.149   3.800
 1954WAT     H1 6104   5.299   1.219   3.793
 1954WAT     H2 6105   5.354   1.093   3.882
 1955WAT      O 6106   7.934   5.936   6.414
 1955WAT     H1 6107   7.972   6.026   6.433
 1955WAT     H2 6108   7.917   5.928   6.315
 1956WAT      O 6109   3.270   5.606   8.385
 1956WAT     H1 6110   3.282   5.705   8.391
 1956WAT     H2 6111   3.198   5.584   8.319
 1957WAT      O 6112   2.669   0.755   0.217
 1957WAT     H1 6113   2.735   0.687   0.248
 1957WAT     H2 6114   2.608   0.714   0.149
 1958WAT      O 6115   9.872   5.532   9.530
 1958WAT     H1 6116   9.901   5.465   9.462
 1958WAT     H2 6117   9.790   5.498   9.576
 1959WAT      O 6118   1.656   1.610   9.532
 1959WAT     H1 6119   1.692   1.578   9.444
 1959WAT     H2 6120   1.668   1.539   9.601
 1960WAT      O 6121   6.701   4.783   7.118
 1960WAT     H1 6122   6.721   4.870   7.164
 1960WAT     H2 6123   6.698   4.798   7.019
 1961WAT      O 6124   5.354   6.071   4.997
 1961WAT     H1 6125   5.303   6.155   4.981
 1961WAT     H2 6126   5.445   6.093   5.034
 1962WAT      O 6127   6.041   9.837   1.794
 1962WAT     H1 6128   6.035   9.890   1.878
 1962WAT     H2 6129   6.135   9.838   1.760
 1963WAT      O 6130   0.760   6.122   8.331
 1963WAT     H1 6131   0.740   6.196   8.395
 1963WAT     H2 6132   0.765   6.035   8.380
 1964WAT      O 6133   6.777   7.580   9.090
 1964WAT     H1 6134   6.782   7.585   9.190
 1964WAT     H2 6135   6.827   7.499   9.059
 1965WAT      O 6136   1.408   4.482   3.939
 1965WAT     H1 6137   1.366   4.515   4.024
 1965WAT     H2 6138   1.387   4.386   3.926
 1966WAT      O 6139   0.639   6.523   7.792
 1966WAT     H1 6140   0.551   6.523   7.744
 1966WAT     H2 6141   0.648   6.608   7.844
 1967WAT      O 6142   3.477   7.343   6.065
 1967WAT     H1 6143   3.542   7.326   5.992
 1967WAT     H2 6144   3.523   7.333   6.154
 1968WAT      O 6145   8.861   4.535   3.693
 1968WAT     H1 6146   8.767   4.537   3.658
 1968WAT     H2 6147   8.921   4.495   3.624
 1969WAT      O 6148   4.295   0.422   6.266
 1969WAT     H1 6149   4.204   0.405   6.229
 1969WAT     H2 6150   4.355   0.454   6.193
 1970WAT      O 6151   2.171   5.167   5.132
 1970WAT     H1 6152   2.167   5.259   5.094
 1970WAT     H2 6153   2.166   5.100   5.058
 1971WAT      O 6154   5.425   0.228   7.744
 1971WAT     H1 6155   5.416   0.230   7.644
 1971WAT     H2 6156   5.519   0.207   7.768
 1972WAT      O 6157   2.082   7.073   2.630
 1972WAT     H1 6158   2.110   7.166   2.652
 1972WAT     H2 6159   2.158   7.010   2.649
 1973WAT      O 6160   1.032   2.692   6.508
 1973WAT     H1 6161   1.116   2.746   6.514
 1973WAT     H2 6162   0.961   2.733   6.565
 1974WAT      O 6163   3.837   7.203   2.440
 1974WAT     H1 6164   3.825   7.144   2.520
 1974WAT     H2 6165   3.864   7.148   2.361
 1975WAT      O 6166   0.489   7.329   3.286
 1975WAT     H1 6167   0.555   7.254   3.295
 1975WAT     H2 6168   0.405   7.295   3.245
 1976WAT      O 6169   2.202   3.010   4.594
 1976WAT     H1 6170   2.223   2.941   4.663
 1976WAT     H2 6171   2.145   3.081   4.634
 1977WAT      O 6172   8.553   1.564   9.702
 1977WAT     H1 6173   8.513   1.496   9.764
 1977WAT     H2 6174   8.480   1.608   9.650
 1978WAT      O 6175   7.826   0.136   4.515
 1978WAT     H1 6176   7.799   0.158   4.421
 1978WAT     H2 6177   7.870   0.046   4.517
 1979WAT      O 6178   7.074   4.215   9.871
 1979WAT     H1 6179   7.069   4.124   9.829
 1979WAT     H2 6180   7.168   4.248   9.865
 1980WAT      O 6181   5.716   7.564   1.688
 1980WAT     H1 6182   5.747   7.542   1.595
 1980WAT     H2 6183   5.725   7.482   1.746
 1981WAT      O 6184   6.661   0.976   4.553
 1981WAT     H1 6185   6.626   0.995   4.645
 1981WAT     H2 6186   6.693   0.882   4.548
 1982WAT      O 6187   5.027   4.411   5.927
 1982WAT     H1 6188   5.054   4.496   5.883
 1982WAT     H2 6189   5.031   4.336   5.861
 1983WAT      O 6190   0.306   8.105   3.888
 1983WAT     H1 6191   0.265   8.096   3.797
 1983WAT     H2 6192   0.243   8.155   3.948
 1984WAT      O 6193   7.812   5.160   0.859
 1984WAT     H1 6194   7.726   5.204   0.830
 1984WAT     H2 6195   7.821   5.072   0.814
 1985WAT      O 6196   1.909   3.474   7.287
 1985WAT     H1 6197   1.937   3.498   7.380
 1985WAT     H2 6198   1.813   3.446   7.288
 1986WAT      O 6199   8.911   1.012   0.038
 1986WAT     H1 6200   8.857   1.096   0.042
 1986WAT     H2 6201   8.865   0.945  -0.021
 1987WAT      O 6202   2.180   4.177   5.209
 1987WAT     H1 6203   2.250   4.192   5.140
 1987WAT     H2 6204   2.093   4.156   5.165
 1988WAT      O 6205   5.259   8.534   4.126
 1988WAT     H1 6206   5.281   8.521   4.223
 1988WAT     H2 6207   5.224   8.449   4.088
 1989WAT      O 6208   2.575   6.965   3.265
 1989WAT     H1 6209   2.592   6.901   3.191
 1989WAT     H2 6210   2.652   6.964   3.329
 1990WAT      O 6211   6.747   8.161   9.082
 1990WAT     H1 6212   6.667   8.217   9.108
 1990WAT     H2 6213   6.721   8.065   9.081
 1991WAT      O 6214   6.476   9.329   6.144
 1991WAT     H1 6215   6.429   9.396   6.086
 1991WAT     H2 6216   6.412   9.292   6.210
 1992WAT      O 6217   6.928   1.439   0.684
 1992WAT     H1 6218   6.903   1.535   0.671
 1992WAT     H2 6219   6.915   1.390   0.598
 1993WAT      O 6220   4.335   6.989   8.596
 1993WAT     H1 6221   4.241   6.956   8.593
 1993WAT     H2 6222   4.391   6.927   8.651
 1994WAT      O 6223   1.529   8.801  -0.002
 1994WAT     H1 6224   1.537   8.842   0.089
 1994WAT     H2 6225   1.454   8.735  -0.002
 1995WAT      O 6226   8.954   8.143   8.581
 1995WAT     H1 6227   9.047   8.167   8.552
 1995WAT     H2 6228   8.956   8.109   8.675
 1996WAT      O 6229   0.935   6.720   8.813
 1996WAT     H1 6230   0.859   6.663   8.783
 1996WAT     H2 6231   0.943   6.714   8.913
 1997WAT      O 6232   9.565   6.441   6.327
 1997WAT     H1 6233   9.524   6.354   6.356
 1997WAT     H2 6234   9.600   6.490   6.407
 1998WAT      O 6235   2.079   1.688   5.472
 1998WAT     H1 6236   2.009   1.630   5.429
 1998WAT     H2 6237   2.085   1.666   5.569
 1999WAT      O 6238   1.799   0.417   7.777
 1999WAT     H1 6239   1.794   0.338   7.838
 1999WAT     H2 6240   1.708   0.437   7.741
 2000WAT      O 6241   3.801   1.102   1.135
 2000WAT     H1 6242   3.741   1.065   1.206
 2000WAT     H2 6243   3.760   1.184   1.095
 2001WAT      O 6244   8.544   3.278   8.767
 2001WAT     H1 6245   8.552   3.222   8.849
 2001WAT     H2 6246   8.460   3.332   8.772
 2002WAT      O 6247   3.273   7.815   7.025
 2002WAT     H1 6248   3.322   7.838   7.109
 2002WAT     H2 6249   3.300   7.723   6.995
 2003WAT      O 6250   9.571   6.030   4.128
 2003WAT     H1 6251   9.587   5.993   4.037
 2003WAT     H2 6252   9.610   5.969   4.197
 2004WAT      O 6253   8.225   2.661   5.888
 2004WAT     H1 6254   8.291   2.677   5.814
 2004WAT     H2 6255   8.264   2.597   5.954
 2005WAT      O 6256   0.572   7.123   9.221
 2005WAT     H1 6257   0.478   7.136   9.253
 2005WAT     H2 6258   0.595   7.026   9.224
 2006WAT      O 6259   4.511   6.070   8.450
 2006WAT     H1 6260   4.507   5.970   8.439
 2006WAT     H2 6261   4.423   6.103   8.483
 2007WAT      O 6262   5.746   4.828   6.602
 2007WAT     H1 6263   5.846   4.825   6.602
 2007WAT     H2 6264   5.710   4.773   6.527
 2008WAT      O 6265   5.521   3.159   1.895
 2008WAT     H1 6266   5.431   3.201   1.902
 2008WAT     H2 6267   5.539   3.103   1.976
 2009WAT      O 6268   3.998   1.472   7.537
 2009WAT     H1 6269   3.930   1.511   7.599
 2009WAT     H2 6270   3.960   1.389   7.495
 2010WAT      O 6271   7.433   4.155   2.430
 2010WAT     H1 6272   7.442   4.221   2.356
 2010WAT     H2 6273   7.513   4.161   2.490
 2011WAT      O 6274   7.005   3.584   0.219
 2011WAT     H1 6275   7.069   3.661   0.223
 2011WAT     H2 6276   6.919   3.610   0.262
 2012WAT      O 6277   0.818   8.454   6.711
 2012WAT     H1 6278   0.852   8.392   6.641
 2012WAT     H2 6279   0.793   8.541   6.669
 2013WAT      O 6280   2.793   6.938   1.888
 2013WAT     H1 6281   2.772   6.936   1.790
 2013WAT     H2 6282   2.822   7.031   1.914
 2014WAT      O 6283   4.213   9.610   8.921
 2014WAT     H1 6284   4.116   9.595   8.935
 2014WAT     H2 6285   4.257   9.630   9.008
 2015WAT      O 6286   3.247   3.571   0.531
 2015WAT     H1 6287   3.302   3.571   0.448
 2015WAT     H2 6288   3.189   3.653   0.532
 2016WAT      O 6289   5.384   3.644   7.579
 2016WAT     H1 6290   5.430   3.713   7.635
 2016WAT     H2 6291   5.395   3.554   7.621
 2017WAT      O 6292   0.424   5.321   6.170
 2017WAT     H1 6293   0.487   5.398   6.172
 2017WAT     H2 6294   0.417   5.286   6.077
 2018WAT      O 6295   7.475   9.798   5.097
 2018WAT     H1 6296   7.446   9.710   5.134
 2018WAT     H2 6297   7.458   9.799   4.998
 2019WAT      O 6298   5.591   9.166   3.305
 2019WAT     H1 6299   5.635   9.230   3.242
 2019WAT     H2 6300   5.661   9.109   3.348
 2020WAT      O 6301   9.366   3.801   4.350
 2020WAT     H1 6302   9.272   3.781   4.376
 2020WAT     H2 6303   9.387   3.896   4.371
 2021WAT      O 6304   2.610   7.537   1.980
 2021WAT     H1 6305   2.580   7.450   2.020
 2021WAT     H2 6306   2.535   7.577   1.928
 2022WAT      O 6307   7.726   4.531   8.292
 2022WAT     H1 6308   7.781   4.600   8.246
 2022WAT     H2 6309   7.633   4.533   8.257
 2023WAT      O 6310   6.206   9.362   1.835
 2023WAT     H1 6311   6.261   9.351   1.918
 2023WAT     H2 6312   6.240   9.440   1.783
 2024WAT      O 6313   9.599   2.752   1.564
 2024WAT     H1 6314   9.617   2.657   1.538
 2024WAT     H2 6315   9.621   2.812   1.487
 2025WAT      O 6316   0.782   0.884   4.447
 2025WAT     H1 6317   0.864   0.940   4.433
 2025WAT     H2 6318   0.777   0.813   4.376
 2026WAT      O 6319   5.859   1.631   4.257
 2026WAT     H1 6320   5.852   1.719   4.211
 2026WAT     H2 6321   5.941   1.629   4.314
 2027WAT      O 6322   7.038   8.826   1.087
 2027WAT     H1 6323   7.066   8.917   1.057
 2027WAT     H2 6324   7.102   8.757   1.053
 2028WAT      O 6325   7.727   7.447   7.078
 2028WAT     H1 6326   7.695   7.363   7.033
 2028WAT     H2 6327   7.803   7.486   7.026
 2029WAT      O 6328   2.136   2.256   6.737
 2029WAT     H1 6329   2.128   2.158   6.718
 2029WAT     H2 6330   2.076   2.307   6.676
 2030WAT      O 6331   7.973   0.370   7.227
 2030WAT     H1 6332   8.002   0.359   7.132
 2030WAT     H2 6333   7.893   0.429   7.230
 2031WAT      O 6334   8.772   6.942   8.380
 2031WAT     H1 6335   8.840   6.996   8.431
 2031WAT     H2 6336   8.819   6.872   8.327
 2032WAT      O 6337   4.700   6.625   7.206
 2032WAT     H1 6338   4.700   6.637   7.306
 2032WAT     H2 6339   4.618   6.575   7.179
 2033WAT      O 6340   5.552   6.036   7.818
 2033WAT     H1 6341   5.466   6.071   7.856
 2033WAT     H2 6342   5.590   5.967   7.880
 2034WAT      O 6343   5.534   8.998   6.557
 2034WAT     H1 6344   5.508   9.071   6.619
 2034WAT     H2 6345   5.633   9.001   6.541
 2035WAT      O 6346   5.243   1.993   6.654
 2035WAT     H1 6347   5.287   1.943   6.579
 2035WAT     H2 6348   5.210   2.081   6.620
 2036WAT      O 6349   6.771   0.007   8.579
 2036WAT     H1 6350   6.804   0.052   8.662
 2036WAT     H2 6351   6.779   0.070   8.502
 2037WAT      O 6352   1.590   6.957   7.917
 2037WAT     H1 6353   1.674   6.929   7.871
 2037WAT     H2 6354   1.613   7.007   8.000
 2038WAT      O 6355   3.589   9.797   5.604
 2038WAT     H1 6356   3.599   9.854   5.685
 2038WAT     H2 6357   3.649   9.718   5.611
 2039WAT      O 6358   6.117   6.054   4.421
 2039WAT     H1 6359   6.192   6.048   4.487
 2039WAT     H2 6360   6.138   5.998   4.341
 2040WAT      O 6361   2.953   8.340   0.640
 2040WAT     H1 6362   2.956   8.307   0.545
 2040WAT     H2 6363   2.865   8.385   0.656
 2041WAT      O 6364   4.433   1.691   7.053
 2041WAT     H1 6365   4.412   1.789   7.050
 2041WAT     H2 6366   4.355   1.639   7.019
 2042WAT      O 6367   8.737   5.834   4.176
 2042WAT     H1 6368   8.782   5.745   4.179
 2042WAT     H2 6369   8.807   5.906   4.170
 2043WAT      O 6370   4.350   8.840   0.913
 2043WAT     H1 6371   4.410   8.919   0.909
 2043WAT     H2 6372   4.338   8.801   0.822
 2044WAT      O 6373   8.007   2.303   8.185
 2044WAT     H1 6374   8.053   2.282   8.099
 2044WAT     H2 6375   7.910   2.319   8.169
 2045WAT      O 6376   7.377   4.922   3.882
 2045WAT     H1 6377   7.297   4.886   3.931
 2045WAT     H2 6378   7.398   5.014   3.916
 2046WAT      O 6379   4.546   6.536   3.444
 2046WAT     H1 6380   4.609   6.548   3.367
 2046WAT     H2 6381   4.561   6.609   3.511
 2047WAT      O 6382   1.626   7.516   9.743
 2047WAT     H1 6383   1.578   7.429   9.754
 2047WAT     H2 6384   1.663   7.545   9.831
 2048WAT      O 6385   6.270   2.376   7.474
 2048WAT     H1 6386   6.254   2.278   7.472
 2048WAT     H2 6387   6.199   2.421   7.528
 2049WAT      O 6388   2.857   8.070   4.940
 2049WAT     H1 6389   2.841   8.166   4.916
 2049WAT     H2 6390   2.827   8.055   5.034
 2050WAT      O 6391   7.543   5.134   5.269
 2050WAT     H1 6392   7.582   5.087   5.348
 2050WAT     H2 6393   7.463   5.187   5.297
 2051WAT      O 6394   8.356   7.954   0.630
 2051WAT     H1 6395   8.292   7.886   0.594
 2051WAT     H2 6396   8.422   7.910   0.690
 2052WAT      O 6397   2.853   3.737   2.713
 2052WAT     H1 6398   2.799   3.654   2.724
 2052WAT     H2 6399   2.813   3.793   2.639
 2053WAT      O 6400   7.435   2.809   6.483
 2053WAT     H1 6401   7.401   2.873   6.414
 2053WAT     H2 6402   7.529   2.832   6.506
 2054WAT      O 6403   5.330   9.254   5.282
 2054WAT     H1 6404   5.272   9.180   5.317
 2054WAT     H2 6405   5.396   9.281   5.352
 2055WAT      O 6406   7.190   2.516   3.740
 2055WAT     H1 6407   7.259   2.521   3.812
 2055WAT     H2 6408   7.182   2.605   3.696
 2056WAT      O 6409   6.684   4.737   2.091
 2056WAT     H1 6410   6.718   4.661   2.146
 2056WAT     H2 6411   6.686   4.821   2.146
 2057WAT      O 6412   4.995   4.788   0.658
 2057WAT     H1 6413   4.962   4.848   0.585
 2057WAT     H2 6414   4.994   4.693   0.627
 2058WAT      O 6415   9.258   2.086   4.358
 2058WAT     H1 6416   9.318   2.006   4.353
 2058WAT     H2 6417   9.163   2.057   4.369
 2059WAT      O 6418   8.181   8.728   6.581
 2059WAT     H1 6419   8.238   8.795   6.534
 2059WAT     H2 6420   8.086   8.738   6.551
 2060WAT      O 6421   4.778   7.565   8.295
 2060WAT     H1 6422   4.742   7.635   8.234
 2060WAT     H2 6423   4.871   7.542   8.267
 2061WAT      O 6424   0.131   9.496   5.321
 2061WAT     H1 6425   0.121   9.433   5.398
 2061WAT     H2 6426   0.043   9.510   5.277
 2062WAT      O 6427   2.291   1.975   5.833
 2062WAT     H1 6428   2.195   1.977   5.860
 2062WAT     H2 6429   2.300   2.017   5.742
 2063WAT      O 6430   3.206   0.564   2.161
 2063WAT     H1 6431   3.274   0.629   2.195
 2063WAT     H2 6432   3.220   0.475   2.203
 2064WAT      O 6433   6.090   7.298   8.911
 2064WAT     H1 6434   6.070   7.235   8.836
 2064WAT     H2 6435   6.135   7.380   8.873
 2065WAT      O 6436   4.778   1.592   1.103
 2065WAT     H1 6437   4.684   1.620   1.118
 2065WAT     H2 6438   4.780   1.501   1.061
 2066WAT      O 6439   9.144   0.490   6.692
 2066WAT     H1 6440   9.058   0.539   6.681
 2066WAT     H2 6441   9.187   0.477   6.603
 2067WAT      O 6442   2.027   9.555   8.754
 2067WAT     H1 6443   1.958   9.601   8.810
 2067WAT     H2 6444   2.045   9.464   8.791
 2068WAT      O 6445   7.897   8.576   2.045
 2068WAT     H1 6446   7.797   8.576   2.045
 2068WAT     H2 6447   7.930   8.587   1.951
 2069WAT      O 6448   5.345   0.116   6.475
 2069WAT     H1 6449   5.285   0.038   6.488
 2069WAT     H2 6450   5.320   0.165   6.392
 2070WAT      O 6451   6.740   5.500   0.695
 2070WAT     H1 6452   6.665   5.487   0.629
 2070WAT     H2 6453   6.827   5.478   0.651
 2071WAT      O 6454   9.876   6.485   5.840
 2071WAT     H1 6455   9.876   6.406   5.779
 2071WAT     H2 6456   9.790   6.487   5.891
 2072WAT      O 6457   3.936   9.225   6.554
 2072WAT     H1 6458   4.018   9.189   6.600
 2072WAT     H2 6459   3.943   9.211   6.456
 2073WAT      O 6460   3.437   4.294   9.764
 2073WAT     H1 6461   3.535   4.296   9.780
 2073WAT     H2 6462   3.411   4.373   9.708
 2074WAT      O 6463   7.892   3.702   9.641
 2074WAT     H1 6464   7.891   3.802   9.634
 2074WAT     H2 6465   7.897   3.662   9.550
 2075WAT      O 6466   3.277   9.538   7.045
 2075WAT     H1 6467   3.201   9.530   7.108
 2075WAT     H2 6468   3.258   9.611   6.979
 2076WAT      O 6469   4.117   3.740   1.414
 2076WAT     H1 6470   4.132   3.666   1.480
 2076WAT     H2 6471   4.177   3.727   1.335
 2077WAT      O 6472   7.024   7.704   6.450
 2077WAT     H1 6473   6.952   7.734   6.388
 2077WAT     H2 6474   6.984   7.653   6.526
 2078WAT      O 6475   7.807   6.374   5.521
 2078WAT     H1 6476   7.749   6.346   5.444
 2078WAT     H2 6477   7.778   6.463   5.554
 2079WAT      O 6478   0.365   3.918   2.879
 2079WAT     H1 6479   0.365   3.882   2.786
 2079WAT     H2 6480   0.360   3.843   2.945
 2080WAT      O 6481   9.853   9.682   7.691
 2080WAT     H1 6482   9.867   9.598   7.744
 2080WAT     H2 6483   9.837   9.659   7.595
 2081WAT      O 6484   5.073   1.028   8.380
 2081WAT     H1 6485   5.171   1.013   8.368
 2081WAT     H2 6486   5.028   0.942   8.403
 2082WAT      O 6487   8.635   6.236   9.267
 2082WAT     H1 6488   8.712   6.196   9.217
 2082WAT     H2 6489   8.554   6.178   9.255
 2083WAT      O 6490   2.257   7.935   1.797
 2083WAT     H1 6491   2.159   7.933   1.815
 2083WAT     H2 6492   2.272   7.942   1.698
 2084WAT      O 6493   0.875   4.412   5.267
 2084WAT     H1 6494   0.868   4.475   5.343
 2084WAT     H2 6495   0.796   4.350   5.267
 2085WAT      O 6496   1.690   1.131   1.403
 2085WAT     H1 6497   1.698   1.218   1.354
 2085WAT     H2 6498   1.611   1.134   1.464
 2086WAT      O 6499   6.165   7.631   0.057
 2086WAT     H1 6500   6.135   7.650   0.151
 2086WAT     H2 6501   6.138   7.538   0.033
 2087WAT      O 6502   1.819   5.868   2.692
 2087WAT     H1 6503   1.727   5.884   2.727
 2087WAT     H2 6504   1.826   5.901   2.598
 2088WAT      O 6505   8.185   1.526   7.040
 2088WAT     H1 6506   8.090   1.558   7.040
 2088WAT     H2 6507   8.238   1.577   7.109
 2089WAT      O 6508   8.448   5.638   6.065
 2089WAT     H1 6509   8.528   5.688   6.034
 2089WAT     H2 6510   8.373   5.651   5.999
 2090WAT      O 6511   9.710   5.366   3.290
 2090WAT     H1 6512   9.733   5.317   3.374
 2090WAT     H2 6513   9.764   5.450   3.285
 2091WAT      O 6514   4.752   5.978   3.291
 2091WAT     H1 6515   4.800   5.889   3.290
 2091WAT     H2 6516   4.745   6.013   3.198
 2092WAT      O 6517   6.174   6.914   4.160
 2092WAT     H1 6518   6.221   6.864   4.233
 2092WAT     H2 6519   6.242   6.954   4.098
 2093WAT      O 6520   9.023   0.683   7.695
 2093WAT     H1 6521   8.979   0.743   7.629
 2093WAT     H2 6522   8.953   0.641   7.753
 2094WAT      O 6523   6.373   4.634   2.247
 2094WAT     H1 6524   6.283   4.676   2.231
 2094WAT     H2 6525   6.422   4.627   2.160
 2095WAT      O 6526   3.414   9.409   6.023
 2095WAT     H1 6527   3.402   9.310   6.025
 2095WAT     H2 6528   3.425   9.439   5.928
 2096WAT      O 6529   0.478   4.619   1.059
 2096WAT     H1 6530   0.567   4.656   1.034
 2096WAT     H2 6531   0.433   4.680   1.125
 2097WAT      O 6532   9.656   3.063   3.876
 2097WAT     H1 6533   9.707   3.141   3.841
 2097WAT     H2 6534   9.623   3.008   3.799
 2098WAT      O 6535   2.928   8.304   2.261
 2098WAT     H1 6536   2.923   8.204   2.260
 2098WAT     H2 6537   2.871   8.341   2.188
 2099WAT      O 6538   9.586   1.454   5.273
 2099WAT     H1 6539   9.665   1.493   5.321
 2099WAT     H2 6540   9.553   1.520   5.206
 2100WAT      O 6541   1.191   3.439   9.738
 2100WAT     H1 6542   1.110   3.497   9.741
 2100WAT     H2 6543   1.230   3.431   9.830
 2101WAT      O 6544   5.556   5.827   5.943
 2101WAT     H1 6545   5.619   5.823   5.866
 2101WAT     H2 6546   5.462   5.818   5.911
 2102WAT      O 6547   3.831   6.980   3.011
 2102WAT     H1 6548   3.914   6.925   3.017
 2102WAT     H2 6549   3.855   7.073   2.982
 2103WAT      O 6550   5.507   2.935   0.778
 2103WAT     H1 6551   5.441   2.861   0.766
 2103WAT     H2 6552   5.600   2.898   0.777
 2104WAT      O 6553   3.856   9.490   6.630
 2104WAT     H1 6554   3.937   9.548   6.626
 2104WAT     H2 6555   3.882   9.395   6.612
 2105WAT      O 6556   2.503   0.660   5.774
 2105WAT     H1 6557   2.562   0.607   5.712
 2105WAT     H2 6558   2.557   0.730   5.820
 2106WAT      O 6559   6.339   6.038   4.581
 2106WAT     H1 6560   6.412   6.037   4.513
 2106WAT     H2 6561   6.352   5.962   4.644
 2107WAT      O 6562   8.145   9.159   2.605
 2107WAT     H1 6563   8.111   9.249   2.577
 2107WAT     H2 6564   8.141   9.151   2.704
 2108WAT      O 6565   8.945   3.655   8.625
 2108WAT     H1 6566   8.993   3.665   8.713
 2108WAT     H2 6567   8.940   3.744   8.580
 2109WAT      O 6568   7.172   9.177   3.918
 2109WAT     H1 6569   7.189   9.096   3.862
 2109WAT     H2 6570   7.228   9.173   4.000
 2110WAT      O 6571   2.375   3.440   9.832
 2110WAT     H1 6572   2.295   3.498   9.851
 2110WAT     H2 6573   2.345   3.347   9.812
 2111WAT      O 6574   4.464   9.054   7.941
 2111WAT     H1 6575   4.368   9.075   7.925
 2111WAT     H2 6576   4.516   9.070   7.856
 2112WAT      O 6577   9.529   8.843   2.481
 2112WAT     H1 6578   9.539   8.935   2.444
 2112WAT     H2 6579   9.559   8.842   2.576
 2113WAT      O 6580   6.019   6.085   2.990
 2113WAT     H1 6581   6.094   6.076   3.055
 2113WAT     H2 6582   5.949   6.146   3.028
 2114WAT      O 6583   1.196   8.294   9.173
 2114WAT     H1 6584   1.110   8.314   9.126
 2114WAT     H2 6585   1.249   8.378   9.183
 2115WAT      O 6586   9.294   1.928   3.801
 2115WAT     H1 6587   9.369   1.894   3.858
 2115WAT     H2 6588   9.332   1.960   3.714
 2116WAT      O 6589   0.330   3.587   0.246
 2116WAT     H1 6590   0.382   3.525   0.305
 2116WAT     H2 6591   0.324   3.677   0.288
 2117WAT      O 6592   1.405   5.457   7.133
 2117WAT     H1 6593   1.503   5.448   7.119
 2117WAT     H2 6594   1.374   5.390   7.200
 2118WAT      O 6595   2.816   3.052   4.323
 2118WAT     H1 6596   2.898   3.085   4.275
 2118WAT     H2 6597   2.822   3.079   4.420
 2119WAT      O 6598   3.437   2.096   5.194
 2119WAT     H1 6599   3.348   2.051   5.204
 2119WAT     H2 6600   3.436   2.154   5.112
 2120WAT      O 6601   3.274   3.030   7.545
 2120WAT     H1 6602   3.270   2.931   7.531
 2120WAT     H2 6603   3.198   3.074   7.497
 2121WAT      O 6604   7.794   1.468   1.058
 2121WAT     H1 6605   7.717   1.433   1.005
 2121WAT     H2 6606   7.856   1.393   1.081
 2122WAT      O 6607   3.920   6.940   8.749
 2122WAT     H1 6608   3.885   7.016   8.694
 2122WAT     H2 6609   3.845   6.899   8.800
 2123WAT      O 6610   0.500   1.402   1.816
 2123WAT     H1 6611   0.491   1.389   1.718
 2123WAT     H2 6612   0.477   1.317   1.863
 2124WAT      O 6613   1.170   9.014   5.268
 2124WAT     H1 6614   1.119   8.949   5.211
 2124WAT     H2 6615   1.251   8.969   5.305
 2125WAT      O 6616   7.965   3.924   4.395
 2125WAT     H1 6617   8.000   3.857   4.330
 2125WAT     H2 6618   7.874   3.897   4.425
 2126WAT      O 6619   5.106   2.473   5.687
 2126WAT     H1 6620   5.065   2.382   5.691
 2126WAT     H2 6621   5.053   2.535   5.745
 2127WAT      O 6622   0.056   8.084   7.549
 2127WAT     H1 6623   0.141   8.073   7.601
 2127WAT     H2 6624  -0.020   8.100   7.612
 2128WAT      O 6625   8.871   3.423   4.196
 2128WAT     H1 6626   8.922   3.507   4.215
 2128WAT     H2 6627   8.907   3.381   4.112
 2129WAT      O 6628   9.799   0.396   8.201
 2129WAT     H1 6629   9.888   0.374   8.161
 2129WAT     H2 6630   9.741   0.315   8.199
 2130WAT      O 6631   5.450   6.826   3.880
 2130WAT     H1 6632   5.386   6.851   3.807
 2130WAT     H2 6633   5.399   6.786   3.956
 2131WAT      O 6634   2.029   0.747   1.022
 2131WAT     H1 6635   2.070   0.825   0.974
 2131WAT     H2 6636   2.096   0.708   1.085
 2132WAT      O 6637   9.867   3.882   1.385
 2132WAT     H1 6638   9.839   3.818   1.313
 2132WAT     H2 6639   9.801   3.958   1.389
 2133WAT      O 6640   8.704   6.982   4.453
 2133WAT     H1 6641   8.671   6.941   4.538
 2133WAT     H2 6642   8.679   7.079   4.450
 2134WAT      O 6643   2.424   2.009   9.547
 2134WAT     H1 6644   2.427   2.030   9.644
 2134WAT     H2 6645   2.486   2.070   9.498
 2135WAT      O 6646   2.954   5.839   6.918
 2135WAT     H1 6647   3.031   5.825   6.979
 2135WAT     H2 6648   2.987   5.868   6.828
 2136WAT      O 6649   8.231   4.719   2.128
 2136WAT     H1 6650   8.292   4.796   2.147
 2136WAT     H2 6651   8.260   4.672   2.044
 2137WAT      O 6652   9.890   2.537   4.847
 2137WAT     H1 6653   9.815   2.566   4.907
 2137WAT     H2 6654   9.904   2.606   4.775
 2138WAT      O 6655   6.943   4.721   4.631
 2138WAT     H1 6656   6.940   4.621   4.626
 2138WAT     H2 6657   6.940   4.759   4.539
 2139WAT      O 6658   4.049   7.888   3.790
 2139WAT     H1 6659   3.995   7.806   3.807
 2139WAT     H2 6660   4.027   7.957   3.860
 2140WAT      O 6661   1.940   4.197   7.998
 2140WAT     H1 6662   1.989   4.281   8.021
 2140WAT     H2 6663   1.989   4.118   8.035
 2141WAT      O 6664   9.262   8.107   5.403
 2141WAT     H1 6665   9.185   8.096   5.465
 2141WAT     H2 6666   9.229   8.101   5.308
 2142WAT      O 6667   2.581   3.406   0.556
 2142WAT     H1 6668   2.582   3.342   0.479
 2142WAT     H2 6669   2.609   3.496   0.524
 2143WAT      O 6670   3.094   6.718   4.483
 2143WAT     H1 6671   3.180   6.746   4.525
 2143WAT     H2 6672   3.061   6.790   4.422
 2144WAT      O 6673   2.205   0.594   1.989
 2144WAT     H1 6674   2.152   0.545   1.920
 2144WAT     H2 6675   2.177   0.565   2.080
 2145WAT      O 6676   2.844   4.228   0.217
 2145WAT     H1 6677   2.885   4.150   0.265
 2145WAT     H2 6678   2.913   4.299   0.204
 2146WAT      O 6679   8.872   4.156   1.299
 2146WAT     H1 6680   8.945   4.223   1.284
 2146WAT     H2 6681   8.907   4.081   1.355
 2147WAT      O 6682   7.924   8.063   0.949
 2147WAT     H1 6683   7.993   8.084   0.880
 2147WAT     H2 6684   7.886   7.972   0.931
 2148WAT      O 6685   0.659   5.778   2.024
 2148WAT     H1 6686   0.573   5.749   1.983
 2148WAT     H2 6687   0.656   5.762   2.123
 2149WAT      O 6688   6.902   8.129   4.634
 2149WAT     H1 6689   6.810   8.091   4.634
 2149WAT     H2 6690   6.911   8.193   4.711
 2150WAT      O 6691   8.356   5.668   1.105
 2150WAT     H1 6692   8.328   5.716   1.187
 2150WAT     H2 6693   8.436   5.712   1.065
 2151WAT      O 6694   5.481   5.642   9.240
 2151WAT     H1 6695   5.403   5.581   9.230
 2151WAT     H2 6696   5.527   5.652   9.152
 2152WAT      O 6697   0.750   2.603   2.623
 2152WAT     H1 6698   0.780   2.510   2.603
 2152WAT     H2 6699   0.762   2.659   2.541
 2153WAT      O 6700   0.191   4.838   3.470
 2153WAT     H1 6701   0.255   4.798   3.536
 2153WAT     H2 6702   0.107   4.864   3.516
 2154WAT      O 6703   3.464   4.624   6.401
 2154WAT     H1 6704   3.470   4.527   6.425
 2154WAT     H2 6705   3.525   4.644   6.324
 2155WAT      O 6706   3.479   7.115   4.287
 2155WAT     H1 6707   3.486   7.111   4.187
 2155WAT     H2 6708   3.476   7.022   4.324
 2156WAT      O 6709   5.711   7.627   0.521
 2156WAT     H1 6710   5.693   7.593   0.613
 2156WAT     H2 6711   5.714   7.727   0.522
 2157WAT      O 6712   7.884   5.594   2.525
 2157WAT     H1 6713   7.831   5.636   2.598
 2157WAT     H2 6714   7.940   5.663   2.480
 2158WAT      O 6715   0.298   1.085   3.669
 2158WAT     H1 6716   0.321   1.182   3.679
 2158WAT     H2 6717   0.321   1.036   3.753
 2159WAT      O 6718   8.571   2.200   1.127
 2159WAT     H1 6719   8.546   2.105   1.107
 2159WAT     H2 6720   8.633   2.203   1.205
 2160WAT      O 6721   1.903   1.332   4.519
 2160WAT     H1 6722   1.886   1.268   4.444
 2160WAT     H2 6723   1.994   1.371   4.510
 2161WAT      O 6724   9.314   7.625   8.180
 2161WAT     H1 6725   9.366   7.674   8.250
 2161WAT     H2 6726   9.290   7.534   8.213
 2162WAT      O 6727   6.488   0.799   8.177
 2162WAT     H1 6728   6.493   0.797   8.277
 2162WAT     H2 6729   6.440   0.718   8.144
 2163WAT      O 6730   2.618   7.841   9.337
 2163WAT     H1 6731   2.583   7.860   9.429
 2163WAT     H2 6732   2.591   7.748   9.310
 2164WAT      O 6733   2.372   6.337   3.565
 2164WAT     H1 6734   2.332   6.353   3.475
 2164WAT     H2 6735   2.355   6.242   3.592
 2165WAT      O 6736   5.129   2.844   8.670
 2165WAT     H1 6737   5.114   2.764   8.728
 2165WAT     H2 6738   5.179   2.914   8.721
 2166WAT      O 6739   4.714   5.746   1.270
 2166WAT     H1 6740   4.617   5.731   1.290
 2166WAT     H2 6741   4.739   5.695   1.188
 2167WAT      O 6742   1.179   2.334   2.051
 2167WAT     H1 6743   1.180   2.257   1.988
 2167WAT     H2 6744   1.139   2.414   2.006
 2168WAT      O 6745   0.674   1.880   4.334
 2168WAT     H1 6746   0.577   1.903   4.345
 2168WAT     H2 6747   0.686   1.822   4.253
 2169WAT      O 6748   5.540   0.933   5.208
 2169WAT     H1 6749   5.459   0.967   5.254
 2169WAT     H2 6750   5.605   0.899   5.276
 2170WAT      O 6751   9.689   5.534   8.772
 2170WAT     H1 6752   9.630   5.552   8.693
 2170WAT     H2 6753   9.714   5.438   8.774
 2171WAT      O 6754   6.968   9.759   9.232
 2171WAT     H1 6755   6.879   9.715   9.246
 2171WAT     H2 6756   7.030   9.696   9.186
 2172WAT      O 6757   9.347   0.109   0.647
 2172WAT     H1 6758   9.295   0.038   0.695
 2172WAT     H2 6759   9.317   0.114   0.552
 2173WAT      O 6760   4.703   0.731   6.865
 2173WAT     H1 6761   4.665   0.777   6.945
 2173WAT     H2 6762   4.702   0.632   6.879
 2174WAT      O 6763   5.677   8.236   6.354
 2174WAT     H1 6764   5.759   8.238   6.410
 2174WAT     H2 6765   5.672   8.148   6.306
 2175WAT      O 6766   2.720   9.152   7.490
 2175WAT     H1 6767   2.641   9.093   7.505
 2175WAT     H2 6768   2.702   9.212   7.412
 2176WAT      O 6769   1.592   2.153   3.166
 2176WAT     H1 6770   1.640   2.081   3.115
 2176WAT     H2 6771   1.576   2.123   3.260
 2177WAT      O 6772   8.482   6.464   3.020
 2177WAT     H1 6773   8.411   6.496   3.083
 2177WAT     H2 6774   8.562   6.433   3.071
 2178WAT      O 6775   6.870   1.920   7.170
 2178WAT     H1 6776   6.831   1.969   7.092
 2178WAT     H2 6777   6.898   1.829   7.141
 2179WAT      O 6778   2.114   7.500   9.167
 2179WAT     H1 6779   2.145   7.458   9.252
 2179WAT     H2 6780   2.053   7.438   9.119
 2180WAT      O 6781   8.658   4.985   4.551
 2180WAT     H1 6782   8.702   5.028   4.630
 2180WAT     H2 6783   8.725   4.971   4.479
 2181WAT      O 6784   9.238   3.742   5.132
 2181WAT     H1 6785   9.197   3.747   5.224
 2181WAT     H2 6786   9.314   3.677   5.133
 2182WAT      O 6787   2.398   3.622   5.918
 2182WAT     H1 6788   2.378   3.709   5.873
 2182WAT     H2 6789   2.459   3.567   5.860
 2183WAT      O 6790   9.466   9.128   3.814
 2183WAT     H1 6791   9.459   9.193   3.890
 2183WAT     H2 6792   9.556   9.085   3.816
 2184WAT      O 6793   1.622   4.177   2.061
 2184WAT     H1 6794   1.656   4.193   1.969
 2184WAT     H2 6795   1.641   4.083   2.089
 2185WAT      O 6796   9.379   2.259   9.239
 2185WAT     H1 6797   9.325   2.186   9.281
 2185WAT     H2 6798   9.450   2.219   9.181
 2186WAT      O 6799   7.962   1.476   6.476
 2186WAT     H1 6800   7.954   1.401   6.542
 2186WAT     H2 6801   7.902   1.551   6.504
 2187WAT      O 6802   8.125   8.338   3.349
 2187WAT     H1 6803   8.034   8.345   3.307
 2187WAT     H2 6804   8.195   8.359   3.280
 2188WAT      O 6805   1.855   8.572   1.565
 2188WAT     H1 6806   1.954   8.581   1.565
 2188WAT     H2 6807   1.817   8.619   1.485
 2189WAT      O 6808   3.475   1.248   9.081
 2189WAT     H1 6809   3.453   1.344   9.062
 2189WAT     H2 6810   3.419   1.189   9.023
 2190WAT      O 6811   3.741   8.044   8.169
 2190WAT     H1 6812   3.749   8.111   8.242
 2190WAT     H2 6813   3.673   7.975   8.195
 2191WAT      O 6814   3.933   1.697   5.631
 2191WAT     H1 6815   3.941   1.598   5.615
 2191WAT     H2 6816   3.986   1.746   5.562
 2192WAT      O 6817   9.429   3.148   5.466
 2192WAT     H1 6818   9.341   3.197   5.468
 2192WAT     H2 6819   9.486   3.185   5.393
 2193WAT      O 6820   7.858   2.600   8.734
 2193WAT     H1 6821   7.781   2.663   8.727
 2193WAT     H2 6822   7.942   2.644   8.701
 2194WAT      O 6823   8.461   8.298   2.852
 2194WAT     H1 6824   8.363   8.275   2.855
 2194WAT     H2 6825   8.507   8.237   2.787
 2195WAT      O 6826   8.619   4.718   1.074
 2195WAT     H1 6827   8.704   4.677   1.106
 2195WAT     H2 6828   8.545   4.695   1.138
 2196WAT      O 6829   4.698   4.671   5.010
 2196WAT     H1 6830   4.667   4.603   4.943
 2196WAT     H2 6831   4.769   4.630   5.067
 2197WAT      O 6832   5.936   5.833   1.051
 2197WAT     H1 6833   5.966   5.779   0.973
 2197WAT     H2 6834   6.008   5.835   1.120
 2198WAT      O 6835   5.598   0.293   2.449
 2198WAT     H1 6836   5.517   0.248   2.413
 2198WAT     H2 6837   5.673   0.227   2.455
 2199WAT      O 6838   1.621   3.278   9.150
 2199WAT     H1 6839   1.709   3.325   9.158
 2199WAT     H2 6840   1.608   3.245   9.057
 2200WAT      O 6841   3.375   6.197   8.177
 2200WAT     H1 6842   3.276   6.197   8.164
 2200WAT     H2 6843   3.397   6.214   8.273
 2201WAT      O 6844   9.135   8.075   1.009
 2201WAT     H1 6845   9.221   8.024   1.005
 2201WAT     H2 6846   9.145   8.152   1.072
 2202WAT      O 6847   3.611   7.784   1.092
 2202WAT     H1 6848   3.572   7.718   1.027
 2202WAT     H2 6849   3.543   7.807   1.162
 2203WAT      O 6850   9.179   5.400   7.145
 2203WAT     H1 6851   9.143   5.394   7.238
 2203WAT     H2 6852   9.222   5.489   7.131
 2204WAT      O 6853   8.076   9.434   2.546
 2204WAT     H1 6854   8.042   9.469   2.634
 2204WAT     H2 6855   8.001   9.435   2.480
 2205WAT      O 6856   8.439   1.164   1.358
 2205WAT     H1 6857   8.387   1.083   1.329
 2205WAT     H2 6858   8.405   1.245   1.309
 2206WAT      O 6859   6.868   4.770   6.328
 2206WAT     H1 6860   6.963   4.782   6.356
 2206WAT     H2 6861   6.835   4.680   6.358
 2207WAT      O 6862   4.225   9.732   2.963
 2207WAT     H1 6863   4.279   9.751   3.045
 2207WAT     H2 6864   4.136   9.778   2.970
 2208WAT      O 6865   7.249   6.524   6.253
 2208WAT     H1 6866   7.169   6.521   6.312
 2208WAT     H2 6867   7.318   6.586   6.292
 2209WAT      O 6868   8.048   2.972   0.930
 2209WAT     H1 6869   8.116   2.986   1.002
 2209WAT     H2 6870   8.092   2.980   0.841
 2210WAT      O 6871   9.409   0.775   0.392
 2210WAT     H1 6872   9.417   0.677   0.410
 2210WAT     H2 6873   9.500   0.814   0.383
 2211WAT      O 6874   1.975   0.769   1.922
 2211WAT     H1 6875   2.060   0.726   1.952
 2211WAT     H2 6876   1.975   0.774   1.822
 2212WAT      O 6877   6.395   3.927  -0.004
 2212WAT     H1 6878   6.452   4.008   0.008
 2212WAT     H2 6879   6.354   3.901   0.083
 2213WAT      O 6880   9.824   2.875   0.186
 2213WAT     H1 6881   9.761   2.909   0.255
 2213WAT     H2 6882   9.859   2.951   0.132
 2214WAT      O 6883   6.476   6.517   3.805
 2214WAT     H1 6884   6.436   6.590   3.860
 2214WAT     H2 6885   6.407   6.479   3.743
 2215WAT      O 6886   9.513   6.627   0.707
 2215WAT     H1 6887   9.492   6.554   0.771
 2215WAT     H2 6888   9.578   6.691   0.748
 2216WAT      O 6889   4.129   9.238   1.767
 2216WAT     H1 6890   4.094   9.323   1.729
 2216WAT     H2 6891   4.059   9.166   1.756
 2217WAT      O 6892   0.551   6.550   5.245
 2217WAT     H1 6893   0.565   6.464   5.294
 2217WAT     H2 6894   0.640   6.590   5.223
 2218WAT      O 6895   1.059   3.513   0.243
 2218WAT     H1 6896   1.002   3.549   0.169
 2218WAT     H2 6897   1.086   3.419   0.221
 2219WAT      O 6898   9.343   1.518   1.562
 2219WAT     H1 6899   9.294   1.567   1.634
 2219WAT     H2 6900   9.279   1.458   1.513
 2220WAT      O 6901   0.847   7.552   6.228
 2220WAT     H1 6902   0.785   7.588   6.297
 2220WAT     H2 6903   0.836   7.604   6.143
 2221WAT      O 6904   1.806   9.600   0.233
 2221WAT     H1 6905   1.744   9.547   0.290
 2221WAT     H2 6906   1.756   9.676   0.191
 2222WAT      O 6907   9.593   0.704   6.727
 2222WAT     H1 6908   9.687   0.737   6.721
 2222WAT     H2 6909   9.587   0.611   6.691
 2223WAT      O 6910   1.964   8.887   9.588
 2223WAT     H1 6911   1.895   8.864   9.656
 2223WAT     H2 6912   2.046   8.831   9.603
 2224WAT      O 6913   6.163   1.369   5.689
 2224WAT     H1 6914   6.188   1.466   5.693
 2224WAT     H2 6915   6.179   1.335   5.596
 2225WAT      O 6916   1.912   1.198   2.767
 2225WAT     H1 6917   1.983   1.201   2.837
 2225WAT     H2 6918   1.912   1.108   2.723
 2226WAT      O 6919   3.157   7.161   7.376
 2226WAT     H1 6920   3.229   7.230   7.390
 2226WAT     H2 6921   3.156   7.098   7.453
 2227WAT      O 6922   5.483   6.592   9.281
 2227WAT     H1 6923   5.484   6.670   9.344
 2227WAT     H2 6924   5.395   6.545   9.287
 2228WAT      O 6925   8.624   4.974   7.608
 2228WAT     H1 6926   8.670   5.039   7.546
 2228WAT     H2 6927   8.560   5.024   7.666
 2229WAT      O 6928   8.388   5.979   5.457
 2229WAT     H1 6929   8.367   5.919   5.534
 2229WAT     H2 6930   8.336   5.949   5.377
 2230WAT      O 6931   6.637   9.324   5.241
 2230WAT     H1 6932   6.643   9.419   5.213
 2230WAT     H2 6933   6.709   9.271   5.196
 2231WAT      O 6934   0.386   6.795   6.467
 2231WAT     H1 6935   0.342   6.817   6.554
 2231WAT     H2 6936   0.317   6.782   6.397
 2232WAT      O 6937   9.120   0.837   7.367
 2232WAT     H1 6938   9.033   0.788   7.366
 2232WAT     H2 6939   9.115   0.917   7.307
 2233WAT      O 6940   7.998   4.218   7.967
 2233WAT     H1 6941   7.931   4.172   8.026
 2233WAT     H2 6942   7.995   4.316   7.984
 2234WAT      O 6943   6.633   4.262   0.762
 2234WAT     H1 6944   6.728   4.279   0.734
 2234WAT     H2 6945   6.571   4.308   0.699
 2235WAT      O 6946   0.864   7.398   9.750
 2235WAT     H1 6947   0.840   7.301   9.752
 2235WAT     H2 6948   0.959   7.407   9.719
 2236WAT      O 6949   0.750   4.186   2.200
 2236WAT     H1 6950   0.766   4.275   2.157
 2236WAT     H2 6951   0.832   4.158   2.249
 2237WAT      O 6952   2.367   1.539   7.812
 2237WAT     H1 6953   2.296   1.577   7.752
 2237WAT     H2 6954   2.449   1.521   7.758
 2238WAT      O 6955   9.605   3.722   3.690
 2238WAT     H1 6956   9.580   3.772   3.773
 2238WAT     H2 6957   9.642   3.786   3.622
 2239WAT      O 6958   8.666   5.431   5.068
 2239WAT     H1 6959   8.678   5.477   4.979
 2239WAT     H2 6960   8.696   5.336   5.061
 2240WAT      O 6961   1.924   4.779   2.701
 2240WAT     H1 6962   1.824   4.785   2.705
 2240WAT     H2 6963   1.962   4.812   2.788
 2241WAT      O 6964   8.009   9.401   6.291
 2241WAT     H1 6965   8.009   9.323   6.354
 2241WAT     H2 6966   7.963   9.478   6.334
 2242WAT      O 6967   0.651   4.622   4.500
 2242WAT     H1 6968   0.664   4.694   4.431
 2242WAT     H2 6969   0.738   4.606   4.548
 2243WAT      O 6970   9.573   7.664   5.886
 2243WAT     H1 6971   9.559   7.676   5.788
 2243WAT     H2 6972   9.495   7.700   5.936
 2244WAT      O 6973   0.742   3.295   8.020
 2244WAT     H1 6974   0.776   3.328   8.108
 2244WAT     H2 6975   0.779   3.351   7.946
 2245WAT      O 6976   6.308   9.136   1.758
 2245WAT     H1 6977   6.255   9.063   1.801
 2245WAT     H2 6978   6.274   9.225   1.787
 2246WAT      O 6979   1.014   0.686   8.395
 2246WAT     H1 6980   0.932   0.729   8.356
 2246WAT     H2 6981   1.015   0.589   8.371
 2247WAT      O 6982   4.942   0.539   9.875
 2247WAT     H1 6983   4.874   0.610   9.897
 2247WAT     H2 6984   4.917   0.454   9.920
 2248WAT      O 6985   6.986   8.016   6.168
 2248WAT     H1 6986   6.943   7.951   6.231
 2248WAT     H2 6987   7.015   8.097   6.219
 2249WAT      O 6988   8.054   6.369   4.804
 2249WAT     H1 6989   7.997   6.312   4.863
 2249WAT     H2 6990   8.138   6.320   4.780
 2250WAT      O 6991   2.902   8.576   1.600
 2250WAT     H1 6992   2.940   8.622   1.681
 2250WAT     H2 6993   2.851   8.496   1.628
 2251WAT      O 6994   8.689   4.295   8.484
 2251WAT     H1 6995   8.619   4.351   8.528
 2251WAT     H2 6996   8.717   4.338   8.398
 2252WAT      O 6997   4.033   4.618   0.569
 2252WAT     H1 6998   4.066   4.525   0.554
 2252WAT     H2 6999   4.065   4.650   0.659
 2253WAT      O 7000   2.994   1.294   6.856
 2253WAT     H1 7001   2.980   1.287   6.757
 2253WAT     H2 7002   2.938   1.225   6.902
 2254WAT      O 7003   5.552   6.619   4.600
 2254WAT     H1 7004   5.629   6.592   4.543
 2254WAT     H2 7005   5.508   6.537   4.637
 2255WAT      O 7006   0.737   7.124   0.403
 2255WAT     H1 7007   0.828   7.148   0.437
 2255WAT     H2 7008   0.734   7.141   0.304
 2256WAT      O 7009   8.716   7.270   8.235
 2256WAT     H1 7010   8.678   7.197   8.177
 2256WAT     H2 7011   8.815   7.272   8.225
 2257WAT      O 7012   5.269   7.203   2.341
 2257WAT     H1 7013   5.220   7.242   2.419
 2257WAT     H2 7014   5.349   7.152   2.374
 2258WAT      O 7015   1.310   1.226   3.640
 2258WAT     H1 7016   1.390   1.233   3.580
 2258WAT     H2 7017   1.274   1.317   3.659
 2259WAT      O 7018   4.498   6.218   9.412
 2259WAT     H1 7019   4.456   6.269   9.337
 2259WAT     H2 7020   4.503   6.122   9.388
 2260WAT      O 7021   5.572   2.161   5.511
 2260WAT     H1 7022   5.579   2.234   5.443
 2260WAT     H2 7023   5.507   2.188   5.582
 2261WAT      O 7024   1.342   3.641   2.729
 2261WAT     H1 7025   1.287   3.709   2.682
 2261WAT     H2 7026   1.358   3.670   2.823
 2262WAT      O 7027   9.011   2.752   2.201
 2262WAT     H1 7028   9.073   2.715   2.132
 2262WAT     H2 7029   8.985   2.680   2.266
 2263WAT      O 7030   5.154   0.706   4.959
 2263WAT     H1 7031   5.123   0.756   5.039
 2263WAT     H2 7032   5.080   0.700   4.892
 2264WAT      O 7033   3.949   5.676   4.955
 2264WAT     H1 7034   3.981   5.750   4.895
 2264WAT     H2 7035   3.991   5.687   5.045
 2265WAT      O 7036   0.866   9.632   1.013
 2265WAT     H1 7037   0.943   9.629   1.076
 2265WAT     H2 7038   0.784   9.597   1.060
 2266WAT      O 7039   5.875   1.958   8.789
 2266WAT     H1 7040   5.957   2.014   8.792
 2266WAT     H2 7041   5.900   1.863   8.771
 2267WAT      O 7042   1.161   0.319   5.861
 2267WAT     H1 7043   1.124   0.404   5.825
 2267WAT     H2 7044   1.094   0.277   5.923
 2268WAT      O 7045   7.416   5.857   9.516
 2268WAT     H1 7046   7.415   5.953   9.545
 2268WAT     H2 7047   7.457   5.850   9.425
 2269WAT      O 7048   8.621   5.631   7.676
 2269WAT     H1 7049   8.646   5.663   7.768
 2269WAT     H2 7050   8.592   5.709   7.621
 2270WAT      O 7051   7.149   0.567   1.794
 2270WAT     H1 7052   7.120   0.578   1.698
 2270WAT     H2 7053   7.091   0.625   1.852
 2271WAT      O 7054   9.832   9.095   0.150
 2271WAT     H1 7055   9.786   9.052   0.072
 2271WAT     H2 7056   9.875   9.181   0.121
 2272WAT      O 7057   8.234   2.991   0.724
 2272WAT     H1 7058   8.270   3.066   0.780
 2272WAT     H2 7059   8.252   3.011   0.627
 2273WAT      O 7060   7.881   9.473   2.313
 2273WAT     H1 7061   7.806   9.535   2.335
 2273WAT     H2 7062   7.949   9.521   2.256
 2274WAT      O 7063   2.141   5.926   8.759
 2274WAT     H1 7064   2.214   5.936   8.827
 2274WAT     H2 7065   2.098   5.836   8.771
 2275WAT      O 7066   5.162   9.482   3.245
 2275WAT     H1 7067   5.104   9.548   3.198
 2275WAT     H2 7068   5.225   9.531   3.306
 2276WAT      O 7069   9.867   4.451   7.700
 2276WAT     H1 7070   9.909   4.383   7.760
 2276WAT     H2 7071   9.919   4.536   7.705
 2277WAT      O 7072   8.102   3.967   0.327
 2277WAT     H1 7073   8.132   3.952   0.233
 2277WAT     H2 7074   8.181   3.963   0.389
 2278WAT      O 7075   6.984   8.680   6.273
 2278WAT     H1 7076   7.046   8.738   6.221
 2278WAT     H2 7077   6.890   8.707   6.254
 2279WAT      O 7078   5.001   4.066   8.589
 2279WAT     H1 7079   5.010   3.966   8.594
 2279WAT     H2 7080   5.066   4.102   8.522
 2280WAT      O 7081   9.420   2.165   0.681
 2280WAT     H1 7082   9.362   2.241   0.709
 2280WAT     H2 7083   9.375   2.078   0.703
 2281WAT      O 7084   1.209   2.683   7.985
 2281WAT     H1 7085   1.190   2.734   8.068
 2281WAT     H2 7086   1.150   2.602   7.981
 2282WAT      O 7087   0.735   6.734   6.745
 2282WAT     H1 7088   0.654   6.785   6.718
 2282WAT     H2 7089   0.804   6.739   6.673
 2283WAT      O 7090   5.431   2.012   9.890
 2283WAT     H1 7091   5.351   1.965   9.929
 2283WAT     H2 7092   5.442   1.984   9.794
 2284WAT      O 7093   8.736   6.308   2.634
 2284WAT     H1 7094   8.796   6.368   2.688
 2284WAT     H2 7095   8.647   6.301   2.679
 2285WAT      O 7096   7.606   7.581   4.301
 2285WAT     H1 7097   7.579   7.538   4.215
 2285WAT     H2 7098   7.631   7.676   4.284
 2286WAT      O 7099   3.067   7.942   9.845
 2286WAT     H1 7100   3.027   7.919   9.934
 2286WAT     H2 7101   3.044   7.870   9.780
 2287WAT      O 7102   1.914   5.399   8.017
 2287WAT     H1 7103   2.006   5.366   7.997
 2287WAT     H2 7104   1.896   5.482   7.965
 2288WAT      O 7105   5.624   4.931   6.903
 2288WAT     H1 7106   5.565   4.897   6.830
 2288WAT     H2 7107   5.616   5.031   6.908
 2289WAT      O 7108   6.420   6.171   2.540
 2289WAT     H1 7109   6.322   6.183   2.527
 2289WAT     H2 7110   6.460   6.257   2.571
 2290WAT      O 7111   3.728   3.242   7.603
 2290WAT     H1 7112   3.629   3.247   7.590
 2290WAT     H2 7113   3.763   3.158   7.561
 2291WAT      O 7114   4.585   5.392   2.614
 2291WAT     H1 7115   4.558   5.477   2.659
 2291WAT     H2 7116   4.624   5.412   2.524
 2292WAT      O 7117   3.524   6.645   0.430
 2292WAT     H1 7118   3.509   6.740   0.457
 2292WAT     H2 7119   3.535   6.640   0.330
 2293WAT      O 7120   6.179   4.842   4.623
 2293WAT     H1 7121   6.242   4.919   4.628
 2293WAT     H2 7122   6.227   4.757   4.644
 2294WAT      O 7123   8.485   1.804   0.404
 2294WAT     H1 7124   8.437   1.769   0.323
 2294WAT     H2 7125   8.432   1.783   0.486
 2295WAT      O 7126   6.901   9.481   4.826
 2295WAT     H1 7127   6.939   9.561   4.781
 2295WAT     H2 7128   6.812   9.505   4.866
 2296WAT      O 7129   0.192   1.579   1.559
 2296WAT     H1 7130   0.209   1.494   1.509
 2296WAT     H2 7131   0.279   1.620   1.585
 2297WAT      O 7132   1.786   0.289   6.014
 2297WAT     H1 7133   1.864   0.244   5.973
 2297WAT     H2 7134   1.730   0.333   5.943
 2298WAT      O 7135   4.273   7.944   9.438
 2298WAT     H1 7136   4.260   7.848   9.464
 2298WAT     H2 7137   4.260   8.002   9.519
 2299WAT      O 7138   1.638   7.017   3.299
 2299WAT     H1 7139   1.555   7.036   3.248
 2299WAT     H2 7140   1.717   7.050   3.247
 2300WAT      O 7141   4.735   9.361   6.960
 2300WAT     H1 7142   4.818   9.305   6.969
 2300WAT     H2 7143   4.698   9.378   7.051
 2301WAT      O 7144   3.636   2.051   5.830
 2301WAT     H1 7145   3.717   2.081   5.879
 2301WAT     H2 7146   3.574   2.128   5.817
 2302WAT      O 7147   7.546   8.744   5.060
 2302WAT     H1 7148   7.613   8.677   5.094
 2302WAT     H2 7149   7.517   8.717   4.969
 2303WAT      O 7150   4.135   6.987   0.426
 2303WAT     H1 7151   4.163   6.898   0.462
 2303WAT     H2 7152   4.192   7.058   0.465
 2304WAT      O 7153   5.338   6.471   1.915
 2304WAT     H1 7154   5.331   6.555   1.862
 2304WAT     H2 7155   5.348   6.393   1.854
 2305WAT      O 7156   8.199   0.052   9.393
 2305WAT     H1 7157   8.239   0.129   9.345
 2305WAT     H2 7158   8.214  -0.032   9.340
 2306WAT      O 7159   7.358   1.857   4.357
 2306WAT     H1 7160   7.414   1.804   4.293
 2306WAT     H2 7161   7.267   1.815   4.365
 2307WAT      O 7162   7.025   8.096   9.885
 2307WAT     H1 7163   6.988   8.085   9.977
 2307WAT     H2 7164   6.950   8.112   9.821
 2308WAT      O 7165   2.789   6.402   2.957
 2308WAT     H1 7166   2.784   6.356   2.868
 2308WAT     H2 7167   2.794   6.333   3.029
 2309WAT      O 7168   3.354   9.487   1.156
 2309WAT     H1 7169   3.359   9.586   1.141
 2309WAT     H2 7170   3.278   9.449   1.104
 2310WAT      O 7171   2.976   8.912   0.886
 2310WAT     H1 7172   2.896   8.931   0.830
 2310WAT     H2 7173   2.954   8.928   0.982
 2311WAT      O 7174   8.727   4.378   4.756
 2311WAT     H1 7175   8.741   4.474   4.733
 2311WAT     H2 7176   8.712   4.325   4.672
 2312WAT      O 7177   1.833   1.997   9.252
 2312WAT     H1 7178   1.859   1.986   9.348
 2312WAT     H2 7179   1.769   1.925   9.226
 2313WAT      O 7180   1.609   9.146   9.363
 2313WAT     H1 7181   1.698   9.108   9.338
 2313WAT     H2 7182   1.559   9.079   9.418
 2314WAT      O 7183   0.813   2.639   2.878
 2314WAT     H1 7184   0.864   2.725   2.881
 2314WAT     H2 7185   0.783   2.621   2.785
 2315WAT      O 7186   7.994   9.040   9.506
 2315WAT     H1 7187   8.065   9.110   9.504
 2315WAT     H2 7188   7.913   9.073   9.459
 2316WAT      O 7189   6.821   8.110   2.994
 2316WAT     H1 7190   6.873   8.124   3.078
 2316WAT     H2 7191   6.813   8.197   2.944
 2317WAT      O 7192   2.478   7.732   2.188
 2317WAT     H1 7193   2.501   7.817   2.235
 2317WAT     H2 7194   2.553   7.705   2.128
 2318WAT      O 7195   5.530   5.909   8.976
 2318WAT     H1 7196   5.528   5.876   8.882
 2318WAT     H2 7197   5.616   5.957   8.993
 2319WAT      O 7198   5.618   1.220   3.681
 2319WAT     H1 7199   5.529   1.189   3.714
 2319WAT     H2 7200   5.612   1.237   3.583
 2320WAT      O 7201   4.866   3.092   0.520
 2320WAT     H1 7202   4.794   3.150   0.559
 2320WAT     H2 7203   4.886   3.018   0.584
 2321WAT      O 7204   0.830   2.534   9.451
 2321WAT     H1 7205   0.914   2.585   9.468
 2321WAT     H2 7206   0.845   2.468   9.377
 2322WAT      O 7207   4.984   3.491   7.853
 2322WAT     H1 7208   5.050   3.464   7.783
 2322WAT     H2 7209   5.000   3.439   7.937
 2323WAT      O 7210   2.098   0.578   7.426
 2323WAT     H1 7211   2.089   0.564   7.327
 2323WAT     H2 7212   2.056   0.501   7.475
 2324WAT      O 7213   8.306   0.872   3.466
 2324WAT     H1 7214   8.373   0.798   3.467
 2324WAT     H2 7215   8.298   0.911   3.557
 2325WAT      O 7216   4.570   2.780   1.552
 2325WAT     H1 7217   4.621   2.702   1.515
 2325WAT     H2 7218   4.635   2.848   1.587
 2326WAT      O 7219   4.627   8.031   0.820
 2326WAT     H1 7220   4.727   8.022   0.817
 2326WAT     H2 7221   4.595   8.074   0.735
 2327WAT      O 7222   9.064   9.424   4.988
 2327WAT     H1 7223   9.160   9.395   4.977
 2327WAT     H2 7224   9.060   9.522   5.004
 2328WAT      O 7225   2.733   6.765   6.905
 2328WAT     H1 7226   2.638   6.762   6.876
 2328WAT     H2 7227   2.745   6.706   6.985
 2329WAT      O 7228   9.756   8.238   5.020
 2329WAT     H1 7229   9.850   8.272   5.018
 2329WAT     H2 7230   9.695   8.311   5.053
 2330WAT      O 7231   3.558   7.626   5.566
 2330WAT     H1 7232   3.597   7.703   5.616
 2330WAT     H2 7233   3.577   7.636   5.468
 2331WAT      O 7234   1.016   4.889   4.571
 2331WAT     H1 7235   1.084   4.827   4.609
 2331WAT     H2 7236   0.986   4.855   4.482
 2332WAT      O 7237   2.349   7.936   4.814
 2332WAT     H1 7238   2.330   7.934   4.913
 2332WAT     H2 7239   2.445   7.916   4.798
 2333WAT      O 7240   1.200   5.420   0.824
 2333WAT     H1 7241   1.265   5.441   0.897
 2333WAT     H2 7242   1.214   5.483   0.747
 2334WAT      O 7243   4.555   2.336   3.120
 2334WAT     H1 7244   4.647   2.370   3.140
 2334WAT     H2 7245   4.526   2.368   3.030
 2335WAT      O 7246   7.387   5.897   4.123
 2335WAT     H1 7247   7.409   5.799   4.124
 2335WAT     H2 7248   7.359   5.927   4.214
 2336WAT      O 7249   3.370   4.603   9.362
 2336WAT     H1 7250   3.465   4.630   9.372
 2336WAT     H2 7251   3.355   4.564   9.271
 2337WAT      O 7252   2.059   6.931   4.815
 2337WAT     H1 7253   2.149   6.888   4.809
 2337WAT     H2 7254   2.059   7.017   4.762
 2338WAT      O 7255   8.169   8.173   1.630
 2338WAT     H1 7256   8.239   8.240   1.603
 2338WAT     H2 7257   8.087   8.187   1.573
 2339WAT      O 7258   7.977   4.054   4.142
 2339WAT     H1 7259   7.955   4.151   4.129
 2339WAT     H2 7260   8.013   4.040   4.234
 2340WAT      O 7261   0.610   5.746   2.336
 2340WAT     H1 7262   0.695   5.776   2.378
 2340WAT     H2 7263   0.549   5.824   2.324
 2341WAT      O 7264   7.282   6.092   1.892
 2341WAT     H1 7265   7.313   6.067   1.801
 2341WAT     H2 7266   7.357   6.135   1.943
 2342WAT      O 7267   7.998   9.567   9.244
 2342WAT     H1 7268   8.060   9.588   9.168
 2342WAT     H2 7269   8.046   9.513   9.313
 2343WAT      O 7270   9.020   2.158   7.343
 2343WAT     H1 7271   9.102   2.199   7.384
 2343WAT     H2 7272   9.047   2.090   7.275
 2344WAT      O 7273   6.222   2.159   6.154
 2344WAT     H1 7274   6.147   2.191   6.096
 2344WAT     H2 7275   6.272   2.238   6.189
 2345WAT      O 7276   5.300   2.866   4.333
 2345WAT     H1 7277   5.314   2.947   4.276
 2345WAT     H2 7278   5.254   2.892   4.418
 2346WAT      O 7279   1.835   1.490   6.542
 2346WAT     H1 7280   1.860   1.539   6.626
 2346WAT     H2 7281   1.784   1.552   6.482
 2347WAT      O 7282   1.089   7.695   3.148
 2347WAT     H1 7283   1.023   7.770   3.153
 2347WAT     H2 7284   1.086   7.641   3.232
 2348WAT      O 7285   1.686   8.365   6.906
 2348WAT     H1 7286   1.761   8.426   6.877
 2348WAT     H2 7287   1.636   8.334   6.826
 2349WAT      O 7288   3.015   1.148   2.546
 2349WAT     H1 7289   3.094   1.140   2.607
 2349WAT     H2 7290   3.026   1.087   2.468
 2350WAT      O 7291   9.787   9.639   6.264
 2350WAT     H1 7292   9.807   9.557   6.317
 2350WAT     H2 7293   9.841   9.716   6.298
 2351WAT      O 7294   7.422   6.957   9.679
 2351WAT     H1 7295   7.347   6.908   9.634
 2351WAT     H2 7296   7.506   6.946   9.626
 2352WAT      O 7297   7.339   7.754   2.010
 2352WAT     H1 7298   7.382   7.664   2.015
 2352WAT     H2 7299   7.403   7.824   2.042
 2353WAT      O 7300   1.527   5.077   6.142
 2353WAT     H1 7301   1.449   5.138   6.155
 2353WAT     H2 7302   1.600   5.127   6.094
 2354WAT      O 7303   6.873   0.048   1.243
 2354WAT     H1 7304   6.882   0.105   1.324
 2354WAT     H2 7305   6.957   0.051   1.189
 2355WAT      O 7306   5.690   1.270   9.519
 2355WAT     H1 7307   5.729   1.340   9.459
 2355WAT     H2 7308   5.712   1.179   9.484
 2356WAT      O 7309   0.536   8.721   0.273
 2356WAT     H1 7310   0.608   8.702   0.206
 2356WAT     H2 7311   0.507   8.635   0.315
 2357WAT      O 7312   2.725   5.267   6.809
 2357WAT     H1 7313   2.803   5.241   6.752
 2357WAT     H2 7314   2.728   5.217   6.895
 2358WAT      O 7315   0.342   8.900   0.169
 2358WAT     H1 7316   0.406   8.835   0.209
 2358WAT     H2 7317   0.268   8.851   0.123
 2359WAT      O 7318   8.912   0.597   6.657
 2359WAT     H1 7319   8.904   0.586   6.558
 2359WAT     H2 7320   8.909   0.695   6.680
 2360WAT      O 7321   5.285   1.175   6.268
 2360WAT     H1 7322   5.226   1.200   6.191
 2360WAT     H2 7323   5.240   1.104   6.322
 2361WAT      O 7324   2.761   7.966   9.045
 2361WAT     H1 7325   2.720   7.998   9.131
 2361WAT     H2 7326   2.696   7.980   8.971
 2362WAT      O 7327   3.095   5.179   8.583
 2362WAT     H1 7328   3.068   5.104   8.644
 2362WAT     H2 7329   3.065   5.266   8.623
 2363WAT      O 7330   3.063   9.739   0.041
 2363WAT     H1 7331   2.988   9.736  -0.025
 2363WAT     H2 7332   3.032   9.784   0.125
 2364WAT      O 7333   9.011   5.040   0.174
 2364WAT     H1 7334   9.071   4.986   0.115
 2364WAT     H2 7335   9.008   5.135   0.141
 2365WAT      O 7336   3.518   4.094   8.033
 2365WAT     H1 7337   3.470   4.008   8.019
 2365WAT     H2 7338   3.475   4.165   7.978
 2366WAT      O 7339   1.104   7.732   0.460
 2366WAT     H1 7340   1.148   7.771   0.379
 2366WAT     H2 7341   1.005   7.728   0.444
 2367WAT      O 7342   0.892   8.379   3.309
 2367WAT     H1 7343   0.898   8.302   3.373
 2367WAT     H2 7344   0.856   8.347   3.221
 2368WAT      O 7345   4.688   8.729   4.036
 2368WAT     H1 7346   4.772   8.778   4.012
 2368WAT     H2 7347   4.674   8.734   4.135
 2369WAT      O 7348   9.304   9.786   7.039
 2369WAT     H1 7349   9.321   9.690   7.058
 2369WAT     H2 7350   9.221   9.795   6.984
 2370WAT      O 7351   3.400   1.687   3.735
 2370WAT     H1 7352   3.435   1.752   3.668
 2370WAT     H2 7353   3.443   1.598   3.720
 2371WAT      O 7354   7.081   0.533   5.018
 2371WAT     H1 7355   7.080   0.626   5.055
 2371WAT     H2 7356   7.175   0.509   4.992
 2372WAT      O 7357   4.891   1.012   1.254
 2372WAT     H1 7358   4.978   1.024   1.302
 2372WAT     H2 7359   4.837   1.095   1.260
 2373WAT      O 7360   2.371   5.028   9.160
 2373WAT     H1 7361   2.470   5.040   9.156
 2373WAT     H2 7362   2.339   4.988   9.074
 2374WAT      O 7363   2.178   6.122   0.708
 2374WAT     H1 7364   2.177   6.134   0.807
 2374WAT     H2 7365   2.085   6.129   0.672
 2375WAT      O 7366   8.902   7.401   7.391
 2375WAT     H1 7367   8.912   7.486   7.338
 2375WAT     H2 7368   8.909   7.323   7.329
 2376WAT      O 7369   0.018   1.480   3.006
 2376WAT     H1 7370  -0.053   1.534   3.052
 2376WAT     H2 7371   0.055   1.532   2.929
 2377WAT      O 7372   0.897   3.590   5.420
 2377WAT     H1 7373   0.901   3.690   5.414
 2377WAT     H2 7374   0.978   3.556   5.468
 2378WAT      O 7375   7.479   6.922   3.735
 2378WAT     H1 7376   7.483   7.006   3.679
 2378WAT     H2 7377   7.507   6.943   3.828
 2379WAT      O 7378   0.377   7.810   3.918
 2379WAT     H1 7379   0.475   7.796   3.936
 2379WAT     H2 7380   0.362   7.906   3.895
 2380WAT      O 7381   0.773   4.313   6.298
 2380WAT     H1 7382   0.728   4.390   6.252
 2380WAT     H2 7383   0.742   4.307   6.392
 2381WAT      O 7384   6.915   3.219   0.908
 2381WAT     H1 7385   7.012   3.208   0.887
 2381WAT     H2 7386   6.890   3.315   0.904
 2382WAT      O 7387   1.987   0.245   8.009
 2382WAT     H1 7388   1.911   0.184   7.985
 2382WAT     H2 7389   1.968   0.291   8.095
 2383WAT      O 7390   0.545   4.336   7.748
 2383WAT     H1 7391   0.455   4.299   7.770
 2383WAT     H2 7392   0.540   4.389   7.664
 2384WAT      O 7393   5.504   0.589   1.655
 2384WAT     H1 7394   5.561   0.581   1.573
 2384WAT     H2 7395   5.467   0.499   1.679
 2385WAT      O 7396   5.479   8.089   5.976
 2385WAT     H1 7397   5.388   8.050   5.960
 2385WAT     H2 7398   5.544   8.015   5.991
 2386WAT      O 7399   1.694   9.579   1.965
 2386WAT     H1 7400   1.693   9.523   1.882
 2386WAT     H2 7401   1.760   9.654   1.953
 2387WAT      O 7402   6.437   6.601   8.659
 2387WAT     H1 7403   6.346   6.561   8.646
 2387WAT     H2 7404   6.506   6.529   8.655
 2388WAT      O 7405   3.679   1.751   1.277
 2388WAT     H1 7406   3.652   1.698   1.196
 2388WAT     H2 7407   3.643   1.706   1.359
 2389WAT      O 7408   6.392   0.671   4.081
 2389WAT     H1 7409   6.299   0.660   4.116
 2389WAT     H2 7410   6.442   0.736   4.138
 2390WAT      O 7411   2.827   8.827   5.635
 2390WAT     H1 7412   2.767   8.778   5.698
 2390WAT     H2 7413   2.879   8.762   5.580
 2391WAT      O 7414   9.083   9.162   8.027
 2391WAT     H1 7415   9.044   9.232   7.967
 2391WAT     H2 7416   9.182   9.168   8.025
 2392WAT      O 7417   4.799   1.206   0.973
 2392WAT     H1 7418   4.810   1.140   0.898
 2392WAT     H2 7419   4.797   1.158   1.060
 2393WAT      O 7420   1.718   2.762   6.955
 2393WAT     H1 7421   1.641   2.736   6.897
 2393WAT     H2 7422   1.787   2.690   6.954
 2394WAT      O 7423   9.552   9.635   5.448
 2394WAT     H1 7424   9.548   9.549   5.499
 2394WAT     H2 7425   9.616   9.697   5.493
 2395WAT      O 7426   6.778   1.012   2.121
 2395WAT     H1 7427   6.860   1.038   2.171
 2395WAT     H2 7428   6.776   0.913   2.109
 2396WAT      O 7429   4.800   9.338   9.314
 2396WAT     H1 7430   4.846   9.420   9.347
 2396WAT     H2 7431   4.718   9.363   9.263
 2397WAT      O 7432   6.747   5.405   2.955
 2397WAT     H1 7433   6.797   5.491   2.965
 2397WAT     H2 7434   6.655   5.425   2.921
 2398WAT      O 7435   8.061   8.700   3.267
 2398WAT     H1 7436   8.122   8.717   3.344
 2398WAT     H2 7437   7.982   8.647   3.298
 2399WAT      O 7438   2.121   3.802   2.322
 2399WAT     H1 7439   2.151   3.707   2.310
 2399WAT     H2 7440   2.078   3.834   2.238
 2400WAT      O 7441   5.362   4.519   5.862
 2400WAT     H1 7442   5.438   4.576   5.830
 2400WAT     H2 7443   5.364   4.431   5.814
 2401WAT      O 7444   5.122   5.228   2.002
 2401WAT     H1 7445   5.057   5.297   1.969
 2401WAT     H2 7446   5.210   5.272   2.023
 2402WAT      O 7447   3.196   7.235   5.866
 2402WAT     H1 7448   3.259   7.302   5.827
 2402WAT     H2 7449   3.226   7.143   5.840
 2403WAT      O 7450   4.315   7.364   7.136
 2403WAT     H1 7451   4.276   7.432   7.073
 2403WAT     H2 7452   4.240   7.314   7.180
 2404WAT      O 7453   5.971   8.379   2.408
 2404WAT     H1 7454   5.949   8.395   2.311
 2404WAT     H2 7455   5.887   8.373   2.461
 2405WAT      O 7456   3.827   7.779   8.680
 2405WAT     H1 7457   3.919   7.785   8.720
 2405WAT     H2 7458   3.806   7.865   8.632
 2406WAT      O 7459   7.130   5.517   9.322
 2406WAT     H1 7460   7.151   5.422   9.297
 2406WAT     H2 7461   7.080   5.561   9.248
 2407WAT      O 7462   4.497   3.366   1.872
 2407WAT     H1 7463   4.514   3.414   1.958
 2407WAT     H2 7464   4.438   3.422   1.814
 2408WAT      O 7465   0.524   8.411   4.344
 2408WAT     H1 7466   0.435   8.369   4.322
 2408WAT     H2 7467   0.528   8.503   4.305
 2409WAT      O 7468   2.663   6.780   9.373
 2409WAT     H1 7469   2.706   6.694   9.345
 2409WAT     H2 7470   2.580   6.760   9.425
 2410WAT      O 7471   7.897   6.873   4.753
 2410WAT     H1 7472   7.947   6.958   4.737
 2410WAT     H2 7473   7.956   6.809   4.801
 2411WAT      O 7474   3.857   4.465   1.277
 2411WAT     H1 7475   3.849   4.505   1.368
 2411WAT     H2 7476   3.770   4.472   1.229
 2412WAT      O 7477   6.360   6.120   1.570
 2412WAT     H1 7478   6.286   6.181   1.601
 2412WAT     H2 7479   6.387   6.145   1.477
 2413WAT      O 7480   5.342   8.657   2.428
 2413WAT     H1 7481   5.343   8.690   2.523
 2413WAT     H2 7482   5.248   8.655   2.395
 2414WAT      O 7483   6.638   9.646   8.009
 2414WAT     H1 7484   6.618   9.705   7.931
 2414WAT     H2 7485   6.658   9.553   7.976
 2415WAT      O 7486   3.127   5.755   6.062
 2415WAT     H1 7487   3.166   5.713   5.981
 2415WAT     H2 7488   3.093   5.846   6.039
 2416WAT      O 7489   1.048   0.818   0.888
 2416WAT     H1 7490   0.982   0.814   0.963
 2416WAT     H2 7491   1.023   0.751   0.818
 2417WAT      O 7492   9.746   0.181   5.338
 2417WAT     H1 7493   9.794   0.217   5.258
 2417WAT     H2 7494   9.678   0.114   5.309
 2418WAT      O 7495   3.533   5.140   8.990
 2418WAT     H1 7496   3.489   5.123   9.078
 2418WAT     H2 7497   3.565   5.235   8.985
 2419WAT      O 7498   9.307   6.629   9.321
 2419WAT     H1 7499   9.270   6.701   9.262
 2419WAT     H2 7500   9.375   6.577   9.269
 2420WAT      O 7501   2.312   4.195   7.278
 2420WAT     H1 7502   2.247   4.119   7.277
 2420WAT     H2 7503   2.354   4.204   7.187
 2421WAT      O 7504   8.284   6.758   3.597
 2421WAT     H1 7505   8.344   6.683   3.622
 2421WAT     H2 7506   8.189   6.729   3.605
 2422WAT      O 7507   9.848   0.615   5.581
 2422WAT     H1 7508   9.824   0.635   5.485
 2422WAT     H2 7509   9.846   0.517   5.596
 2423WAT      O 7510   0.045   4.043   0.489
 2423WAT     H1 7511   0.032   4.135   0.527
 2423WAT     H2 7512  -0.044   4.000   0.474
 2424WAT      O 7513   1.136   1.729   1.400
 2424WAT     H1 7514   1.120   1.675   1.483
 2424WAT     H2 7515   1.072   1.701   1.329
 2425WAT      O 7516   3.483   4.342   5.037
 2425WAT     H1 7517   3.465   4.268   4.972
 2425WAT     H2 7518   3.538   4.307   5.113
 2426WAT      O 7519   6.232   5.359   7.183
 2426WAT     H1 7520   6.139   5.392   7.196
 2426WAT     H2 7521   6.272   5.401   7.101
 2427WAT      O 7522   0.376   6.761   8.222
 2427WAT     H1 7523   0.287   6.773   8.266
 2427WAT     H2 7524   0.393   6.838   8.160
 2428WAT      O 7525   6.713   8.458   0.351
 2428WAT     H1 7526   6.674   8.368   0.366
 2428WAT     H2 7527   6.776   8.455   0.274
 2429WAT      O 7528   2.772   0.039   9.692
 2429WAT     H1 7529   2.781  -0.048   9.740
 2429WAT     H2 7530   2.681   0.045   9.650
 2430WAT      O 7531   3.556   1.034   2.391
 2430WAT     H1 7532   3.542   1.074   2.301
 2430WAT     H2 7533   3.547   0.934   2.386
 2431WAT      O 7534   1.903   7.281   4.183
 2431WAT     H1 7535   1.908   7.380   4.176
 2431WAT     H2 7536   1.807   7.253   4.191
 2432WAT      O 7537   8.488   5.259   8.132
 2432WAT     H1 7538   8.509   5.163   8.149
 2432WAT     H2 7539   8.565   5.302   8.086
 2433WAT      O 7540   6.669   2.870   0.530
 2433WAT     H1 7541   6.586   2.819   0.550
 2433WAT     H2 7542   6.696   2.922   0.612
 2434WAT      O 7543   5.513   5.743   8.205
 2434WAT     H1 7544   5.549   5.688   8.279
 2434WAT     H2 7545   5.420   5.773   8.228
 2435WAT      O 7546   8.710   4.265   6.609
 2435WAT     H1 7547   8.720   4.297   6.515
 2435WAT     H2 7548   8.626   4.303   6.649
 2436WAT      O 7549   4.304   4.839   1.722
 2436WAT     H1 7550   4.299   4.902   1.799
 2436WAT     H2 7551   4.212   4.819   1.688
 2437WAT      O 7552   6.111   0.022   0.766
 2437WAT     H1 7553   6.044   0.057   0.702
 2437WAT     H2 7554   6.082  -0.069   0.799
 2438WAT      O 7555   0.395   5.231   8.593
 2438WAT     H1 7556   0.430   5.325   8.599
 2438WAT     H2 7557   0.335   5.223   8.513
 2439WAT      O 7558   7.651   1.140   8.386
 2439WAT     H1 7559   7.604   1.226   8.366
 2439WAT     H2 7560   7.598   1.064   8.349
 2440WAT      O 7561   9.304   0.135   4.483
 2440WAT     H1 7562   9.236   0.088   4.426
 2440WAT     H2 7563   9.271   0.227   4.504
 2441WAT      O 7564   8.658   7.399   7.504
 2441WAT     H1 7565   8.755   7.390   7.480
 2441WAT     H2 7566   8.637   7.338   7.581
 2442WAT      O 7567   3.101   7.899   5.205
 2442WAT     H1 7568   3.146   7.986   5.183
 2442WAT     H2 7569   3.147   7.825   5.157
 2443WAT      O 7570   7.481   9.365   4.234
 2443WAT     H1 7571   7.522   9.438   4.289
 2443WAT     H2 7572   7.533   9.354   4.149
 2444WAT      O 7573   4.793   1.557   2.628
 2444WAT     H1 7574   4.856   1.578   2.703
 2444WAT     H2 7575   4.767   1.641   2.581
 2445WAT      O 7576   0.604   5.882   6.191
 2445WAT     H1 7577   0.565   5.855   6.279
 2445WAT     H2 7578   0.702   5.900   6.202
 2446WAT      O 7579   1.653   4.891   4.178
 2446WAT     H1 7580   1.681   4.969   4.234
 2446WAT     H2 7581   1.651   4.917   4.082
 2447WAT      O 7582   5.182   9.750   7.513
 2447WAT     H1 7583   5.216   9.802   7.591
 2447WAT     H2 7584   5.258   9.701   7.470
 2448WAT      O 7585   5.819   4.231   8.258
 2448WAT     H1 7586   5.734   4.280   8.276
 2448WAT     H2 7587   5.851   4.251   8.166
 2449WAT      O 7588   4.035   4.942   8.510
 2449WAT     H1 7589   3.970   5.016   8.494
 2449WAT     H2 7590   3.994   4.855   8.481
 2450WAT      O 7591   2.936   5.127   2.686
 2450WAT     H1 7592   2.887   5.210   2.658
 2450WAT     H2 7593   2.999   5.148   2.760
 2451WAT      O 7594   1.464   8.375   6.669
 2451WAT     H1 7595   1.385   8.405   6.616
 2451WAT     H2 7596   1.488   8.281   6.644
 2452WAT      O 7597   1.517   0.553   6.920
 2452WAT     H1 7598   1.604   0.601   6.932
 2452WAT     H2 7599   1.458   0.573   6.998
 2453WAT      O 7600   9.397   2.393   2.454
 2453WAT     H1 7601   9.398   2.485   2.493
 2453WAT     H2 7602   9.404   2.326   2.528
 2454WAT      O 7603   1.257   2.974   6.940
 2454WAT     H1 7604   1.162   3.002   6.926
 2454WAT     H2 7605   1.274   2.960   7.037
 2455WAT      O 7606   4.058   7.960   9.747
 2455WAT     H1 7607   4.032   8.056   9.754
 2455WAT     H2 7608   4.092   7.928   9.836
 2456WAT      O 7609   2.713   9.412   0.220
 2456WAT     H1 7610   2.799   9.405   0.270
 2456WAT     H2 7611   2.722   9.364   0.132
 2457WAT      O 7612   2.091   2.276   4.845
 2457WAT     H1 7613   2.016   2.336   4.872
 2457WAT     H2 7614   2.055   2.193   4.802
 2458WAT      O 7615   6.414   9.458   8.824
 2458WAT     H1 7616   6.465   9.500   8.749
 2458WAT     H2 7617   6.405   9.359   8.807
 2459WAT      O 7618   1.802   5.745   3.344
 2459WAT     H1 7619   1.860   5.670   3.314
 2459WAT     H2 7620   1.711   5.711   3.367
 2460WAT      O 7621   3.948   9.412   9.886
 2460WAT     H1 7622   4.026   9.458   9.929
 2460WAT     H2 7623   3.944   9.318   9.919
 2461WAT      O 7624   0.513   8.282   4.581
 2461WAT     H1 7625   0.511   8.324   4.491
 2461WAT     H2 7626   0.586   8.323   4.636
 2462WAT      O 7627   7.164   9.083   5.588
 2462WAT     H1 7628   7.084   9.142   5.581
 2462WAT     H2 7629   7.244   9.138   5.612
 2463WAT      O 7630   5.184   4.531   8.639
 2463WAT     H1 7631   5.205   4.478   8.721
 2463WAT     H2 7632   5.256   4.516   8.571
 2464WAT      O 7633   2.170   7.083   3.026
 2464WAT     H1 7634   2.207   7.073   3.118
 2464WAT     H2 7635   2.242   7.117   2.965
 2465WAT      O 7636   9.723   6.535   5.357
 2465WAT     H1 7637   9.697   6.626   5.390
 2465WAT     H2 7638   9.666   6.510   5.279
 2466WAT      O 7639   5.373   3.514   1.893
 2466WAT     H1 7640   5.361   3.454   1.972
 2466WAT     H2 7641   5.293   3.574   1.885
 2467WAT      O 7642   9.597   1.019   6.034
 2467WAT     H1 7643   9.632   1.011   6.128
 2467WAT     H2 7644   9.630   1.105   5.994
 2468WAT      O 7645   6.093   1.140   3.865
 2468WAT     H1 7646   6.153   1.063   3.885
 2468WAT     H2 7647   6.016   1.108   3.809
 2469WAT      O 7648   8.295   2.413   6.002
 2469WAT     H1 7649   8.277   2.360   5.919
 2469WAT     H2 7650   8.386   2.453   5.996
 2470WAT      O 7651   3.463   0.170   9.873
 2470WAT     H1 7652   3.430   0.078   9.894
 2470WAT     H2 7653   3.526   0.200   9.944
 2471WAT      O 7654   9.127   9.830   8.438
 2471WAT     H1 7655   9.046   9.795   8.486
 2471WAT     H2 7656   9.118   9.813   8.340
 2472WAT      O 7657   3.503   2.546   2.933
 2472WAT     H1 7658   3.540   2.456   2.958
 2472WAT     H2 7659   3.421   2.564   2.988
 2473WAT      O 7660   9.670   1.924   7.622
 2473WAT     H1 7661   9.729   1.869   7.681
 2473WAT     H2 7662   9.658   1.878   7.534
 2474WAT      O 7663   5.169   4.988   2.763
 2474WAT     H1 7664   5.244   5.038   2.719
 2474WAT     H2 7665   5.197   4.960   2.855
 2475WAT      O 7666   6.831   9.080   9.306
 2475WAT     H1 7667   6.917   9.098   9.354
 2475WAT     H2 7668   6.803   9.163   9.257
 2476WAT      O 7669   4.048   8.304   9.347
 2476WAT     H1 7670   4.086   8.326   9.437
 2476WAT     H2 7671   3.961   8.256   9.358
 2477WAT      O 7672   3.117   4.977   0.525
 2477WAT     H1 7673   3.181   5.006   0.454
 2477WAT     H2 7674   3.167   4.962   0.610
 2478WAT      O 7675   9.457   2.561   1.321
 2478WAT     H1 7676   9.526   2.591   1.256
 2478WAT     H2 7677   9.415   2.476   1.289
 2479WAT      O 7678   2.110   1.040   2.376
 2479WAT     H1 7679   2.100   0.945   2.347
 2479WAT     H2 7680   2.179   1.085   2.319
 2480WAT      O 7681   8.281   9.336   9.106
 2480WAT     H1 7682   8.255   9.245   9.137
 2480WAT     H2 7683   8.285   9.337   9.006
 2481WAT      O 7684   1.138   6.651   5.895
 2481WAT     H1 7685   1.228   6.611   5.875
 2481WAT     H2 7686   1.143   6.702   5.981
 2482WAT      O 7687   9.130   6.535   8.436
 2482WAT     H1 7688   9.059   6.570   8.375
 2482WAT     H2 7689   9.141   6.436   8.420
 2483WAT      O 7690   6.736   6.776   0.947
 2483WAT     H1 7691   6.642   6.741   0.944
 2483WAT     H2 7692   6.736   6.872   0.917
 2484WAT      O 7693   4.536   6.168   0.995
 2484WAT     H1 7694   4.539   6.265   1.017
 2484WAT     H2 7695   4.520   6.156   0.897
 2485WAT      O 7696   4.189   4.736   9.887
 2485WAT     H1 7697   4.201   4.763   9.791
 2485WAT     H2 7698   4.257   4.666   9.910
 2486WAT      O 7699   4.552   8.583   1.179
 2486WAT     H1 7700   4.574   8.538   1.092
 2486WAT     H2 7701   4.455   8.570   1.200
 2487WAT      O 7702   0.348   0.713   5.341
 2487WAT     H1 7703   0.287   0.662   5.401
 2487WAT     H2 7704   0.330   0.811   5.351
 2488WAT      O 7705   2.640   2.659   3.660
 2488WAT     H1 7706   2.583   2.733   3.625
 2488WAT     H2 7707   2.582   2.582   3.688
 2489WAT      O 7708   1.345   6.092   2.816
 2489WAT     H1 7709   1.376   6.173   2.867
 2489WAT     H2 7710   1.246   6.082   2.826
 2490WAT      O 7711   1.718   1.517   9.280
 2490WAT     H1 7712   1.816   1.504   9.265
 2490WAT     H2 7713   1.668   1.437   9.249
 2491WAT      O 7714   3.778   5.100   7.279
 2491WAT     H1 7715   3.735   5.166   7.342
 2491WAT     H2 7716   3.764   5.130   7.185
 2492WAT      O 7717   0.294   4.039   8.985
 2492WAT     H1 7718   0.288   3.981   8.904
 2492WAT     H2 7719   0.236   4.119   8.972
 2493WAT      O 7720   8.552   4.098   2.996
 2493WAT     H1 7721   8.606   4.081   2.914
 2493WAT     H2 7722   8.557   4.019   3.057
 2494WAT      O 7723   0.677   3.335   0.557
 2494WAT     H1 7724   0.728   3.287   0.485
 2494WAT     H2 7725   0.740   3.386   0.614
 2495WAT      O 7726   0.332   0.700   3.561
 2495WAT     H1 7727   0.328   0.729   3.657
 2495WAT     H2 7728   0.361   0.777   3.505
 2496WAT      O 7729   2.265   8.823   1.427
 2496WAT     H1 7730   2.358   8.857   1.442
 2496WAT     H2 7731   2.252   8.738   1.478
 2497WAT      O 7732   8.273   0.624   8.894
 2497WAT     H1 7733   8.343   0.553   8.906
 2497WAT     H2 7734   8.187   0.582   8.864
 2498WAT      O 7735   2.027   2.827   9.717
 2498WAT     H1 7736   2.015   2.749   9.656
 2498WAT     H2 7737   2.049   2.795   9.809
 2499WAT      O 7738   7.506   7.676   3.442
 2499WAT     H1 7739   7.563   7.608   3.489
 2499WAT     H2 7740   7.499   7.759   3.498
 2500WAT      O 7741   4.014   9.666   3.496
 2500WAT     H1 7742   3.979   9.577   3.468
 2500WAT     H2 7743   4.005   9.676   3.596
 2501WAT      O 7744   7.498   5.366   1.854
 2501WAT     H1 7745   7.576   5.416   1.816
 2501WAT     H2 7746   7.530   5.294   1.915
 2502WAT      O 7747   1.010   6.810   4.451
 2502WAT     H1 7748   1.042   6.837   4.360
 2502WAT     H2 7749   0.953   6.884   4.490
 2503WAT      O 7750   8.063   9.236   1.271
 2503WAT     H1 7751   7.970   9.226   1.305
 2503WAT     H2 7752   8.098   9.147   1.243
 2504WAT      O 7753   9.659   5.306   0.369
 2504WAT     H1 7754   9.600   5.368   0.317
 2504WAT     H2 7755   9.736   5.278   0.312
 2505WAT      O 7756   6.120   1.909   6.027
 2505WAT     H1 7757   6.023   1.893   6.045
 2505WAT     H2 7758   6.136   2.006   6.010
 2506WAT      O 7759   6.201   5.921   4.227
 2506WAT     H1 7760   6.252   5.946   4.145
 2506WAT     H2 7761   6.254   5.854   4.279
 2507WAT      O 7762   3.990   6.309   4.684
 2507WAT     H1 7763   4.048   6.237   4.645
 2507WAT     H2 7764   3.894   6.282   4.679
 2508WAT      O 7765   6.753   0.581   3.865
 2508WAT     H1 7766   6.778   0.641   3.789
 2508WAT     H2 7767   6.835   0.541   3.905
 2509WAT      O 7768   4.128   7.208   9.437
 2509WAT     H1 7769   4.048   7.254   9.476
 2509WAT     H2 7770   4.152   7.252   9.350
 2510WAT      O 7771   8.584   6.435   5.804
 2510WAT     H1 7772   8.642   6.506   5.844
 2510WAT     H2 7773   8.549   6.376   5.877
 2511WAT      O 7774   1.990   8.645   4.174
 2511WAT     H1 7775   1.975   8.547   4.164
 2511WAT     H2 7776   1.947   8.694   4.098
 2512WAT      O 7777   6.100   7.209   7.958
 2512WAT     H1 7778   6.035   7.156   8.013
 2512WAT     H2 7779   6.066   7.303   7.948
 2513WAT      O 7780   2.618   8.034   7.883
 2513WAT     H1 7781   2.656   8.074   7.966
 2513WAT     H2 7782   2.518   8.038   7.887
 2514WAT      O 7783   2.900   9.671   5.679
 2514WAT     H1 7784   2.881   9.590   5.734
 2514WAT     H2 7785   2.847   9.667   5.595
 2515WAT      O 7786   8.017   0.982   6.464
 2515WAT     H1 7787   8.067   0.944   6.542
 2515WAT     H2 7788   7.998   0.908   6.399
 2516WAT      O 7789   7.986   0.466   4.909
 2516WAT     H1 7790   7.908   0.463   4.847
 2516WAT     H2 7791   8.029   0.376   4.912
 2517WAT      O 7792   0.310   2.734   8.070
 2517WAT     H1 7793   0.291   2.696   8.160
 2517WAT     H2 7794   0.291   2.666   8.000
 2518WAT      O 7795   2.984   3.386   9.797
 2518WAT     H1 7796   3.017   3.391   9.892
 2518WAT     H2 7797   2.993   3.292   9.764
 2519WAT      O 7798   1.832   7.062   3.099
 2519WAT     H1 7799   1.779   7.000   3.041
 2519WAT     H2 7800   1.899   7.111   3.044
 2520WAT      O 7801   0.872   4.641   1.839
 2520WAT     H1 7802   0.927   4.583   1.779
 2520WAT     H2 7803   0.779   4.604   1.847
 2521WAT      O 7804   9.622   4.727   6.281
 2521WAT     H1 7805   9.681   4.661   6.234
 2521WAT     H2 7806   9.567   4.679   6.350
 2522WAT      O 7807   0.291   6.507   1.883
 2522WAT     H1 7808   0.340   6.570   1.822
 2522WAT     H2 7809   0.211   6.471   1.836
 2523WAT      O 7810   2.744   6.816   0.120
 2523WAT     H1 7811   2.834   6.846   0.150
 2523WAT     H2 7812   2.683   6.810   0.199
 2524WAT      O 7813   3.933   8.884   9.785
 2524WAT     H1 7814   3.841   8.922   9.779
 2524WAT     H2 7815   3.949   8.851   9.879
 2525WAT      O 7816   6.245   6.359   8.774
 2525WAT     H1 7817   6.187   6.277   8.780
 2525WAT     H2 7818   6.242   6.409   8.860
 2526WAT      O 7819   0.661   0.355   0.619
 2526WAT     H1 7820   0.686   0.324   0.710
 2526WAT     H2 7821   0.718   0.434   0.594
 2527WAT      O 7822   4.699   5.114   7.407
 2527WAT     H1 7823   4.627   5.055   7.442
 2527WAT     H2 7824   4.788   5.068   7.415
 2528WAT      O 7825   6.350   0.475   5.312
 2528WAT     H1 7826   6.274   0.488   5.375
 2528WAT     H2 7827   6.388   0.564   5.286
 2529WAT      O 7828   0.355   2.526   6.280
 2529WAT     H1 7829   0.268   2.541   6.327
 2529WAT     H2 7830   0.428   2.521   6.347
 2530WAT      O 7831   8.275   6.845   6.468
 2530WAT     H1 7832   8.222   6.818   6.549
 2530WAT     H2 7833   8.336   6.770   6.442
 2531WAT      O 7834   4.028   0.406   9.260
 2531WAT     H1 7835   3.981   0.395   9.348
 2531WAT     H2 7836   3.963   0.390   9.186
 2532WAT      O 7837   6.746   5.406   3.354
 2532WAT     H1 7838   6.766   5.390   3.450
 2532WAT     H2 7839   6.680   5.339   3.322
 2533WAT      O 7840   5.584   8.636   9.453
 2533WAT     H1 7841   5.571   8.549   9.404
 2533WAT     H2 7842   5.607   8.617   9.549
 2534WAT      O 7843   4.414   2.185   2.777
 2534WAT     H1 7844   4.320   2.204   2.747
 2534WAT     H2 7845   4.461   2.271   2.798
 2535WAT      O 7846   4.813   9.207   4.806
 2535WAT     H1 7847   4.772   9.230   4.718
 2535WAT     H2 7848   4.812   9.108   4.819
 2536WAT      O 7849   5.653   1.057   2.832
 2536WAT     H1 7850   5.746   1.025   2.849
 2536WAT     H2 7851   5.628   1.039   2.737
 2537WAT      O 7852   9.605   8.566   4.011
 2537WAT     H1 7853   9.533   8.603   3.953
 2537WAT     H2 7854   9.632   8.634   4.079
 2538WAT      O 7855   9.344   5.239   0.326
 2538WAT     H1 7856   9.294   5.322   0.353
 2538WAT     H2 7857   9.375   5.249   0.231
 2539WAT      O 7858   4.218   3.650   6.901
 2539WAT     H1 7859   4.194   3.685   6.810
 2539WAT     H2 7860   4.169   3.564   6.917
 2540WAT      O 7861   8.801   2.918   2.239
 2540WAT     H1 7862   8.884   2.863   2.229
 2540WAT     H2 7863   8.754   2.892   2.323
 2541WAT      O 7864   6.466   5.587   4.911
 2541WAT     H1 7865   6.401   5.559   4.982
 2541WAT     H2 7866   6.447   5.681   4.883
 2542WAT      O 7867   4.627   4.383   8.586
 2542WAT     H1 7868   4.689   4.455   8.552
 2542WAT     H2 7869   4.536   4.397   8.549
 2543WAT      O 7870   6.482   6.979   1.420
 2543WAT     H1 7871   6.423   6.943   1.347
 2543WAT     H2 7872   6.468   7.077   1.429
 2544WAT      O 7873   8.824   7.704   4.803
 2544WAT     H1 7874   8.767   7.675   4.726
 2544WAT     H2 7875   8.825   7.633   4.873
 2545WAT      O 7876   5.450   2.746   2.568
 2545WAT     H1 7877   5.397   2.763   2.485
 2545WAT     H2 7878   5.471   2.649   2.576
 2546WAT      O 7879   4.849   1.888   2.052
 2546WAT     H1 7880   4.820   1.884   1.956
 2546WAT     H2 7881   4.769   1.882   2.111
 2547WAT      O 7882   8.285   0.093   4.025
 2547WAT     H1 7883   8.347   0.138   3.961
 2547WAT     H2 7884   8.295  -0.006   4.015
 2548WAT      O 7885   3.803   0.195   0.654
 2548WAT     H1 7886   3.888   0.229   0.695
 2548WAT     H2 7887   3.804   0.214   0.556
 2549WAT      O 7888   7.054   5.818   7.591
 2549WAT     H1 7889   7.074   5.767   7.675
 2549WAT     H2 7890   7.018   5.755   7.522
 2550WAT      O 7891   4.110   0.240   0.526
 2550WAT     H1 7892   4.177   0.310   0.502
 2550WAT     H2 7893   4.137   0.153   0.485
 2551WAT      O 7894   0.793   6.125   2.473
 2551WAT     H1 7895   0.725   6.150   2.542
 2551WAT     H2 7896   0.757   6.147   2.382
 2552WAT      O 7897   4.675   5.542   2.910
 2552WAT     H1 7898   4.644   5.598   2.834
 2552WAT     H2 7899   4.680   5.597   2.993
 2553WAT      O 7900   1.062   3.647   6.721
 2553WAT     H1 7901   1.010   3.583   6.777
 2553WAT     H2 7902   1.086   3.604   6.634
 2554WAT      O 7903   5.718   0.116   1.010
 2554WAT     H1 7904   5.666   0.150   0.931
 2554WAT     H2 7905   5.708   0.181   1.086
 2555WAT      O 7906   5.460   3.630   8.403
 2555WAT     H1 7907   5.402   3.704   8.437
 2555WAT     H2 7908   5.552   3.638   8.441
 2556WAT      O 7909   7.412   8.726   0.631
 2556WAT     H1 7910   7.394   8.751   0.536
 2556WAT     H2 7911   7.509   8.704   0.641
 2557WAT      O 7912   2.942   8.148   0.848
 2557WAT     H1 7913   2.941   8.225   0.784
 2557WAT     H2 7914   2.973   8.180   0.938
 2558WAT      O 7915   7.478   3.114   4.997
 2558WAT     H1 7916   7.568   3.132   4.957
 2558WAT     H2 7917   7.488   3.098   5.095
 2559WAT      O 7918   7.807   6.214   8.895
 2559WAT     H1 7919   7.820   6.313   8.899
 2559WAT     H2 7920   7.877   6.173   8.836
 2560WAT      O 7921   1.604   9.789   8.100
 2560WAT     H1 7922   1.588   9.859   8.170
 2560WAT     H2 7923   1.688   9.810   8.050
 2561WAT      O 7924   0.609   4.387   1.081
 2561WAT     H1 7925   0.563   4.476   1.082
 2561WAT     H2 7926   0.578   4.334   1.002
 2562WAT      O 7927   6.428   7.879   1.961
 2562WAT     H1 7928   6.388   7.962   2.000
 2562WAT     H2 7929   6.367   7.844   1.890
 2563WAT      O 7930   7.203   3.098   4.983
 2563WAT     H1 7931   7.303   3.096   4.996
 2563WAT     H2 7932   7.173   3.192   4.971
 2564WAT      O 7933   1.216   7.408   1.346
 2564WAT     H1 7934   1.294   7.356   1.311
 2564WAT     H2 7935   1.132   7.358   1.329
 2565WAT      O 7936   5.331   2.318   2.770
 2565WAT     H1 7937   5.386   2.259   2.829
 2565WAT     H2 7938   5.262   2.365   2.825
 2566WAT      O 7939   4.160   2.234   9.759
 2566WAT     H1 7940   4.087   2.166   9.767
 2566WAT     H2 7941   4.245   2.190   9.732
 2567WAT      O 7942   1.264   3.946   3.624
 2567WAT     H1 7943   1.261   4.008   3.546
 2567WAT     H2 7944   1.199   3.871   3.609
 2568WAT      O 7945   7.504   6.900   0.759
 2568WAT     H1 7946   7.451   6.914   0.842
 2568WAT     H2 7947   7.446   6.917   0.679
 2569WAT      O 7948   3.990   8.629   4.431
 2569WAT     H1 7949   4.073   8.599   4.479
 2569WAT     H2 7950   3.988   8.589   4.339
 2570WAT      O 7951   2.734   5.963   9.631
 2570WAT     H1 7952   2.698   6.034   9.690
 2570WAT     H2 7953   2.819   5.995   9.588
 2571WAT      O 7954   6.512   5.481   7.750
 2571WAT     H1 7955   6.510   5.526   7.660
 2571WAT     H2 7956   6.452   5.530   7.813
 2572WAT      O 7957   7.127   0.648   2.344
 2572WAT     H1 7958   7.134   0.589   2.424
 2572WAT     H2 7959   7.111   0.742   2.373
 2573WAT      O 7960   7.696   2.967   7.759
 2573WAT     H1 7961   7.738   3.052   7.725
 2573WAT     H2 7962   7.766   2.910   7.801
 2574WAT      O 7963   1.691   9.332   7.053
 2574WAT     H1 7964   1.746   9.353   6.972
 2574WAT     H2 7965   1.598   9.366   7.039
 2575WAT      O 7966   4.121   0.373   4.678
 2575WAT     H1 7967   4.072   0.299   4.726
 2575WAT     H2 7968   4.148   0.341   4.587
 2576WAT      O 7969   5.416   8.144   7.235
 2576WAT     H1 7970   5.405   8.059   7.183
 2576WAT     H2 7971   5.332   8.198   7.229
 2577WAT      O 7972   1.408   4.238   9.493
 2577WAT     H1 7973   1.365   4.327   9.478
 2577WAT     H2 7974   1.410   4.187   9.406
 2578WAT      O 7975   5.785   9.600   2.072
 2578WAT     H1 7976   5.711   9.543   2.034
 2578WAT     H2 7977   5.873   9.565   2.041
 2579WAT      O 7978   3.780   8.789   3.621
 2579WAT     H1 7979   3.689   8.748   3.615
 2579WAT     H2 7980   3.834   8.739   3.688
 2580WAT      O 7981   6.558   0.351   4.724
 2580WAT     H1 7982   6.530   0.274   4.666
 2580WAT     H2 7983   6.477   0.394   4.763
 2581WAT      O 7984   6.387   7.364   2.782
 2581WAT     H1 7985   6.322   7.416   2.727
 2581WAT     H2 7986   6.385   7.396   2.876
 2582WAT      O 7987   6.251   1.806   8.858
 2582WAT     H1 7988   6.335   1.848   8.824
 2582WAT     H2 7989   6.210   1.866   8.926
 2583WAT      O 7990   8.742   1.103   9.096
 2583WAT     H1 7991   8.714   1.186   9.144
 2583WAT     H2 7992   8.789   1.042   9.159
 2584WAT      O 7993   7.780   2.812   1.912
 2584WAT     H1 7994   7.728   2.850   1.836
 2584WAT     H2 7995   7.878   2.815   1.891
 2585WAT      O 7996   7.354   7.950   7.940
 2585WAT     H1 7997   7.310   8.005   7.869
 2585WAT     H2 7998   7.364   7.856   7.908
 2586WAT      O 7999   9.263   7.514   5.351
 2586WAT     H1 8000   9.206   7.447   5.400
 2586WAT     H2 8001   9.221   7.604   5.358
 2587WAT      O 8002   0.593   3.847   8.970
 2587WAT     H1 8003   0.592   3.814   8.876
 2587WAT     H2 8004   0.521   3.802   9.022
 2588WAT      O 8005   0.746   9.613   7.736
 2588WAT     H1 8006   0.822   9.608   7.670
 2588WAT     H2 8007   0.664   9.573   7.695
 2589WAT      O 8008   9.813   2.822   2.250
 2589WAT     H1 8009   9.829   2.801   2.153
 2589WAT     H2 8010   9.845   2.746   2.306
 2590WAT      O 8011   2.754   2.330   9.657
 2590WAT     H1 8012   2.672   2.293   9.701
 2590WAT     H2 8013   2.835   2.305   9.710
 2591WAT      O 8014   4.037   0.344   1.497
 2591WAT     H1 8015   4.110   0.385   1.551
 2591WAT     H2 8016   4.006   0.260   1.543
 2592WAT      O 8017   5.173   9.388   8.644
 2592WAT     H1 8018   5.232   9.361   8.568
 2592WAT     H2 8019   5.167   9.313   8.710
 2593WAT      O 8020   8.142   9.554   8.326
 2593WAT     H1 8021   8.127   9.574   8.423
 2593WAT     H2 8022   8.142   9.455   8.312
 2594WAT      O 8023   0.135   4.007   2.677
 2594WAT     H1 8024   0.086   4.004   2.764
 2594WAT     H2 8025   0.124   3.920   2.628
 2595WAT      O 8026   3.935   4.251   5.833
 2595WAT     H1 8027   3.995   4.296   5.767
 2595WAT     H2 8028   3.886   4.320   5.886
 2596WAT      O 8029   2.868   6.454   8.537
 2596WAT     H1 8030   2.878   6.444   8.438
 2596WAT     H2 8031   2.780   6.416   8.565
 2597WAT      O 8032   3.379   3.412   6.184
 2597WAT     H1 8033   3.306   3.478   6.169
 2597WAT     H2 8034   3.467   3.459   6.182
 2598WAT      O 8035   3.198   6.110   1.056
 2598WAT     H1 8036   3.207   6.046   0.979
 2598WAT     H2 8037   3.213   6.204   1.023
 2599WAT      O 8038   5.878   8.973   1.525
 2599WAT     H1 8039   5.930   9.036   1.467
 2599WAT     H2 8040   5.849   9.020   1.608
 2600WAT      O 8041   5.238   8.631   1.368
 2600WAT     H1 8042   5.188   8.545   1.366
 2600WAT     H2 8043   5.328   8.619   1.328
 2601WAT      O 8044   3.510   0.804   3.283
 2601WAT     H1 8045   3.562   0.887   3.262
 2601WAT     H2 8046   3.568   0.724   3.269
 2602WAT      O 8047   0.982   8.815   0.991
 2602WAT     H1 8048   1.047   8.888   1.011
 2602WAT     H2 8049   0.991   8.742   1.059
 2603WAT      O 8050   5.404   0.549   6.381
 2603WAT     H1 8051   5.331   0.554   6.313
 2603WAT     H2 8052   5.465   0.473   6.359
 2604WAT      O 8053   0.445   0.290   5.815
 2604WAT     H1 8054   0.441   0.190   5.810
 2604WAT     H2 8055   0.510   0.324   5.747
 2605WAT      O 8056   2.497   1.777   0.771
 2605WAT     H1 8057   2.554   1.815   0.843
 2605WAT     H2 8058   2.539   1.795   0.682
 2606WAT      O 8059   7.456   4.854   1.669
 2606WAT     H1 8060   7.473   4.760   1.698
 2606WAT     H2 8061   7.418   4.855   1.577
 2607WAT      O 8062   8.868   0.977   9.307
 2607WAT     H1 8063   8.857   0.897   9.366
 2607WAT     H2 8064   8.933   1.040   9.349
 2608WAT      O 8065   3.148   1.393   8.974
 2608WAT     H1 8066   3.141   1.325   8.901
 2608WAT     H2 8067   3.136   1.349   9.062
 2609WAT      O 8068   2.985   9.150   2.731
 2609WAT     H1 8069   2.921   9.196   2.670
 2609WAT     H2 8070   2.993   9.054   2.705
 2610WAT      O 8071   5.025   8.961   7.257
 2610WAT     H1 8072   4.991   8.868   7.267
 2610WAT     H2 8073   5.036   9.003   7.347
 2611WAT      O 8074   1.996   4.811   4.799
 2611WAT     H1 8075   1.968   4.764   4.715
 2611WAT     H2 8076   1.917   4.855   4.840
 2612WAT      O 8077   6.264   2.442   1.797
 2612WAT     H1 8078   6.349   2.485   1.766
 2612WAT     H2 8079   6.249   2.357   1.747
 2613WAT      O 8080   3.419   5.908   7.779
 2613WAT     H1 8081   3.452   5.861   7.697
 2613WAT     H2 8082   3.326   5.939   7.764
 2614WAT      O 8083   9.381   4.503   7.198
 2614WAT     H1 8084   9.287   4.475   7.180
 2614WAT     H2 8085   9.417   4.551   7.119
 2615WAT      O 8086   3.107   3.247   6.968
 2615WAT     H1 8087   3.048   3.212   6.896
 2615WAT     H2 8088   3.170   3.315   6.930
 2616WAT      O 8089   4.608   1.618   3.298
 2616WAT     H1 8090   4.695   1.649   3.259
 2616WAT     H2 8091   4.558   1.565   3.229
 2617WAT      O 8092   0.201   2.154   7.211
 2617WAT     H1 8093   0.198   2.240   7.159
 2617WAT     H2 8094   0.153   2.166   7.298
 2618WAT      O 8095   3.205   7.014   8.362
 2618WAT     H1 8096   3.274   6.947   8.388
 2618WAT     H2 8097   3.214   7.035   8.265
 2619WAT      O 8098   3.966   2.240   7.207
 2619WAT     H1 8099   3.959   2.339   7.192
 2619WAT     H2 8100   3.931   2.192   7.126
 2620WAT      O 8101   4.625   9.368   1.879
 2620WAT     H1 8102   4.530   9.397   1.890
 2620WAT     H2 8103   4.628   9.287   1.821
 2621WAT      O 8104   2.121   6.225   0.358
 2621WAT     H1 8105   2.122   6.149   0.293
 2621WAT     H2 8106   2.055   6.205   0.431
 2622WAT      O 8107   5.135   6.391   3.521
 2622WAT     H1 8108   5.194   6.314   3.500
 2622WAT     H2 8109   5.163   6.471   3.468
 2623WAT      O 8110   3.777   1.853   6.795
 2623WAT     H1 8111   3.776   1.780   6.863
 2623WAT     H2 8112   3.723   1.826   6.715
 2624WAT      O 8113   7.393   7.546   5.974
 2624WAT     H1 8114   7.360   7.519   5.883
 2624WAT     H2 8115   7.321   7.596   6.022
 2625WAT      O 8116   8.962   4.618   9.012
 2625WAT     H1 8117   8.957   4.581   9.104
 2625WAT     H2 8118   9.055   4.609   8.977
 2626WAT      O 8119   0.482   6.811   0.211
 2626WAT     H1 8120   0.464   6.754   0.292
 2626WAT     H2 8121   0.570   6.784   0.171
 2627WAT      O 8122   2.358   2.184   6.950
 2627WAT     H1 8123   2.308   2.097   6.962
 2627WAT     H2 8124   2.346   2.217   6.857
 2628WAT      O 8125   2.190   6.138   7.730
 2628WAT     H1 8126   2.252   6.059   7.736
 2628WAT     H2 8127   2.145   6.151   7.819
 2629WAT      O 8128   7.392   2.700   8.521
 2629WAT     H1 8129   7.401   2.617   8.575
 2629WAT     H2 8130   7.390   2.677   8.424
 2630WAT      O 8131   9.369   3.408   4.865
 2630WAT     H1 8132   9.336   3.461   4.787
 2630WAT     H2 8133   9.354   3.460   4.950
 2631WAT      O 8134   1.677   5.714   0.809
 2631WAT     H1 8135   1.589   5.694   0.851
 2631WAT     H2 8136   1.749   5.710   0.878
 2632WAT      O 8137   1.748   8.422   5.994
 2632WAT     H1 8138   1.659   8.466   5.978
 2632WAT     H2 8139   1.767   8.419   6.092
 2633WAT      O 8140   9.640   5.451   9.654
 2633WAT     H1 8141   9.586   5.531   9.678
 2633WAT     H2 8142   9.582   5.385   9.605
 2634WAT      O 8143   6.263   1.893   6.294
 2634WAT     H1 8144   6.200   1.952   6.243
 2634WAT     H2 8145   6.270   1.926   6.388
 2635WAT      O 8146   3.788   7.720   2.034
 2635WAT     H1 8147   3.757   7.757   1.946
 2635WAT     H2 8148   3.849   7.785   2.078
 2636WAT      O 8149   9.534   5.106   5.318
 2636WAT     H1 8150   9.587   5.065   5.392
 2636WAT     H2 8151   9.578   5.085   5.230
 2637WAT      O 8152   2.467   9.689   0.149
 2637WAT     H1 8153   2.422   9.774   0.120
 2637WAT     H2 8154   2.557   9.711   0.188
 2638WAT      O 8155   7.826   5.889   3.868
 2638WAT     H1 8156   7.768   5.807   3.876
 2638WAT     H2 8157   7.919   5.862   3.845
 2639WAT      O 8158   7.505   3.728   4.250
 2639WAT     H1 8159   7.516   3.687   4.160
 2639WAT     H2 8160   7.423   3.784   4.252
 2640WAT      O 8161   8.463   2.988   3.013
 2640WAT     H1 8162   8.435   3.011   3.106
 2640WAT     H2 8163   8.402   2.918   2.976
 2641WAT      O 8164   2.532   0.157   7.617
 2641WAT     H1 8165   2.631   0.146   7.605
 2641WAT     H2 8166   2.515   0.216   7.696
 2642WAT      O 8167   9.670   3.581   7.480
 2642WAT     H1 8168   9.710   3.649   7.419
 2642WAT     H2 8169   9.594   3.535   7.433
 2643WAT      O 8170   9.785   4.427   9.727
 2643WAT     H1 8171   9.848   4.503   9.714
 2643WAT     H2 8172   9.789   4.396   9.822
 2644WAT      O 8173   2.670   9.609   9.124
 2644WAT     H1 8174   2.751   9.564   9.085
 2644WAT     H2 8175   2.587   9.564   9.091
 2645WAT      O 8176   1.198   2.220   6.920
 2645WAT     H1 8177   1.106   2.252   6.945
 2645WAT     H2 8178   1.261   2.297   6.920
 2646WAT      O 8179   3.211   4.115   3.026
 2646WAT     H1 8180   3.240   4.211   3.020
 2646WAT     H2 8181   3.288   4.058   3.053
 2647WAT      O 8182   6.340   0.691   6.628
 2647WAT     H1 8183   6.244   0.709   6.607
 2647WAT     H2 8184   6.357   0.593   6.623
 2648WAT      O 8185   7.788   0.657   5.329
 2648WAT     H1 8186   7.766   0.602   5.409
 2648WAT     H2 8187   7.807   0.597   5.251
 2649WAT      O 8188   0.432   1.612   1.215
 2649WAT     H1 8189   0.405   1.516   1.214
 2649WAT     H2 8190   0.350   1.670   1.223
 2650WAT      O 8191   5.047   5.465   9.868
 2650WAT     H1 8192   5.001   5.554   9.861
 2650WAT     H2 8193   5.076   5.436   9.777
 2651WAT      O 8194   2.485   2.529   9.292
 2651WAT     H1 8195   2.491   2.483   9.381
 2651WAT     H2 8196   2.447   2.620   9.304
 2652WAT      O 8197   0.516   3.275   1.983
 2652WAT     H1 8198   0.576   3.322   1.919
 2652WAT     H2 8199   0.461   3.208   1.934
 2653WAT      O 8200   4.431   8.991   3.080
 2653WAT     H1 8201   4.463   9.010   3.173
 2653WAT     H2 8202   4.363   9.060   3.054
 2654WAT      O 8203   6.467   1.928   8.768
 2654WAT     H1 8204   6.429   2.011   8.727
 2654WAT     H2 8205   6.534   1.953   8.838
 2655WAT      O 8206   6.660   2.388   3.136
 2655WAT     H1 8207   6.749   2.345   3.147
 2655WAT     H2 8208   6.624   2.367   3.045
 2656WAT      O 8209   9.744   7.862   5.957
 2656WAT     H1 8210   9.832   7.853   6.004
 2656WAT     H2 8211   9.701   7.772   5.951
 2657WAT      O 8212   1.138   3.881   1.131
 2657WAT     H1 8213   1.120   3.850   1.224
 2657WAT     H2 8214   1.231   3.856   1.104
 2658WAT      O 8215   7.161   2.305   6.092
 2658WAT     H1 8216   7.189   2.209   6.087
 2658WAT     H2 8217   7.073   2.317   6.045
 2659WAT      O 8218   4.184   3.583   2.773
 2659WAT     H1 8219   4.092   3.614   2.749
 2659WAT     H2 8220   4.203   3.497   2.726
 2660WAT      O 8221   0.982   4.086   4.577
 2660WAT     H1 8222   0.905   4.139   4.612
 2660WAT     H2 8223   0.949   4.002   4.535
 2661WAT      O 8224   8.722   4.051   0.667
 2661WAT     H1 8225   8.820   4.067   0.652
 2661WAT     H2 8226   8.699   4.072   0.762
 2662WAT      O 8227   0.010   8.758   6.361
 2662WAT     H1 8228  -0.014   8.822   6.434
 2662WAT     H2 8229   0.001   8.802   6.272
 2663WAT      O 8230   0.969   7.065   6.185
 2663WAT     H1 8231   1.046   7.124   6.158
 2663WAT     H2 8232   0.942   7.009   6.107
 2664WAT      O 8233   6.150   5.967   5.894
 2664WAT     H1 8234   6.130   5.869   5.890
 2664WAT     H2 8235   6.232   5.986   5.839
 2665WAT      O 8236   9.392   7.387   8.478
 2665WAT     H1 8237   9.350   7.365   8.389
 2665WAT     H2 8238   9.334   7.452   8.527
 2666WAT      O 8239   9.748   8.369   7.325
 2666WAT     H1 8240   9.787   8.290   7.278
 2666WAT     H2 8241   9.820   8.438   7.338
 2667WAT      O 8242   8.032   3.955   6.215
 2667WAT     H1 8243   8.025   3.906   6.128
 2667WAT     H2 8244   8.055   4.051   6.197
 2668WAT      O 8245   9.789   1.053   2.315
 2668WAT     H1 8246   9.859   1.107   2.268
 2668WAT     H2 8247   9.738   1.112   2.378
 2669WAT      O 8248   2.280   8.749   3.136
 2669WAT     H1 8249   2.357   8.767   3.075
 2669WAT     H2 8250   2.194   8.752   3.083
 2670WAT      O 8251   9.175   7.654   2.055
 2670WAT     H1 8252   9.252   7.591   2.057
 2670WAT     H2 8253   9.089   7.602   2.051
 2671WAT      O 8254   2.528   5.673   8.433
 2671WAT     H1 8255   2.622   5.696   8.409
 2671WAT     H2 8256   2.526   5.587   8.484
 2672WAT      O 8257   2.530   9.564   8.009
 2672WAT     H1 8258   2.431   9.567   8.020
 2672WAT     H2 8259   2.573   9.618   8.082
 2673WAT      O 8260   4.526   7.335   2.400
 2673WAT     H1 8261   4.601   7.310   2.339
 2673WAT     H2 8262   4.543   7.426   2.437
 2674WAT      O 8263   2.473   2.812   5.815
 2674WAT     H1 8264   2.562   2.781   5.780
 2674WAT     H2 8265   2.424   2.734   5.854
 2675WAT      O 8266   3.214   1.225   1.037
 2675WAT     H1 8267   3.234   1.172   1.119
 2675WAT     H2 8268   3.123   1.200   1.003
 2676WAT      O 8269   2.117   7.494   3.909
 2676WAT     H1 8270   2.159   7.405   3.926
 2676WAT     H2 8271   2.038   7.505   3.969
 2677WAT      O 8272   8.840   4.776   7.019
 2677WAT     H1 8273   8.930   4.737   7.039
 2677WAT     H2 8274   8.793   4.718   6.952
 2678WAT      O 8275   7.797   5.510   2.026
 2678WAT     H1 8276   7.778   5.528   2.122
 2678WAT     H2 8277   7.826   5.415   2.014
 2679WAT      O 8278   6.222   8.649   3.260
 2679WAT     H1 8279   6.145   8.669   3.320
 2679WAT     H2 8280   6.199   8.572   3.200
 2680WAT      O 8281   6.574   0.353   1.463
 2680WAT     H1 8282   6.672   0.357   1.480
 2680WAT     H2 8283   6.549   0.261   1.431
 2681WAT      O 8284   7.232   5.628   9.852
 2681WAT     H1 8285   7.232   5.626   9.752
 2681WAT     H2 8286   7.244   5.722   9.883
 2682WAT      O 8287   1.053   5.343   4.049
 2682WAT     H1 8288   1.135   5.333   4.105
 2682WAT     H2 8289   1.069   5.303   3.958
 2683WAT      O 8290   3.354   1.642   0.447
 2683WAT     H1 8291   3.301   1.639   0.362
 2683WAT     H2 8292   3.307   1.700   0.513
 2684WAT      O 8293   6.608   7.477   7.373
 2684WAT     H1 8294   6.618   7.384   7.337
 2684WAT     H2 8295   6.683   7.498   7.435
 2685WAT      O 8296   8.819   1.877   7.818
 2685WAT     H1 8297   8.731   1.835   7.842
 2685WAT     H2 8298   8.855   1.832   7.736
 2686WAT      O 8299   6.714   0.027   0.374
 2686WAT     H1 8300   6.673   0.065   0.291
 2686WAT     H2 8301   6.787  -0.036   0.350
 2687WAT      O 8302   4.118   4.173   3.173
 2687WAT     H1 8303   4.214   4.150   3.158
 2687WAT     H2 8304   4.073   4.097   3.220
 2688WAT      O 8305   6.426   8.115   5.121
 2688WAT     H1 8306   6.425   8.070   5.032
 2688WAT     H2 8307   6.430   8.046   5.193
 2689WAT      O 8308   9.525   7.450   6.094
 2689WAT     H1 8309   9.446   7.503   6.126
 2689WAT     H2 8310   9.588   7.509   6.046
 2690WAT      O 8311   0.797   9.608   8.020
 2690WAT     H1 8312   0.878   9.556   8.046
 2690WAT     H2 8313   0.794   9.617   7.920
 2691WAT      O 8314   5.724   2.622   0.885
 2691WAT     H1 8315   5.738   2.712   0.846
 2691WAT     H2 8316   5.765   2.552   0.826
 2692WAT      O 8317   1.846   8.162   8.427
 2692WAT     H1 8318   1.814   8.255   8.447
 2692WAT     H2 8319   1.773   8.111   8.381
 2693WAT      O 8320   8.359   5.804   1.689
 2693WAT     H1 8321   8.335   5.899   1.675
 2693WAT     H2 8322   8.404   5.769   1.607
 2694WAT      O 8323   4.094   8.730   5.551
 2694WAT     H1 8324   4.182   8.705   5.591
 2694WAT     H2 8325   4.020   8.704   5.614
 2695WAT      O 8326   0.184   1.339   1.403
 2695WAT     H1 8327   0.111   1.401   1.375
 2695WAT     H2 8328   0.160   1.245   1.377
 2696WAT      O 8329   1.376   8.521   2.098
 2696WAT     H1 8330   1.374   8.621   2.090
 2696WAT     H2 8331   1.422   8.483   2.018
 2697WAT      O 8332   0.060   2.334   8.153
 2697WAT     H1 8333   0.048   2.241   8.119
 2697WAT     H2 8334   0.157   2.350   8.172
 2698WAT      O 8335   2.667   6.505   6.341
 2698WAT     H1 8336   2.618   6.445   6.404
 2698WAT     H2 8337   2.711   6.450   6.270
 2699WAT      O 8338   5.687   7.360   9.297
 2699WAT     H1 8339   5.614   7.411   9.253
 2699WAT     H2 8340   5.647   7.297   9.365
 2700WAT      O 8341   6.737   5.186   2.759
 2700WAT     H1 8342   6.733   5.278   2.799
 2700WAT     H2 8343   6.666   5.129   2.801
 2701WAT      O 8344   7.157   7.914   5.344
 2701WAT     H1 8345   7.212   7.942   5.422
 2701WAT     H2 8346   7.078   7.862   5.377
 2702WAT      O 8347   5.909   4.925   7.276
 2702WAT     H1 8348   5.996   4.921   7.325
 2702WAT     H2 8349   5.864   5.012   7.294
 2703WAT      O 8350   0.946   1.372   0.264
 2703WAT     H1 8351   0.961   1.285   0.216
 2703WAT     H2 8352   1.007   1.442   0.226
 2704WAT      O 8353   3.843   5.021   1.518
 2704WAT     H1 8354   3.840   5.121   1.513
 2704WAT     H2 8355   3.912   4.993   1.585
 2705WAT      O 8356   0.710   0.834   0.903
 2705WAT     H1 8357   0.786   0.808   0.962
 2705WAT     H2 8358   0.703   0.769   0.827
 2706WAT      O 8359   5.240   0.038   4.162
 2706WAT     H1 8360   5.162  -0.025   4.152
 2706WAT     H2 8361   5.296   0.009   4.240
 2707WAT      O 8362   1.507   2.296   6.337
 2707WAT     H1 8363   1.488   2.353   6.418
 2707WAT     H2 8364   1.478   2.202   6.355
 2708WAT      O 8365   6.697   4.975   2.196
 2708WAT     H1 8366   6.628   5.010   2.132
 2708WAT     H2 8367   6.679   5.012   2.287
 2709WAT      O 8368   2.791   8.234   8.041
 2709WAT     H1 8369   2.787   8.220   8.140
 2709WAT     H2 8370   2.855   8.308   8.020
 2710WAT      O 8371   8.501   9.252   7.491
 2710WAT     H1 8372   8.423   9.313   7.500
 2710WAT     H2 8373   8.579   9.303   7.454
 2711WAT      O 8374   2.657   4.938   0.584
 2711WAT     H1 8375   2.634   4.852   0.630
 2711WAT     H2 8376   2.726   4.987   0.636
 2712WAT      O 8377   3.863   4.769   2.531
 2712WAT     H1 8378   3.828   4.746   2.622
 2712WAT     H2 8379   3.789   4.810   2.477
 2713WAT      O 8380   9.179   9.549   9.382
 2713WAT     H1 8381   9.239   9.470   9.373
 2713WAT     H2 8382   9.123   9.558   9.300
 2714WAT      O 8383   5.312   7.851   5.262
 2714WAT     H1 8384   5.223   7.896   5.264
 2714WAT     H2 8385   5.319   7.789   5.340
 2715WAT      O 8386   0.709   9.218   1.583
 2715WAT     H1 8387   0.712   9.316   1.600
 2715WAT     H2 8388   0.781   9.173   1.637
 2716WAT      O 8389   4.992   2.566   0.091
 2716WAT     H1 8390   4.924   2.637   0.110
 2716WAT     H2 8391   5.066   2.572   0.157
 2717WAT      O 8392   0.964   1.315   1.210
 2717WAT     H1 8393   0.932   1.222   1.226
 2717WAT     H2 8394   1.033   1.340   1.279
 2718WAT      O 8395   7.181   5.420   2.450
 2718WAT     H1 8396   7.119   5.356   2.495
 2718WAT     H2 8397   7.275   5.388   2.460
 2719WAT      O 8398   8.988   6.907   1.384
 2719WAT     H1 8399   8.900   6.950   1.367
 2719WAT     H2 8400   9.059   6.978   1.390
 2720WAT      O 8401   5.945   4.991   2.482
 2720WAT     H1 8402   5.904   5.042   2.407
 2720WAT     H2 8403   5.939   5.045   2.566
 2721WAT      O 8404   9.245   5.556   7.846
 2721WAT     H1 8405   9.160   5.546   7.794
 2721WAT     H2 8406   9.301   5.628   7.805
 2722WAT      O 8407   9.775   7.753   0.940
 2722WAT     H1 8408   9.688   7.782   0.982
 2722WAT     H2 8409   9.756   7.696   0.860
 2723WAT      O 8410   6.906   3.666   0.596
 2723WAT     H1 8411   6.908   3.576   0.551
 2723WAT     H2 8412   6.812   3.696   0.609
 2724WAT      O 8413   4.764   2.139   1.965
 2724WAT     H1 8414   4.820   2.069   2.009
 2724WAT     H2 8415   4.803   2.163   1.876
 2725WAT      O 8416   1.905   5.820   6.377
 2725WAT     H1 8417   1.850   5.814   6.294
 2725WAT     H2 8418   1.852   5.791   6.456
 2726WAT      O 8419   8.712   7.732   9.879
 2726WAT     H1 8420   8.755   7.782   9.803
 2726WAT     H2 8421   8.613   7.746   9.876
 2727WAT      O 8422   9.335   4.355   8.230
 2727WAT     H1 8423   9.410   4.358   8.163
 2727WAT     H2 8424   9.364   4.401   8.314
 2728WAT      O 8425   1.478   4.093   1.246
 2728WAT     H1 8426   1.549   4.158   1.218
 2728WAT     H2 8427   1.413   4.138   1.306
 2729WAT      O 8428   1.731   2.159   1.344
 2729WAT     H1 8429   1.826   2.169   1.376
 2729WAT     H2 8430   1.674   2.226   1.391
 2730WAT      O 8431   0.835   6.485   1.299
 2730WAT     H1 8432   0.888   6.557   1.254
 2730WAT     H2 8433   0.826   6.505   1.396
 2731WAT      O 8434   0.415   3.814   4.161
 2731WAT     H1 8435   0.501   3.763   4.154
 2731WAT     H2 8436   0.434   3.908   4.190
 2732WAT      O 8437   6.726   2.801   9.722
 2732WAT     H1 8438   6.817   2.771   9.695
 2732WAT     H2 8439   6.714   2.897   9.698
 2733WAT      O 8440   0.327   9.066   6.458
 2733WAT     H1 8441   0.393   9.052   6.385
 2733WAT     H2 8442   0.360   9.022   6.542
 2734WAT      O 8443   5.681   2.657   8.295
 2734WAT     H1 8444   5.649   2.725   8.229
 2734WAT     H2 8445   5.657   2.565   8.264
 2735WAT      O 8446   0.812   5.466   8.304
 2735WAT     H1 8447   0.796   5.407   8.226
 2735WAT     H2 8448   0.911   5.478   8.317
 2736WAT      O 8449   7.162   5.286   3.147
 2736WAT     H1 8450   7.149   5.201   3.097
 2736WAT     H2 8451   7.073   5.319   3.181
 2737WAT      O 8452   1.189   5.534   3.790
 2737WAT     H1 8453   1.195   5.436   3.771
 2737WAT     H2 8454   1.152   5.548   3.882
 2738WAT      O 8455   5.371   8.078   8.350
 2738WAT     H1 8456   5.460   8.043   8.377
 2738WAT     H2 8457   5.328   8.015   8.286
 2739WAT      O 8458   2.379   1.389   0.484
 2739WAT     H1 8459   2.425   1.344   0.407
 2739WAT     H2 8460   2.420   1.359   0.570
 2740WAT      O 8461   2.187   6.820   1.683
 2740WAT     H1 8462   2.124   6.747   1.655
 2740WAT     H2 8463   2.142   6.877   1.752
 2741WAT      O 8464   4.244   1.612   3.936
 2741WAT     H1 8465   4.176   1.576   4.000
 2741WAT     H2 8466   4.273   1.540   3.874
 2742WAT      O 8467   2.048   9.351   8.140
 2742WAT     H1 8468   2.020   9.446   8.153
 2742WAT     H2 8469   1.968   9.291   8.146
 2743WAT      O 8470   7.493   5.477   9.545
 2743WAT     H1 8471   7.467   5.515   9.456
 2743WAT     H2 8472   7.593   5.483   9.555
 2744WAT      O 8473   8.208   1.836   4.515
 2744WAT     H1 8474   8.240   1.900   4.585
 2744WAT     H2 8475   8.187   1.748   4.557
 2745WAT      O 8476   2.324   0.712   4.622
 2745WAT     H1 8477   2.283   0.636   4.572
 2745WAT     H2 8478   2.423   0.703   4.623
 2746WAT      O 8479   2.259   7.076   7.447
 2746WAT     H1 8480   2.204   7.125   7.514
 2746WAT     H2 8481   2.272   7.132   7.366
 2747WAT      O 8482   9.669   0.926   9.753
 2747WAT     H1 8483   9.626   0.977   9.679
 2747WAT     H2 8484   9.599   0.897   9.818
 2748WAT      O 8485   9.826   8.014   8.166
 2748WAT     H1 8486   9.878   8.084   8.215
 2748WAT     H2 8487   9.812   7.935   8.226
 2749WAT      O 8488   5.125   3.999   7.490
 2749WAT     H1 8489   5.051   4.064   7.505
 2749WAT     H2 8490   5.098   3.933   7.419
 2750WAT      O 8491   6.605   5.008   3.038
 2750WAT     H1 8492   6.625   4.935   2.973
 2750WAT     H2 8493   6.510   5.001   3.068
 2751WAT      O 8494   2.363   6.346   4.200
 2751WAT     H1 8495   2.413   6.302   4.125
 2751WAT     H2 8496   2.326   6.277   4.262
 2752WAT      O 8497   1.626   6.277   6.377
 2752WAT     H1 8498   1.686   6.200   6.358
 2752WAT     H2 8499   1.596   6.274   6.472
 2753WAT      O 8500   4.692   3.837   2.039
 2753WAT     H1 8501   4.652   3.914   1.989
 2753WAT     H2 8502   4.789   3.854   2.054
 2754WAT      O 8503   0.830   2.013   8.376
 2754WAT     H1 8504   0.925   1.982   8.367
 2754WAT     H2 8505   0.774   1.971   8.305
 2755WAT      O 8506   3.578   3.922   5.694
 2755WAT     H1 8507   3.660   3.866   5.679
 2755WAT     H2 8508   3.602   4.002   5.750
 2756WAT      O 8509   9.660   0.583   1.959
 2756WAT     H1 8510   9.727   0.640   1.912
 2756WAT     H2 8511   9.590   0.642   2.000
 2757WAT      O 8512   5.461   5.329   9.295
 2757WAT     H1 8513   5.451   5.236   9.331
 2757WAT     H2 8514   5.558   5.352   9.290
 2758WAT      O 8515   0.486   0.274   7.226
 2758WAT     H1 8516   0.579   0.243   7.208
 2758WAT     H2 8517   0.421   0.213   7.182
 2759WAT      O 8518   8.291   4.605   4.979
 2759WAT     H1 8519   8.389   4.583   4.978
 2759WAT     H2 8520   8.268   4.657   4.897
 2760WAT      O 8521   0.997   1.941   9.115
 2760WAT     H1 8522   0.977   1.905   9.024
 2760WAT     H2 8523   1.069   2.010   9.108
 2761WAT      O 8524   1.461   6.011   1.701
 2761WAT     H1 8525   1.362   6.002   1.693
 2761WAT     H2 8526   1.503   6.004   1.610
 2762WAT      O 8527   6.481   2.370   4.201
 2762WAT     H1 8528   6.493   2.338   4.295
 2762WAT     H2 8529   6.567   2.360   4.151
 2763WAT      O 8530   2.505   5.758   8.736
 2763WAT     H1 8531   2.572   5.813   8.686
 2763WAT     H2 8532   2.462   5.693   8.674
 2764WAT      O 8533   7.427   3.699   6.613
 2764WAT     H1 8534   7.372   3.755   6.675
 2764WAT     H2 8535   7.427   3.604   6.646
 2765WAT      O 8536   9.646   9.252   7.012
 2765WAT     H1 8537   9.574   9.205   7.062
 2765WAT     H2 8538   9.724   9.268   7.073
 2766WAT      O 8539   4.034   0.368   3.358
 2766WAT     H1 8540   4.083   0.453   3.377
 2766WAT     H2 8541   4.022   0.317   3.444
 2767WAT      O 8542   3.048   3.564   9.601
 2767WAT     H1 8543   3.089   3.521   9.681
 2767WAT     H2 8544   2.995   3.644   9.628
 2768WAT      O 8545   5.800   3.944   7.965
 2768WAT     H1 8546   5.764   3.888   7.891
 2768WAT     H2 8547   5.734   4.015   7.990
 2769WAT      O 8548   5.342   9.304   2.860
 2769WAT     H1 8549   5.397   9.221   2.863
 2769WAT     H2 8550   5.399   9.383   2.884
 2770WAT      O 8551   4.823   7.146   9.193
 2770WAT     H1 8552   4.764   7.098   9.128
 2770WAT     H2 8553   4.773   7.222   9.235
 2771WAT      O 8554   6.621   3.505   7.709
 2771WAT     H1 8555   6.645   3.602   7.707
 2771WAT     H2 8556   6.704   3.450   7.698
 2772WAT      O 8557   8.350   8.781   7.028
 2772WAT     H1 8558   8.302   8.862   7.060
 2772WAT     H2 8559   8.284   8.710   7.005
 2773WAT      O 8560   9.126   4.623   5.297
 2773WAT     H1 8561   9.216   4.664   5.283
 2773WAT     H2 8562   9.115   4.545   5.236
 2774WAT      O 8563   4.428   9.280   2.128
 2774WAT     H1 8564   4.470   9.236   2.207
 2774WAT     H2 8565   4.419   9.214   2.054
 2775WAT      O 8566   2.010   6.929   0.264
 2775WAT     H1 8567   2.074   6.863   0.303
 2775WAT     H2 8568   2.022   7.017   0.310
 2776WAT      O 8569   3.623   2.109   2.317
 2776WAT     H1 8570   3.612   2.172   2.239
 2776WAT     H2 8571   3.685   2.150   2.383
 2777WAT      O 8572   3.673   5.906   9.646
 2777WAT     H1 8573   3.714   5.824   9.687
 2777WAT     H2 8574   3.739   5.981   9.647
 2778WAT      O 8575   0.350   4.467   8.156
 2778WAT     H1 8576   0.440   4.449   8.117
 2778WAT     H2 8577   0.296   4.383   8.159
 2779WAT      O 8578   2.420   6.091   3.666
 2779WAT     H1 8579   2.438   6.003   3.623
 2779WAT     H2 8580   2.507   6.136   3.687
 2780WAT      O 8581   3.652   0.092   2.647
 2780WAT     H1 8582   3.589   0.154   2.601
 2780WAT     H2 8583   3.745   0.109   2.615
 2781WAT      O 8584   0.930   0.410   8.963
 2781WAT     H1 8585   0.933   0.509   8.954
 2781WAT     H2 8586   0.873   0.372   8.890
 2782WAT      O 8587   3.558   2.072   7.795
 2782WAT     H1 8588   3.510   2.142   7.847
 2782WAT     H2 8589   3.611   2.115   7.722
 2783WAT      O 8590   7.362   5.167   4.429
 2783WAT     H1 8591   7.314   5.204   4.508
 2783WAT     H2 8592   7.378   5.069   4.442
 2784WAT      O 8593   4.297   1.630   2.116
 2784WAT     H1 8594   4.312   1.650   2.019
 2784WAT     H2 8595   4.230   1.556   2.125
 2785WAT      O 8596   5.930   9.668   2.997
 2785WAT     H1 8597   5.961   9.588   2.946
 2785WAT     H2 8598   5.855   9.711   2.949
 2786WAT      O 8599   5.727   0.682   0.255
 2786WAT     H1 8600   5.704   0.610   0.191
 2786WAT     H2 8601   5.814   0.725   0.228
 2787WAT      O 8602   2.215   3.669   3.799
 2787WAT     H1 8603   2.148   3.595   3.799
 2787WAT     H2 8604   2.298   3.639   3.844
 2788WAT      O 8605   9.312   5.884   8.411
 2788WAT     H1 8606   9.306   5.818   8.486
 2788WAT     H2 8607   9.268   5.847   8.330
 2789WAT      O 8608   5.244   7.868   0.189
 2789WAT     H1 8609   5.332   7.826   0.165
 2789WAT     H2 8610   5.194   7.807   0.250
 2790WAT      O 8611   7.055   2.195   1.467
 2790WAT     H1 8612   6.996   2.116   1.450
 2790WAT     H2 8613   7.103   2.183   1.554
 2791WAT      O 8614   7.170   5.140   6.044
 2791WAT     H1 8615   7.173   5.160   6.142
 2791WAT     H2 8616   7.235   5.198   5.995
 2792WAT      O 8617   4.937   4.988   1.683
 2792WAT     H1 8618   4.847   5.031   1.679
 2792WAT     H2 8619   4.929   4.892   1.656
 2793WAT      O 8620   1.020   9.142   6.688
 2793WAT     H1 8621   0.948   9.077   6.667
 2793WAT     H2 8622   1.081   9.151   6.609
 2794WAT      O 8623   7.256   8.811   5.904
 2794WAT     H1 8624   7.226   8.717   5.892
 2794WAT     H2 8625   7.234   8.865   5.823
 2795WAT      O 8626   5.967   0.367   2.192
 2795WAT     H1 8627   5.875   0.359   2.153
 2795WAT     H2 8628   5.961   0.381   2.290
 2796WAT      O 8629   5.872   2.516   7.619
 2796WAT     H1 8630   5.802   2.517   7.547
 2796WAT     H2 8631   5.831   2.487   7.705
 2797WAT      O 8632   6.536   6.633   5.984
 2797WAT     H1 8633   6.632   6.644   6.006
 2797WAT     H2 8634   6.519   6.667   5.891
 2798WAT      O 8635   3.806   7.709   2.985
 2798WAT     H1 8636   3.902   7.686   3.001
 2798WAT     H2 8637   3.760   7.722   3.073
 2799WAT      O 8638   9.405   5.203   6.342
 2799WAT     H1 8639   9.308   5.216   6.362
 2799WAT     H2 8640   9.414   5.143   6.262
 2800WAT      O 8641   2.196   1.405   2.935
 2800WAT     H1 8642   2.175   1.430   2.841
 2800WAT     H2 8643   2.287   1.439   2.959
 2801WAT      O 8644   1.409   7.662   1.009
 2801WAT     H1 8645   1.319   7.625   1.034
 2801WAT     H2 8646   1.396   7.741   0.948
 2802WAT      O 8647   8.303   9.666   6.313
 2802WAT     H1 8648   8.372   9.595   6.326
 2802WAT     H2 8649   8.258   9.653   6.224
 2803WAT      O 8650   8.716   1.023   3.948
 2803WAT     H1 8651   8.809   0.988   3.959
 2803WAT     H2 8652   8.658   0.951   3.909
 2804WAT      O 8653   3.003   9.722   8.133
 2804WAT     H1 8654   3.020   9.625   8.153
 2804WAT     H2 8655   3.081   9.776   8.163
 2805WAT      O 8656   4.611   9.620   0.235
 2805WAT     H1 8657   4.687   9.599   0.296
 2805WAT     H2 8658   4.527   9.579   0.270
 2806WAT      O 8659   4.652   0.061   9.280
 2806WAT     H1 8660   4.580   0.090   9.217
 2806WAT     H2 8661   4.688  -0.027   9.251
 2807WAT      O 8662   0.985   7.948   3.183
 2807WAT     H1 8663   0.934   7.960   3.098
 2807WAT     H2 8664   1.059   8.014   3.188
 2808WAT      O 8665   5.071   9.691   5.918
 2808WAT     H1 8666   5.083   9.633   5.838
 2808WAT     H2 8667   5.036   9.781   5.890
 2809WAT      O 8668   4.523   6.056   3.386
 2809WAT     H1 8669   4.547   6.115   3.464
 2809WAT     H2 8670   4.606   6.022   3.343
 2810WAT      O 8671   7.080   8.220   8.811
 2810WAT     H1 8672   7.080   8.176   8.901
 2810WAT     H2 8673   7.033   8.160   8.745
 2811WAT      O 8674   7.483   5.224   9.674
 2811WAT     H1 8675   7.458   5.306   9.623
 2811WAT     H2 8676   7.400   5.172   9.696
 2812WAT      O 8677   6.953   9.517   1.056
 2812WAT     H1 8678   7.052   9.521   1.061
 2812WAT     H2 8679   6.913   9.580   1.123
 2813WAT      O 8680   1.103   1.134   5.801
 2813WAT     H1 8681   1.082   1.157   5.896
 2813WAT     H2 8682   1.198   1.157   5.782
 2814WAT      O 8683   3.229   3.568   3.110
 2814WAT     H1 8684   3.153   3.509   3.136
 2814WAT     H2 8685   3.210   3.662   3.138
 2815WAT      O 8686   6.834   7.446   7.836
 2815WAT     H1 8687   6.756   7.404   7.881
 2815WAT     H2 8688   6.888   7.497   7.904
 2816WAT      O 8689   2.450   2.833   7.160
 2816WAT     H1 8690   2.506   2.905   7.201
 2816WAT     H2 8691   2.506   2.782   7.095
 2817WAT      O 8692   1.918   5.927   0.347
 2817WAT     H1 8693   2.001   5.951   0.297
 2817WAT     H2 8694   1.940   5.861   0.419
 2818WAT      O 8695   7.939   6.019   5.034
 2818WAT     H1 8696   8.033   6.043   5.013
 2818WAT     H2 8697   7.911   6.063   5.119
 2819WAT      O 8698   8.493   0.944   6.463
 2819WAT     H1 8699   8.456   0.907   6.548
 2819WAT     H2 8700   8.536   0.870   6.411
 2820WAT      O 8701   2.786   1.305   0.089
 2820WAT     H1 8702   2.844   1.359   0.151
 2820WAT     H2 8703   2.692   1.339   0.093
 2821WAT      O 8704   7.569   1.967   7.304
 2821WAT     H1 8705   7.544   1.930   7.214
 2821WAT     H2 8706   7.511   1.924   7.374
 2822WAT      O 8707   7.588   7.653   2.872
 2822WAT     H1 8708   7.613   7.587   2.800
 2822WAT     H2 8709   7.654   7.645   2.947
 2823WAT      O 8710   8.964   1.747   5.587
 2823WAT     H1 8711   8.986   1.654   5.556
 2823WAT     H2 8712   8.963   1.750   5.687
 2824WAT      O 8713   8.582   3.022   8.573
 2824WAT     H1 8714   8.617   2.929   8.564
 2824WAT     H2 8715   8.645   3.077   8.627
 2825WAT      O 8716   6.895   6.798   4.734
 2825WAT     H1 8717   6.799   6.823   4.744
 2825WAT     H2 8718   6.942   6.867   4.679
 2826WAT      O 8719   5.307   6.127   7.829
 2826WAT     H1 8720   5.278   6.169   7.743
 2826WAT     H2 8721   5.288   6.189   7.905
 2827WAT      O 8722   8.797   7.334   4.234
 2827WAT     H1 8723   8.750   7.246   4.236
 2827WAT     H2 8724   8.772   7.384   4.151
 2828WAT      O 8725   4.628   5.558   8.015
 2828WAT     H1 8726   4.682   5.559   7.931
 2828WAT     H2 8727   4.576   5.472   8.021
 2829WAT      O 8728   7.545   7.125   4.218
 2829WAT     H1 8729   7.635   7.166   4.202
 2829WAT     H2 8730   7.556   7.028   4.239
 2830WAT      O 8731   9.245   5.613   4.755
 2830WAT     H1 8732   9.227   5.663   4.671
 2830WAT     H2 8733   9.182   5.644   4.826
 2831WAT      O 8734   4.893   6.601   7.810
 2831WAT     H1 8735   4.825   6.569   7.876
 2831WAT     H2 8736   4.877   6.697   7.789
 2832WAT      O 8737   3.719   1.449   5.402
 2832WAT     H1 8738   3.817   1.462   5.416
 2832WAT     H2 8739   3.674   1.538   5.398
 2833WAT      O 8740   3.876   5.674   6.752
 2833WAT     H1 8741   3.919   5.655   6.840
 2833WAT     H2 8742   3.914   5.758   6.713
 2834WAT      O 8743   1.940   2.490   0.944
 2834WAT     H1 8744   1.975   2.480   1.037
 2834WAT     H2 8745   1.953   2.404   0.894
 2835WAT      O 8746   9.245   2.197   3.356
 2835WAT     H1 8747   9.303   2.121   3.328
 2835WAT     H2 8748   9.208   2.179   3.447
 2836WAT      O 8749   1.792   9.373   1.511
 2836WAT     H1 8750   1.811   9.284   1.554
 2836WAT     H2 8751   1.799   9.364   1.412
 2837WAT      O 8752   3.971   1.366   6.025
 2837WAT     H1 8753   3.972   1.330   5.932
 2837WAT     H2 8754   3.942   1.462   6.023
 2838WAT      O 8755   3.922   0.795   9.609
 2838WAT     H1 8756   3.892   0.756   9.522
 2838WAT     H2 8757   3.843   0.832   9.658
 2839WAT      O 8758   6.192   4.379   7.957
 2839WAT     H1 8759   6.246   4.394   8.040
 2839WAT     H2 8760   6.133   4.457   7.941
 2840WAT      O 8761   9.513   1.403   3.888
 2840WAT     H1 8762   9.557   1.322   3.929
 2840WAT     H2 8763   9.417   1.407   3.917
 2841WAT      O 8764   2.632   4.685   2.765
 2841WAT     H1 8765   2.670   4.674   2.857
 2841WAT     H2 8766   2.645   4.779   2.735
 2842WAT      O 8767   3.686   7.116   9.559
 2842WAT     H1 8768   3.718   7.035   9.608
 2842WAT     H2 8769   3.728   7.198   9.598
 2843WAT      O 8770   3.573   1.593   3.344
 2843WAT     H1 8771   3.571   1.493   3.351
 2843WAT     H2 8772   3.480   1.628   3.336
 2844WAT      O 8773   0.426   8.174   8.217
 2844WAT     H1 8774   0.418   8.256   8.160
 2844WAT     H2 8775   0.395   8.196   8.310
 2845WAT      O 8776   7.730   6.857   1.923
 2845WAT     H1 8777   7.720   6.937   1.863
 2845WAT     H2 8778   7.705   6.883   2.016
 2846WAT      O 8779   6.145   7.710   8.016
 2846WAT     H1 8780   6.203   7.679   8.091
 2846WAT     H2 8781   6.198   7.710   7.931
 2847WAT      O 8782   0.020   9.065   2.375
 2847WAT     H1 8783  -0.013   9.158   2.393
 2847WAT     H2 8784   0.097   9.045   2.436
 2848WAT      O 8785   6.536   9.008   9.360
 2848WAT     H1 8786   6.510   8.955   9.440
 2848WAT     H2 8787   6.634   9.025   9.361
 2849WAT      O 8788   8.229   6.424   5.497
 2849WAT     H1 8789   8.178   6.360   5.556
 2849WAT     H2 8790   8.167   6.496   5.466
 2850WAT      O 8791   6.536   6.775   6.961
 2850WAT     H1 8792   6.454   6.832   6.960
 2850WAT     H2 8793   6.531   6.708   6.887
 2851WAT      O 8794   6.671   6.645   8.454
 2851WAT     H1 8795   6.679   6.572   8.522
 2851WAT     H2 8796   6.576   6.651   8.422
 2852WAT      O 8797   1.850   3.154   4.024
 2852WAT     H1 8798   1.779   3.116   3.964
 2852WAT     H2 8799   1.876   3.086   4.092
 2853WAT      O 8800   0.615   8.712   8.717
 2853WAT     H1 8801   0.594   8.787   8.654
 2853WAT     H2 8802   0.655   8.636   8.667
 2854WAT      O 8803   1.827   9.774   2.761
 2854WAT     H1 8804   1.734   9.746   2.785
 2854WAT     H2 8805   1.824   9.850   2.696
 2855WAT      O 8806   8.693   5.173   2.962
 2855WAT     H1 8807   8.755   5.249   2.945
 2855WAT     H2 8808   8.620   5.201   3.024
 2856WAT      O 8809   2.384   6.055   4.230
 2856WAT     H1 8810   2.473   6.032   4.190
 2856WAT     H2 8811   2.313   6.005   4.180
 2857WAT      O 8812   8.001   3.462   4.476
 2857WAT     H1 8813   7.995   3.556   4.510
 2857WAT     H2 8814   8.045   3.461   4.386
 2858WAT      O 8815   6.285   2.915   2.536
 2858WAT     H1 8816   6.298   3.004   2.492
 2858WAT     H2 8817   6.229   2.926   2.618
 2859WAT      O 8818   0.061   5.478   2.697
 2859WAT     H1 8819   0.065   5.392   2.749
 2859WAT     H2 8820  -0.008   5.470   2.625
 2860WAT      O 8821   4.252   1.076   1.964
 2860WAT     H1 8822   4.264   0.982   1.995
 2860WAT     H2 8823   4.245   1.137   2.043
 2861WAT      O 8824   2.252   8.605   0.610
 2861WAT     H1 8825   2.229   8.509   0.624
 2861WAT     H2 8826   2.302   8.640   0.689
 2862WAT      O 8827   5.324   7.452   7.997
 2862WAT     H1 8828   5.395   7.518   8.020
 2862WAT     H2 8829   5.265   7.489   7.926
 2863WAT      O 8830   2.444   1.157   3.446
 2863WAT     H1 8831   2.536   1.124   3.425
 2863WAT     H2 8832   2.387   1.081   3.475
 2864WAT      O 8833   1.990   7.073   6.057
 2864WAT     H1 8834   2.035   7.062   5.968
 2864WAT     H2 8835   1.916   7.139   6.049
 2865WAT      O 8836   1.172   1.099   5.557
 2865WAT     H1 8837   1.132   1.096   5.649
 2865WAT     H2 8838   1.141   1.021   5.504
 2866WAT      O 8839   1.092   1.679   2.488
 2866WAT     H1 8840   1.127   1.654   2.398
 2866WAT     H2 8841   1.163   1.665   2.557
 2867WAT      O 8842   5.754   5.652   3.412
 2867WAT     H1 8843   5.795   5.694   3.493
 2867WAT     H2 8844   5.820   5.593   3.367
 2868WAT      O 8845   4.494   5.103   2.065
 2868WAT     H1 8846   4.489   5.174   2.135
 2868WAT     H2 8847   4.589   5.085   2.042
 2869WAT      O 8848   2.206   1.899   6.173
 2869WAT     H1 8849   2.271   1.974   6.159
 2869WAT     H2 8850   2.237   1.841   6.248
 2870WAT      O 8851   1.660   8.918   6.894
 2870WAT     H1 8852   1.731   8.848   6.901
 2870WAT     H2 8853   1.699   9.002   6.858
 2871WAT      O 8854   4.795   1.934   8.429
 2871WAT     H1 8855   4.749   1.845   8.429
 2871WAT     H2 8856   4.729   2.006   8.450
 2872WAT      O 8857   8.629   0.691   4.451
 2872WAT     H1 8858   8.658   0.781   4.418
 2872WAT     H2 8859   8.623   0.627   4.375
 2873WAT      O 8860   6.797   0.253   4.793
 2873WAT     H1 8861   6.713   0.298   4.765
 2873WAT     H2 8862   6.846   0.218   4.713
 2874WAT      O 8863   1.413   6.939   1.335
 2874WAT     H1 8864   1.313   6.932   1.332
 2874WAT     H2 8865   1.443   6.947   1.430
 2875WAT      O 8866   8.070   4.258   3.567
 2875WAT     H1 8867   8.068   4.197   3.488
 2875WAT     H2 8868   8.145   4.232   3.627
 2876WAT      O 8869   4.223   1.504   6.146
 2876WAT     H1 8870   4.183   1.420   6.110
 2876WAT     H2 8871   4.294   1.537   6.085
 2877WAT      O 8872   7.452   0.685   2.622
 2877WAT     H1 8873   7.395   0.628   2.682
 2877WAT     H2 8874   7.494   0.628   2.552
 2878WAT      O 8875   4.894   6.742   0.285
 2878WAT     H1 8876   4.994   6.749   0.276
 2878WAT     H2 8877   4.869   6.756   0.381
 2879WAT      O 8878   0.242   2.848   5.627
 2879WAT     H1 8879   0.247   2.758   5.583
 2879WAT     H2 8880   0.148   2.866   5.656
 2880WAT      O 8881   9.667   9.282   5.946
 2880WAT     H1 8882   9.647   9.379   5.956
 2880WAT     H2 8883   9.758   9.269   5.907
 2881WAT      O 8884   4.642   0.320   3.731
 2881WAT     H1 8885   4.651   0.232   3.684
 2881WAT     H2 8886   4.622   0.305   3.828
 2882WAT      O 8887   0.078   2.147   6.063
 2882WAT     H1 8888   0.156   2.133   6.124
 2882WAT     H2 8889  -0.002   2.172   6.117
 2883WAT      O 8890   0.335   9.240   9.856
 2883WAT     H1 8891   0.245   9.202   9.833
 2883WAT     H2 8892   0.404   9.168   9.850
 2884WAT      O 8893   5.551   0.015   4.784
 2884WAT     H1 8894   5.548  -0.084   4.800
 2884WAT     H2 8895   5.638   0.051   4.818
 2885WAT      O 8896   5.159   3.523   8.855
 2885WAT     H1 8897   5.163   3.588   8.779
 2885WAT     H2 8898   5.153   3.430   8.819
 2886WAT      O 8899   9.654   7.530   1.311
 2886WAT     H1 8900   9.711   7.475   1.372
 2886WAT     H2 8901   9.603   7.469   1.250
 2887WAT      O 8902   2.827   9.196   4.264
 2887WAT     H1 8903   2.896   9.123   4.260
 2887WAT     H2 8904   2.752   9.168   4.323
 2888WAT      O 8905   9.071   0.402   4.951
 2888WAT     H1 8906   9.076   0.461   4.871
 2888WAT     H2 8907   9.016   0.447   5.022
 2889WAT      O 8908   9.767   2.231   3.141
 2889WAT     H1 8909   9.722   2.293   3.076
 2889WAT     H2 8910   9.762   2.138   3.107
 2890WAT      O 8911   8.546   4.116   5.209
 2890WAT     H1 8912   8.516   4.191   5.269
 2890WAT     H2 8913   8.541   4.146   5.113
 2891WAT      O 8914   1.804   1.746   0.425
 2891WAT     H1 8915   1.897   1.776   0.403
 2891WAT     H2 8916   1.804   1.648   0.444
 2892WAT      O 8917   5.240   1.917   2.264
 2892WAT     H1 8918   5.144   1.944   2.268
 2892WAT     H2 8919   5.295   1.995   2.233
 2893WAT      O 8920   2.093   0.437   1.785
 2893WAT     H1 8921   2.005   0.406   1.820
 2893WAT     H2 8922   2.161   0.366   1.797
 2894WAT      O 8923   6.910   7.276   4.285
 2894WAT     H1 8924   6.882   7.267   4.189
 2894WAT     H2 8925   7.007   7.298   4.289
 2895WAT      O 8926   2.165   4.089   2.405
 2895WAT     H1 8927   2.066   4.103   2.408
 2895WAT     H2 8928   2.185   4.002   2.361
 2896WAT      O 8929   9.472   6.880   5.148
 2896WAT     H1 8930   9.467   6.811   5.220
 2896WAT     H2 8931   9.386   6.880   5.096
 2897WAT      O 8932   8.078   4.432   2.681
 2897WAT     H1 8933   8.095   4.530   2.675
 2897WAT     H2 8934   8.159   4.387   2.719
 2898WAT      O 8935   8.496   6.869   8.343
 2898WAT     H1 8936   8.442   6.951   8.365
 2898WAT     H2 8937   8.593   6.891   8.350
 2899WAT      O 8938   5.129   1.271   3.966
 2899WAT     H1 8939   5.101   1.318   3.882
 2899WAT     H2 8940   5.200   1.324   4.012
 2900WAT      O 8941   6.642   6.763   3.409
 2900WAT     H1 8942   6.585   6.840   3.438
 2900WAT     H2 8943   6.605   6.725   3.324
 2901WAT      O 8944   5.926   5.168   4.012
 2901WAT     H1 8945   5.862   5.160   4.088
 2901WAT     H2 8946   5.991   5.091   4.016
 2902WAT      O 8947   2.752   8.303   2.511
 2902WAT     H1 8948   2.823   8.319   2.579
 2902WAT     H2 8949   2.792   8.309   2.419
 2903WAT      O 8950   9.366   8.341   5.281
 2903WAT     H1 8951   9.325   8.432   5.281
 2903WAT     H2 8952   9.332   8.289   5.359
 2904WAT      O 8953   5.927   2.643   3.982
 2904WAT     H1 8954   5.984   2.593   3.917
 2904WAT     H2 8955   5.982   2.673   4.059
 2905WAT      O 8956   9.040   2.576   0.349
 2905WAT     H1 8957   8.981   2.502   0.382
 2905WAT     H2 8958   8.989   2.661   0.347
 2906WAT      O 8959   8.302   5.552   0.632
 2906WAT     H1 8960   8.285   5.509   0.543
 2906WAT     H2 8961   8.234   5.623   0.649
 2907WAT      O 8962   1.877   7.341   7.762
 2907WAT     H1 8963   1.831   7.383   7.840
 2907WAT     H2 8964   1.829   7.257   7.737
 2908WAT      O 8965   0.088   6.526   5.600
 2908WAT     H1 8966   0.090   6.592   5.525
 2908WAT     H2 8967   0.026   6.559   5.671
 2909WAT      O 8968   5.322   5.484   2.782
 2909WAT     H1 8969   5.318   5.573   2.828
 2909WAT     H2 8970   5.237   5.469   2.731
 2910WAT      O 8971   9.631   1.436   0.465
 2910WAT     H1 8972   9.570   1.362   0.438
 2910WAT     H2 8973   9.598   1.523   0.427
 2911WAT      O 8974   4.709   3.817   4.828
 2911WAT     H1 8975   4.787   3.789   4.884
 2911WAT     H2 8976   4.723   3.789   4.734
 2912WAT      O 8977   1.769   7.715   6.885
 2912WAT     H1 8978   1.735   7.638   6.831
 2912WAT     H2 8979   1.818   7.778   6.825
 2913WAT      O 8980   9.443   5.352   4.646
 2913WAT     H1 8981   9.375   5.359   4.720
 2913WAT     H2 8982   9.398   5.372   4.558
 2914WAT      O 8983   5.663   2.498   7.448
 2914WAT     H1 8984   5.581   2.486   7.505
 2914WAT     H2 8985   5.636   2.514   7.353
 2915WAT      O 8986   5.785   5.320   0.434
 2915WAT     H1 8987   5.860   5.376   0.400
 2915WAT     H2 8988   5.705   5.332   0.375
 2916WAT      O 8989   2.625   5.531   0.784
 2916WAT     H1 8990   2.718   5.561   0.763
 2916WAT     H2 8991   2.627   5.463   0.857
 2917WAT      O 8992   2.386   9.168   7.349
 2917WAT     H1 8993   2.313   9.125   7.296
 2917WAT     H2 8994   2.358   9.260   7.377
 2918WAT      O 8995   4.789   8.884   7.619
 2918WAT     H1 8996   4.793   8.897   7.520
 2918WAT     H2 8997   4.704   8.838   7.643
 2919WAT      O 8998   1.715   8.819   3.319
 2919WAT     H1 8999   1.772   8.774   3.250
 2919WAT     H2 9000   1.724   8.918   3.309
 2920WAT      O 9001   8.306   9.360   5.121
 2920WAT     H1 9002   8.364   9.405   5.189
 2920WAT     H2 9003   8.352   9.363   5.032
 2921WAT      O 9004   0.159   2.837   5.038
 2921WAT     H1 9005   0.192   2.786   4.959
 2921WAT     H2 9006   0.200   2.798   5.121
 2922WAT      O 9007   7.208   8.601   1.006
 2922WAT     H1 9008   7.176   8.507   1.014
 2922WAT     H2 9009   7.275   8.620   1.078
 2923WAT      O 9010   9.631   3.110   2.573
 2923WAT     H1 9011   9.567   3.144   2.504
 2923WAT     H2 9012   9.673   3.025   2.540
 2924WAT      O 9013   5.928   7.142   8.711
 2924WAT     H1 9014   5.924   7.231   8.666
 2924WAT     H2 9015   5.837   7.099   8.709
 2925WAT      O 9016   4.451   1.459   3.125
 2925WAT     H1 9017   4.525   1.434   3.062
 2925WAT     H2 9018   4.363   1.438   3.083
 2926WAT      O 9019   8.220   8.274   0.210
 2926WAT     H1 9020   8.140   8.228   0.171
 2926WAT     H2 9021   8.239   8.236   0.301
 2927WAT      O 9022   1.642   9.259   0.004
 2927WAT     H1 9023   1.571   9.284   0.070
 2927WAT     H2 9024   1.688   9.342  -0.028
 2928WAT      O 9025   4.694   8.426   5.172
 2928WAT     H1 9026   4.681   8.515   5.217
 2928WAT     H2 9027   4.633   8.359   5.214
 2929WAT      O 9028   8.640   6.410   5.549
 2929WAT     H1 9029   8.621   6.396   5.646
 2929WAT     H2 9030   8.733   6.446   5.539
 2930WAT      O 9031   8.969   1.404   3.464
 2930WAT     H1 9032   8.971   1.317   3.513
 2930WAT     H2 9033   8.909   1.467   3.513
 2931WAT      O 9034   6.120   2.724   7.314
 2931WAT     H1 9035   6.212   2.764   7.313
 2931WAT     H2 9036   6.106   2.670   7.231
 2932WAT      O 9037   6.669   3.166   1.415
 2932WAT     H1 9038   6.570   3.169   1.433
 2932WAT     H2 9039   6.684   3.138   1.320
 2933WAT      O 9040   5.126   7.590   6.011
 2933WAT     H1 9041   5.068   7.576   6.092
 2933WAT     H2 9042   5.081   7.654   5.949
 2934WAT      O 9043   2.830   6.929   6.408
 2934WAT     H1 9044   2.859   6.989   6.482
 2934WAT     H2 9045   2.822   6.981   6.323
 2935WAT      O 9046   5.276   4.944   7.967
 2935WAT     H1 9047   5.253   5.019   7.904
 2935WAT     H2 9048   5.354   4.893   7.931
 2936WAT      O 9049   1.780   7.194   8.530
 2936WAT     H1 9050   1.809   7.114   8.582
 2936WAT     H2 9051   1.796   7.277   8.585
 2937WAT      O 9052   1.907   5.194   3.758
 2937WAT     H1 9053   1.951   5.209   3.847
 2937WAT     H2 9054   1.869   5.280   3.725
 2938WAT      O 9055   7.396   1.730   3.725
 2938WAT     H1 9056   7.373   1.634   3.737
 2938WAT     H2 9057   7.405   1.774   3.815
 2939WAT      O 9058   0.284   3.451   0.008
 2939WAT     H1 9059   0.304   3.493   0.096
 2939WAT     H2 9060   0.365   3.453  -0.050
 2940WAT      O 9061   0.894   4.588   0.080
 2940WAT     H1 9062   0.861   4.558  -0.010
 2940WAT     H2 9063   0.817   4.591   0.144
 2941WAT      O 9064   0.548   1.926   7.663
 2941WAT     H1 9065   0.637   1.946   7.704
 2941WAT     H2 9066   0.476   1.974   7.714
 2942WAT      O 9067   5.589   4.803   2.529
 2942WAT     H1 9068   5.545   4.725   2.572
 2942WAT     H2 9069   5.603   4.876   2.597
 2943WAT      O 9070   1.105   7.856   0.708
 2943WAT     H1 9071   1.032   7.807   0.757
 2943WAT     H2 9072   1.101   7.833   0.611
 2944WAT      O 9073   0.234   3.555   6.001
 2944WAT     H1 9074   0.137   3.532   6.004
 2944WAT     H2 9075   0.247   3.636   5.944
 2945WAT      O 9076   3.605   9.373   1.088
 2945WAT     H1 9077   3.650   9.342   1.172
 2945WAT     H2 9078   3.512   9.402   1.110
 2946WAT      O 9079   2.018   4.870   5.220
 2946WAT     H1 9080   1.982   4.778   5.226
 2946WAT     H2 9081   2.118   4.867   5.220
 2947WAT      O 9082   3.483   7.963   0.028
 2947WAT     H1 9083   3.494   8.062   0.027
 2947WAT     H2 9084   3.460   7.932   0.120
 2948WAT      O 9085   8.970   3.038   7.980
 2948WAT     H1 9086   8.988   3.075   7.889
 2948WAT     H2 9087   8.966   3.112   8.047
 2949WAT      O 9088   7.882   5.698   4.641
 2949WAT     H1 9089   7.802   5.676   4.697
 2949WAT     H2 9090   7.903   5.620   4.582
 2950WAT      O 9091   7.869   6.007   9.426
 2950WAT     H1 9092   7.913   6.043   9.344
 2950WAT     H2 9093   7.842   6.082   9.485
 2951WAT      O 9094   5.302   0.110   1.403
 2951WAT     H1 9095   5.308   0.038   1.335
 2951WAT     H2 9096   5.214   0.104   1.451
 2952WAT      O 9097   4.706   7.245   7.910
 2952WAT     H1 9098   4.611   7.214   7.911
 2952WAT     H2 9099   4.715   7.323   7.849
 2953WAT      O 9100   8.192   9.651   6.059
 2953WAT     H1 9101   8.164   9.562   6.024
 2953WAT     H2 9102   8.246   9.698   5.989
 2954WAT      O 9103   8.010   4.566   0.212
 2954WAT     H1 9104   8.082   4.497   0.197
 2954WAT     H2 9105   7.953   4.538   0.288
 2955WAT      O 9106   1.452   1.584   7.893
 2955WAT     H1 9107   1.384   1.608   7.824
 2955WAT     H2 9108   1.431   1.494   7.931
 2956WAT      O 9109   6.913   4.366   6.036
 2956WAT     H1 9110   6.842   4.373   5.966
 2956WAT     H2 9111   6.980   4.439   6.023
 2957WAT      O 9112   7.045   3.079   8.626
 2957WAT     H1 9113   7.100   2.999   8.650
 2957WAT     H2 9114   7.016   3.072   8.530
 2958WAT      O 9115   0.644   6.106   1.463
 2958WAT     H1 9116   0.637   6.168   1.541
 2958WAT     H2 9117   0.570   6.127   1.398
 2959WAT      O 9118   1.950   4.286   4.800
 2959WAT     H1 9119   2.034   4.340   4.797
 2959WAT     H2 9120   1.935   4.254   4.894
 2960WAT      O 9121   4.139   0.099   7.129
 2960WAT     H1 9122   4.040   0.099   7.111
 2960WAT     H2 9123   4.179   0.014   7.095
 2961WAT      O 9124   9.795   6.752   5.662
 2961WAT     H1 9125   9.698   6.751   5.639
 2961WAT     H2 9126   9.807   6.752   5.761
 2962WAT      O 9127   8.955   5.733   7.540
 2962WAT     H1 9128   8.973   5.661   7.474
 2962WAT     H2 9129   8.937   5.819   7.493
 2963WAT      O 9130   1.352   6.156   4.651
 2963WAT     H1 9131   1.447   6.125   4.641
 2963WAT     H2 9132   1.324   6.147   4.746
 2964WAT      O 9133   6.073   6.748   9.407
 2964WAT     H1 9134   6.150   6.721   9.350
 2964WAT     H2 9135   6.051   6.845   9.391
 2965WAT      O 9136   5.511   0.883   7.169
 2965WAT     H1 9137   5.427   0.828   7.167
 2965WAT     H2 9138   5.579   0.837   7.225
 2966WAT      O 9139   5.323   8.934   4.842
 2966WAT     H1 9140   5.308   8.875   4.763
 2966WAT     H2 9141   5.403   8.992   4.826
 2967WAT      O 9142   5.236   0.087   0.425
 2967WAT     H1 9143   5.296   0.079   0.504
 2967WAT     H2 9144   5.291   0.105   0.343
 2968WAT      O 9145   4.707   8.820   1.516
 2968WAT     H1 9146   4.777   8.840   1.447
 2968WAT     H2 9147   4.618   8.809   1.471
 2969WAT      O 9148   3.872   3.656   2.269
 2969WAT     H1 9149   3.893   3.630   2.175
 2969WAT     H2 9150   3.903   3.584   2.331
 2970WAT      O 9151   9.184   6.395   5.710
 2970WAT     H1 9152   9.172   6.345   5.796
 2970WAT     H2 9153   9.220   6.333   5.640
 2971WAT      O 9154   9.215   1.840   2.668
 2971WAT     H1 9155   9.248   1.929   2.635
 2971WAT     H2 9156   9.115   1.837   2.661
 2972WAT      O 9157   1.823   0.055   1.152
 2972WAT     H1 9158   1.845   0.136   1.207
 2972WAT     H2 9159   1.769  -0.009   1.207
 2973WAT      O 9160   5.343   8.999   4.094
 2973WAT     H1 9161   5.436   9.025   4.121
 2973WAT     H2 9162   5.290   8.976   4.175
 2974WAT      O 9163   6.820   6.139   2.296
 2974WAT     H1 9164   6.858   6.047   2.295
 2974WAT     H2 9165   6.881   6.199   2.348
 2975WAT      O 9166   4.951   8.436   7.538
 2975WAT     H1 9167   4.939   8.349   7.490
 2975WAT     H2 9168   4.906   8.509   7.486
 2976WAT      O 9169   0.128   0.769   8.930
 2976WAT     H1 9170   0.139   0.742   9.025
 2976WAT     H2 9171   0.140   0.688   8.871
 2977WAT      O 9172   4.557   3.645   5.094
 2977WAT     H1 9173   4.561   3.619   4.998
 2977WAT     H2 9174   4.470   3.615   5.133
 2978WAT      O 9175   2.340   1.119   8.831
 2978WAT     H1 9176   2.403   1.123   8.909
 2978WAT     H2 9177   2.294   1.030   8.830
 2979WAT      O 9178   1.285   8.884   2.639
 2979WAT     H1 9179   1.193   8.916   2.664
 2979WAT     H2 9180   1.291   8.874   2.540
 2980WAT      O 9181   9.203   0.029   9.160
 2980WAT     H1 9182   9.261   0.004   9.238
 2980WAT     H2 9183   9.122   0.078   9.194
 2981WAT      O 9184   5.948   2.245   3.310
 2981WAT     H1 9185   6.014   2.170   3.305
 2981WAT     H2 9186   5.880   2.225   3.381
 2982WAT      O 9187   6.688   1.987   2.509
 2982WAT     H1 9188   6.665   1.964   2.604
 2982WAT     H2 9189   6.614   1.959   2.449
 2983WAT      O 9190   7.833   6.552   6.692
 2983WAT     H1 9191   7.856   6.459   6.664
 2983WAT     H2 9192   7.734   6.566   6.681
 2984WAT      O 9193   5.065   9.485   9.148
 2984WAT     H1 9194   5.025   9.519   9.233
 2984WAT     H2 9195   5.130   9.412   9.169
 2985WAT      O 9196   1.996   3.903   1.096
 2985WAT     H1 9197   1.994   4.003   1.101
 2985WAT     H2 9198   1.904   3.868   1.081
 2986WAT      O 9199   4.954   2.041   8.207
 2986WAT     H1 9200   5.018   2.062   8.281
 2986WAT     H2 9201   4.881   1.983   8.242
 2987WAT      O 9202   2.794   7.789   1.617
 2987WAT     H1 9203   2.719   7.798   1.552
 2987WAT     H2 9204   2.864   7.727   1.579
 2988WAT      O 9205   4.184   3.934   7.880
 2988WAT     H1 9206   4.208   4.030   7.889
 2988WAT     H2 9207   4.250   3.889   7.820
 2989WAT      O 9208   8.114   5.971   8.874
 2989WAT     H1 9209   8.083   6.059   8.839
 2989WAT     H2 9210   8.158   5.984   8.962
 2990WAT      O 9211   3.395   4.488   0.976
 2990WAT     H1 9212   3.390   4.405   1.031
 2990WAT     H2 9213   3.423   4.464   0.883
 2991WAT      O 9214   9.794   4.629   2.351
 2991WAT     H1 9215   9.696   4.634   2.371
 2991WAT     H2 9216   9.822   4.709   2.299
 2992WAT      O 9217   5.015   0.672   5.549
 2992WAT     H1 9218   5.098   0.687   5.496
 2992WAT     H2 9219   5.026   0.712   5.640
 2993WAT      O 9220   5.911   3.271   2.572
 2993WAT     H1 9221   5.888   3.232   2.661
 2993WAT     H2 9222   5.837   3.252   2.507
 2994WAT      O 9223   3.816   2.734   6.614
 2994WAT     H1 9224   3.825   2.833   6.614
 2994WAT     H2 9225   3.791   2.702   6.705
 2995WAT      O 9226   8.335   8.887   6.373
 2995WAT     H1 9227   8.434   8.899   6.372
 2995WAT     H2 9228   8.292   8.951   6.310
 2996WAT      O 9229   2.743   3.744   4.628
 2996WAT     H1 9230   2.806   3.667   4.637
 2996WAT     H2 9231   2.734   3.789   4.717
 2997WAT      O 9232   6.957   7.694   2.318
 2997WAT     H1 9233   6.925   7.709   2.225
 2997WAT     H2 9234   6.992   7.600   2.326
 2998WAT      O 9235   3.927   3.697   2.761
 2998WAT     H1 9236   3.870   3.677   2.841
 2998WAT     H2 9237   3.966   3.789   2.771
 2999WAT      O 9238   7.484   7.714   8.539
 2999WAT     H1 9239   7.571   7.707   8.588
 2999WAT     H2 9240   7.479   7.802   8.491
 3000WAT      O 9241   1.065   8.396   8.590
 3000WAT     H1 9242   1.135   8.467   8.600
 3000WAT     H2 9243   1.093   8.314   8.640
 3001WAT      O 9244   4.172   6.698   2.244
 3001WAT     H1 9245   4.138   6.737   2.330
 3001WAT     H2 9246   4.166   6.768   2.172
 3002WAT      O 9247   1.939   3.083   3.662
 3002WAT     H1 9248   1.879   3.004   3.644
 3002WAT     H2 9249   1.903   3.163   3.615
 3003WAT      O 9250   4.596   1.428   8.857
 3003WAT     H1 9251   4.502   1.457   8.877
 3003WAT     H2 9252   4.605   1.330   8.876
 3004WAT      O 9253   3.206   0.078   8.649
 3004WAT     H1 9254   3.153   0.150   8.605
 3004WAT     H2 9255   3.231   0.009   8.582
 3005WAT      O 9256   2.913   2.106   8.628
 3005WAT     H1 9257   2.971   2.036   8.586
 3005WAT     H2 9258   2.965   2.191   8.638
 3006WAT      O 9259   4.092   2.104   8.388
 3006WAT     H1 9260   3.999   2.075   8.412
 3006WAT     H2 9261   4.147   2.110   8.471
 3007WAT      O 9262   9.736   0.552   9.170
 3007WAT     H1 9263   9.741   0.575   9.073
 3007WAT     H2 9264   9.790   0.618   9.223
 3008WAT      O 9265   6.087   8.685   3.907
 3008WAT     H1 9266   6.001   8.647   3.938
 3008WAT     H2 9267   6.110   8.649   3.816
 3009WAT      O 9268   1.541   9.063   1.330
 3009WAT     H1 9269   1.604   9.049   1.407
 3009WAT     H2 9270   1.508   9.157   1.330
 3010WAT      O 9271   9.385   1.614   3.531
 3010WAT     H1 9272   9.471   1.603   3.580
 3010WAT     H2 9273   9.342   1.525   3.517
 3011WAT      O 9274   7.290   7.768   3.768
 3011WAT     H1 9275   7.252   7.825   3.695
 3011WAT     H2 9276   7.216   7.738   3.828
 3012WAT      O 9277   6.514   1.710   4.415
 3012WAT     H1 9278   6.537   1.617   4.388
 3012WAT     H2 9279   6.441   1.745   4.356
 3013WAT      O 9280   6.045   7.322   5.614
 3013WAT     H1 9281   6.107   7.323   5.535
 3013WAT     H2 9282   5.987   7.403   5.611
 3014WAT      O 9283   5.763   8.005   6.632
 3014WAT     H1 9284   5.817   7.942   6.577
 3014WAT     H2 9285   5.669   8.007   6.598
 3015WAT      O 9286   6.158   5.173   3.805
 3015WAT     H1 9287   6.235   5.216   3.852
 3015WAT     H2 9288   6.114   5.108   3.867
 3016WAT      O 9289   9.120   4.727   7.088
 3016WAT     H1 9290   9.153   4.779   7.167
 3016WAT     H2 9291   9.169   4.757   7.006
 3017WAT      O 9292   4.111   6.776   3.985
 3017WAT     H1 9293   4.067   6.750   4.071
 3017WAT     H2 9294   4.139   6.872   3.990
 3018WAT      O 9295   0.099   3.871   4.035
 3018WAT     H1 9296   0.061   3.786   4.069
 3018WAT     H2 9297   0.195   3.878   4.061
 3019WAT      O 9298   2.776   0.950   2.276
 3019WAT     H1 9299   2.724   1.028   2.309
 3019WAT     H2 9300   2.795   0.961   2.178
 3020WAT      O 9301   7.545   4.030   4.339
 3020WAT     H1 9302   7.616   4.059   4.274
 3020WAT     H2 9303   7.469   3.989   4.289
 3021WAT      O 9304   3.810   5.025   1.112
 3021WAT     H1 9305   3.768   5.116   1.113
 3021WAT     H2 9306   3.854   5.008   1.200
 3022WAT      O 9307   8.071   3.952   6.823
 3022WAT     H1 9308   7.980   3.943   6.864
 3022WAT     H2 9309   8.120   3.865   6.829
 3023WAT      O 9310   5.475   6.971   4.859
 3023WAT     H1 9311   5.400   6.932   4.913
 3023WAT     H2 9312   5.469   7.071   4.860
 3024WAT      O 9313   6.638   7.950   3.093
 3024WAT     H1 9314   6.694   8.009   3.034
 3024WAT     H2 9315   6.614   7.867   3.043
 3025WAT      O 9316   2.947   8.025   6.220
 3025WAT     H1 9317   2.945   8.121   6.194
 3025WAT     H2 9318   2.953   7.968   6.138
 3026WAT      O 9319   3.470   7.598   5.972
 3026WAT     H1 9320   3.446   7.511   6.014
 3026WAT     H2 9321   3.393   7.631   5.918
 3027WAT      O 9322   5.988   1.695   5.105
 3027WAT     H1 9323   5.949   1.731   5.190
 3027WAT     H2 9324   5.975   1.761   5.031
 3028WAT      O 9325   1.758   7.899   0.768
 3028WAT     H1 9326   1.673   7.891   0.716
 3028WAT     H2 9327   1.813   7.816   0.754
 3029WAT      O 9328   8.878   5.068   4.396
 3029WAT     H1 9329   8.880   5.071   4.297
 3029WAT     H2 9330   8.969   5.088   4.432
 3030WAT      O 9331   4.443   1.236   5.576
 3030WAT     H1 9332   4.524   1.179   5.593
 3030WAT     H2 9333   4.458   1.291   5.494
 3031WAT      O 9334   2.755   0.197   3.613
 3031WAT     H1 9335   2.701   0.235   3.689
 3031WAT     H2 9336   2.803   0.116   3.645
 3032WAT      O 9337   1.076   5.763   8.756
 3032WAT     H1 9338   0.993   5.752   8.811
 3032WAT     H2 9339   1.055   5.816   8.675
 3033WAT      O 9340   1.146   3.468   4.083
 3033WAT     H1 9341   1.143   3.538   4.154
 3033WAT     H2 9342   1.162   3.511   3.994
 3034WAT      O 9343   7.579   1.187   8.751
 3034WAT     H1 9344   7.649   1.124   8.717
 3034WAT     H2 9345   7.624   1.264   8.797
 3035WAT      O 9346   6.526   0.008   8.838
 3035WAT     H1 9347   6.476  -0.058   8.782
 3035WAT     H2 9348   6.583   0.066   8.779
 3036WAT      O 9349   1.829   6.843   0.981
 3036WAT     H1 9350   1.766   6.872   1.053
 3036WAT     H2 9351   1.908   6.905   0.979
 3037WAT      O 9352   0.738   6.418   2.902
 3037WAT     H1 9353   0.766   6.490   2.839
 3037WAT     H2 9354   0.674   6.456   2.970
 3038WAT      O 9355   9.627   0.803   8.867
 3038WAT     H1 9356   9.644   0.705   8.875
 3038WAT     H2 9357   9.713   0.850   8.847
 3039WAT      O 9358   4.205   1.659   6.851
 3039WAT     H1 9359   4.179   1.729   6.786
 3039WAT     H2 9360   4.131   1.644   6.917
 3040WAT      O 9361   2.512   3.234   1.649
 3040WAT     H1 9362   2.583   3.304   1.649
 3040WAT     H2 9363   2.449   3.250   1.725
 3041WAT      O 9364   9.328   9.770   8.723
 3041WAT     H1 9365   9.399   9.803   8.660
 3041WAT     H2 9366   9.241   9.814   8.700
 3042WAT      O 9367   3.014   3.326   4.500
 3042WAT     H1 9368   3.087   3.264   4.528
 3042WAT     H2 9369   2.954   3.280   4.434
 3043WAT      O 9370   0.778   6.834   1.065
 3043WAT     H1 9371   0.770   6.782   0.979
 3043WAT     H2 9372   0.708   6.803   1.129
 3044WAT      O 9373   5.316   0.396   5.273
 3044WAT     H1 9374   5.333   0.481   5.323
 3044WAT     H2 9375   5.285   0.325   5.336
 3045WAT      O 9376   9.775   7.202   1.897
 3045WAT     H1 9377   9.682   7.173   1.875
 3045WAT     H2 9378   9.817   7.244   1.817
 3046WAT      O 9379   8.357   0.256   6.038
 3046WAT     H1 9380   8.412   0.292   5.963
 3046WAT     H2 9381   8.340   0.328   6.105
 3047WAT      O 9382   0.206   1.924   4.668
 3047WAT     H1 9383   0.148   1.990   4.716
 3047WAT     H2 9384   0.302   1.946   4.684
 3048WAT      O 9385   0.670   3.560   5.861
 3048WAT     H1 9386   0.675   3.575   5.960
 3048WAT     H2 9387   0.695   3.466   5.841
 3049WAT      O 9388   6.978   5.876   5.364
 3049WAT     H1 9389   7.012   5.921   5.447
 3049WAT     H2 9390   7.019   5.918   5.283
 3050WAT      O 9391   9.131   3.018   7.505
 3050WAT     H1 9392   9.065   3.066   7.448
 3050WAT     H2 9393   9.170   2.942   7.453
 3051WAT      O 9394   9.668   3.330   5.845
 3051WAT     H1 9395   9.701   3.238   5.866
 3051WAT     H2 9396   9.596   3.324   5.776
 3052WAT      O 9397   3.485   8.328   5.226
 3052WAT     H1 9398   3.529   8.265   5.162
 3052WAT     H2 9399   3.551   8.358   5.295
 3053WAT      O 9400   5.554   1.491   3.131
 3053WAT     H1 9401   5.647   1.525   3.114
 3053WAT     H2 9402   5.548   1.395   3.102
 3054WAT      O 9403   0.614   4.715   2.921
 3054WAT     H1 9404   0.606   4.698   3.019
 3054WAT     H2 9405   0.523   4.731   2.883
 3055WAT      O 9406   2.294   1.588   7.338
 3055WAT     H1 9407   2.391   1.613   7.335
 3055WAT     H2 9408   2.277   1.514   7.273
 3056WAT      O 9409   5.124   8.486   6.647
 3056WAT     H1 9410   5.132   8.529   6.557
 3056WAT     H2 9411   5.028   8.476   6.671
 3057WAT      O 9412   4.340   4.164   8.589
 3057WAT     H1 9413   4.419   4.169   8.651
 3057WAT     H2 9414   4.361   4.213   8.504
 3058WAT      O 9415   5.902   1.714   3.455
 3058WAT     H1 9416   5.982   1.719   3.516
 3058WAT     H2 9417   5.867   1.620   3.455
 3059WAT      O 9418   1.962   9.787   9.206
 3059WAT     H1 9419   2.016   9.703   9.217
 3059WAT     H2 9420   1.941   9.801   9.109
 3060WAT      O 9421   1.507   6.413   9.257
 3060WAT     H1 9422   1.470   6.428   9.165
 3060WAT     H2 9423   1.457   6.339   9.301
 3061WAT      O 9424   0.184   1.352   9.475
 3061WAT     H1 9425   0.126   1.277   9.442
 3061WAT     H2 9426   0.136   1.403   9.545
 3062WAT      O 9427   3.908   3.744   3.443
 3062WAT     H1 9428   3.896   3.659   3.495
 3062WAT     H2 9429   3.819   3.784   3.424
 3063WAT      O 9430   9.549   1.900   5.145
 3063WAT     H1 9431   9.576   1.903   5.049
 3063WAT     H2 9432   9.461   1.948   5.157
 3064WAT      O 9433   1.976   4.485   7.513
 3064WAT     H1 9434   2.073   4.465   7.494
 3064WAT     H2 9435   1.942   4.423   7.582
 3065WAT      O 9436   5.652   1.566   8.678
 3065WAT     H1 9437   5.643   1.563   8.777
 3065WAT     H2 9438   5.749   1.576   8.654
 3066WAT      O 9439   4.235   2.654   0.413
 3066WAT     H1 9440   4.224   2.709   0.496
 3066WAT     H2 9441   4.146   2.645   0.367
 3067WAT      O 9442   3.227   9.599   2.660
 3067WAT     H1 9443   3.165   9.629   2.733
 3067WAT     H2 9444   3.290   9.530   2.695
 3068WAT      O 9445   3.036   4.920   6.121
 3068WAT     H1 9446   2.974   4.998   6.129
 3068WAT     H2 9447   2.986   4.842   6.081
 3069WAT      O 9448   5.507   2.578   7.229
 3069WAT     H1 9449   5.538   2.595   7.135
 3069WAT     H2 9450   5.453   2.655   7.261
 3070WAT      O 9451   6.037   1.159   7.124
 3070WAT     H1 9452   6.102   1.161   7.200
 3070WAT     H2 9453   5.991   1.247   7.116
 3071WAT      O 9454   0.591   9.068   2.391
 3071WAT     H1 9455   0.517   9.129   2.420
 3071WAT     H2 9456   0.624   9.015   2.469
 3072WAT      O 9457   0.504   0.502   9.341
 3072WAT     H1 9458   0.424   0.524   9.396
 3072WAT     H2 9459   0.538   0.411   9.366
 3073WAT      O 9460   2.031   8.038   0.175
 3073WAT     H1 9461   1.955   8.046   0.239
 3073WAT     H2 9462   2.010   7.967   0.108
 3074WAT      O 9463   6.835   3.498   9.825
 3074WAT     H1 9464   6.769   3.429   9.854
 3074WAT     H2 9465   6.924   3.478   9.866
 3075WAT      O 9466   8.135   4.018   2.205
 3075WAT     H1 9467   8.197   4.014   2.283
 3075WAT     H2 9468   8.085   4.104   2.206
 3076WAT      O 9469   7.100   0.727   0.845
 3076WAT     H1 9470   7.010   0.685   0.831
 3076WAT     H2 9471   7.162   0.697   0.773
 3077WAT      O 9472   2.791   0.056   1.552
 3077WAT     H1 9473   2.856   0.129   1.571
 3077WAT     H2 9474   2.719   0.090   1.492
 3078WAT      O 9475   1.398   2.198   5.185
 3078WAT     H1 9476   1.490   2.189   5.224
 3078WAT     H2 9477   1.341   2.251   5.247
 3079WAT      O 9478   5.407   5.809   3.618
 3079WAT     H1 9479   5.484   5.818   3.681
 3079WAT     H2 9480   5.433   5.750   3.542
 3080WAT      O 9481   1.111   6.623   0.367
 3080WAT     H1 9482   1.204   6.585   0.367
 3080WAT     H2 9483   1.095   6.673   0.452
 3081WAT      O 9484   6.296   9.502   9.089
 3081WAT     H1 9485   6.347   9.499   9.003
 3081WAT     H2 9486   6.233   9.425   9.093
 3082WAT      O 9487   2.849   3.440   6.078
 3082WAT     H1 9488   2.837   3.437   6.177
 3082WAT     H2 9489   2.946   3.454   6.056
 3083WAT      O 9490   9.492   1.612   5.056
 3083WAT     H1 9491   9.461   1.612   4.961
 3083WAT     H2 9492   9.472   1.700   5.098
 3084WAT      O 9493   0.844   1.670   6.945
 3084WAT     H1 9494   0.889   1.626   7.022
 3084WAT     H2 9495   0.784   1.743   6.979
 3085WAT      O 9496   1.089   2.777   8.901
 3085WAT     H1 9497   0.991   2.776   8.880
 3085WAT     H2 9498   1.115   2.691   8.946
 3086WAT      O 9499   3.390   3.378   6.831
 3086WAT     H1 9500   3.469   3.436   6.852
 3086WAT     H2 9501   3.341   3.416   6.753
 3087WAT      O 9502   3.203   8.046   2.522
 3087WAT     H1 9503   3.197   7.962   2.576
 3087WAT     H2 9504   3.211   8.125   2.583
 3088WAT      O 9505   5.677   8.644   3.349
 3088WAT     H1 9506   5.661   8.679   3.441
 3088WAT     H2 9507   5.724   8.556   3.354
 3089WAT      O 9508   0.557   5.890   8.007
 3089WAT     H1 9509   0.485   5.828   8.040
 3089WAT     H2 9510   0.562   5.970   8.067
 3090WAT      O 9511   5.200   1.209   8.770
 3090WAT     H1 9512   5.134   1.226   8.698
 3090WAT     H2 9513   5.161   1.234   8.859
 3091WAT      O 9514   9.204   5.396   6.778
 3091WAT     H1 9515   9.293   5.381   6.821
 3091WAT     H2 9516   9.137   5.334   6.820
 3092WAT      O 9517   3.651   9.318   2.020
 3092WAT     H1 9518   3.700   9.235   1.993
 3092WAT     H2 9519   3.567   9.325   1.966
 3093WAT      O 9520   3.389   4.159   6.827
 3093WAT     H1 9521   3.297   4.133   6.799
 3093WAT     H2 9522   3.401   4.257   6.815
 3094WAT      O 9523   7.006   0.090   6.131
 3094WAT     H1 9524   6.906   0.098   6.124
 3094WAT     H2 9525   7.030  -0.005   6.150
 3095WAT      O 9526   1.509   6.551   6.800
 3095WAT     H1 9527   1.426   6.543   6.855
 3095WAT     H2 9528   1.520   6.467   6.746
 3096WAT      O 9529   9.786   9.559   1.128
 3096WAT     H1 9530   9.852   9.515   1.189
 3096WAT     H2 9531   9.736   9.629   1.178
 3097WAT      O 9532   0.344   7.742   8.596
 3097WAT     H1 9533   0.281   7.804   8.641
 3097WAT     H2 9534   0.295   7.686   8.530
 3098WAT      O 9535   0.185   2.339   7.808
 3098WAT     H1 9536   0.141   2.298   7.889
 3098WAT     H2 9537   0.170   2.280   7.729
 3099WAT      O 9538   2.066   3.156   2.080
 3099WAT     H1 9539   2.131   3.084   2.054
 3099WAT     H2 9540   2.010   3.124   2.156
 3100WAT      O 9541   9.449   6.093   4.413
 3100WAT     H1 9542   9.398   6.007   4.414
 3100WAT     H2 9543   9.537   6.080   4.459
 3101WAT      O 9544   9.220   4.825   6.836
 3101WAT     H1 9545   9.203   4.923   6.839
 3101WAT     H2 9546   9.203   4.791   6.743
 3102WAT      O 9547   8.351   7.030   8.922
 3102WAT     H1 9548   8.327   7.054   8.827
 3102WAT     H2 9549   8.271   7.041   8.980
 3103WAT      O 9550   8.068   0.649   1.558
 3103WAT     H1 9551   8.035   0.622   1.648
 3103WAT     H2 9552   8.120   0.735   1.566
 3104WAT      O 9553   4.839   7.987   6.545
 3104WAT     H1 9554   4.791   8.067   6.509
 3104WAT     H2 9555   4.917   8.017   6.600
 3105WAT      O 9556   4.373   9.508   1.914
 3105WAT     H1 9557   4.395   9.586   1.856
 3105WAT     H2 9558   4.274   9.500   1.923
 3106WAT      O 9559   7.642   5.367   3.755
 3106WAT     H1 9560   7.739   5.357   3.779
 3106WAT     H2 9561   7.630   5.445   3.694
 3107WAT      O 9562   0.566   6.940   4.729
 3107WAT     H1 9563   0.645   6.897   4.774
 3107WAT     H2 9564   0.512   6.988   4.797
 3108WAT      O 9565   6.372   5.916   0.599
 3108WAT     H1 9566   6.392   5.918   0.697
 3108WAT     H2 9567   6.458   5.916   0.547
 3109WAT      O 9568   4.388   2.834   9.183
 3109WAT     H1 9569   4.440   2.892   9.246
 3109WAT     H2 9570   4.439   2.750   9.166
 3110WAT      O 9571   7.051   0.181   7.982
 3110WAT     H1 9572   7.108   0.244   8.035
 3110WAT     H2 9573   7.106   0.139   7.910
 3111WAT      O 9574   1.371   6.892   9.691
 3111WAT     H1 9575   1.467   6.909   9.667
 3111WAT     H2 9576   1.363   6.803   9.736
 3112WAT      O 9577   0.772   1.611   5.888
 3112WAT     H1 9578   0.714   1.639   5.811
 3112WAT     H2 9579   0.734   1.649   5.973
 3113WAT      O 9580   9.007   0.512   8.259
 3113WAT     H1 9581   8.991   0.430   8.204
 3113WAT     H2 9582   9.106   0.529   8.266
 3114WAT      O 9583   5.635   1.159   4.331
 3114WAT     H1 9584   5.657   1.257   4.329
 3114WAT     H2 9585   5.553   1.145   4.386
 3115WAT      O 9586   5.044   7.387   6.562
 3115WAT     H1 9587   5.086   7.340   6.639
 3115WAT     H2 9588   4.974   7.328   6.521
 3116WAT      O 9589   0.734   0.483   7.931
 3116WAT     H1 9590   0.685   0.407   7.888
 3116WAT     H2 9591   0.813   0.506   7.875
 3117WAT      O 9592   8.544   2.642   8.742
 3117WAT     H1 9593   8.631   2.664   8.699
 3117WAT     H2 9594   8.561   2.596   8.830
 3118WAT      O 9595   1.185   4.046   9.878
 3118WAT     H1 9596   1.112   4.018   9.815
 3118WAT     H2 9597   1.144   4.081   9.962
 3119WAT      O 9598   0.425   2.151   1.733
 3119WAT     H1 9599   0.383   2.120   1.648
 3119WAT     H2 9600   0.514   2.193   1.712
 3120WAT      O 9601   0.419   0.435   4.931
 3120WAT     H1 9602   0.396   0.347   4.973
 3120WAT     H2 9603   0.421   0.506   5.001
 3121WAT      O 9604   8.813   3.049   6.689
 3121WAT     H1 9605   8.895   3.050   6.632
 3121WAT     H2 9606   8.732   3.042   6.631
 3122WAT      O 9607   8.941   3.780   9.674
 3122WAT     H1 9608   8.910   3.839   9.749
 3122WAT     H2 9609   8.997   3.833   9.610
 3123WAT      O 9610   6.976   3.113   5.150
 3123WAT     H1 9611   7.048   3.123   5.081
 3123WAT     H2 9612   7.001   3.040   5.213
 3124WAT      O 9613   0.786   5.039   9.217
 3124WAT     H1 9614   0.710   5.049   9.152
 3124WAT     H2 9615   0.761   4.974   9.288
 3125WAT      O 9616   1.232   4.221   1.440
 3125WAT     H1 9617   1.184   4.248   1.356
 3125WAT     H2 9618   1.217   4.290   1.511
 3126WAT      O 9619   5.894   4.978   5.038
 3126WAT     H1 9620   5.976   4.933   5.073
 3126WAT     H2 9621   5.819   4.912   5.032
 3127WAT      O 9622   3.447   7.144   6.992
 3127WAT     H1 9623   3.434   7.049   7.022
 3127WAT     H2 9624   3.371   7.200   7.025
 3128WAT      O 9625   3.994   8.347   5.058
 3128WAT     H1 9626   3.961   8.418   4.996
 3128WAT     H2 9627   4.021   8.266   5.006
 3129WAT      O 9628   4.326   8.249   8.678
 3129WAT     H1 9629   4.370   8.163   8.651
 3129WAT     H2 9630   4.356   8.275   8.769
 3130WAT      O 9631   8.843   0.295   4.598
 3130WAT     H1 9632   8.852   0.254   4.689
 3130WAT     H2 9633   8.924   0.350   4.578
 3131WAT      O 9634   1.309   4.341   8.352
 3131WAT     H1 9635   1.330   4.410   8.283
 3131WAT     H2 9636   1.227   4.368   8.403
 3132WAT      O 9637   5.162   7.702   7.716
 3132WAT     H1 9638   5.119   7.791   7.699
 3132WAT     H2 9639   5.148   7.643   7.637
 3133WAT      O 9640   5.953   3.101   7.129
 3133WAT     H1 9641   5.924   3.033   7.196
 3133WAT     H2 9642   5.875   3.125   7.071
 3134WAT      O 9643   7.574   0.305   0.790
 3134WAT     H1 9644   7.503   0.235   0.794
 3134WAT     H2 9645   7.660   0.267   0.824
 3135WAT      O 9646   7.346   5.643   8.079
 3135WAT     H1 9647   7.335   5.597   7.991
 3135WAT     H2 9648   7.270   5.707   8.093
 3136WAT      O 9649   5.547   5.251   7.281
 3136WAT     H1 9650   5.464   5.197   7.267
 3136WAT     H2 9651   5.523   5.339   7.323
 3137WAT      O 9652   5.944   0.470   9.084
 3137WAT     H1 9653   5.882   0.477   9.163
 3137WAT     H2 9654   5.894   0.433   9.006
 3138WAT      O 9655   3.702   0.160   7.877
 3138WAT     H1 9656   3.780   0.144   7.817
 3138WAT     H2 9657   3.731   0.216   7.955
 3139WAT      O 9658   2.183   0.277   4.321
 3139WAT     H1 9659   2.086   0.253   4.315
 3139WAT     H2 9660   2.208   0.332   4.241
 3140WAT      O 9661   1.816   4.158   6.635
 3140WAT     H1 9662   1.858   4.248   6.644
 3140WAT     H2 9663   1.717   4.167   6.631
 3141WAT      O 9664   5.540   7.248   4.795
 3141WAT     H1 9665   5.510   7.340   4.818
 3141WAT     H2 9666   5.607   7.252   4.720
 3142WAT      O 9667   0.762   2.367   4.832
 3142WAT     H1 9668   0.822   2.327   4.902
 3142WAT     H2 9669   0.799   2.349   4.741
 3143WAT      O 9670   2.108   7.254   7.614
 3143WAT     H1 9671   2.028   7.248   7.674
 3143WAT     H2 9672   2.096   7.331   7.551
 3144WAT      O 9673   5.673   9.686   3.786
 3144WAT     H1 9674   5.654   9.603   3.734
 3144WAT     H2 9675   5.640   9.766   3.737
 3145WAT      O 9676   8.019   1.223   6.575
 3145WAT     H1 9677   8.064   1.191   6.659
 3145WAT     H2 9678   8.011   1.147   6.510
 3146WAT      O 9679   7.804   0.593   0.805
 3146WAT     H1 9680   7.842   0.646   0.881
 3146WAT     H2 9681   7.707   0.615   0.794
 3147WAT      O 9682   3.360   3.166   6.088
 3147WAT     H1 9683   3.371   3.259   6.123
 3147WAT     H2 9684   3.405   3.102   6.151
 3148WAT      O 9685   2.464   8.160   4.491
 3148WAT     H1 9686   2.532   8.201   4.552
 3148WAT     H2 9687   2.382   8.217   4.491
 3149WAT      O 9688   7.846   3.215   8.194
 3149WAT     H1 9689   7.780   3.141   8.192
 3149WAT     H2 9690   7.809   3.294   8.144
 3150WAT      O 9691   7.045   4.652   5.410
 3150WAT     H1 9692   6.995   4.727   5.366
 3150WAT     H2 9693   7.045   4.667   5.509
 3151WAT      O 9694   7.881   0.101   9.189
 3151WAT     H1 9695   7.962   0.053   9.156
 3151WAT     H2 9696   7.798   0.056   9.155
 3152WAT      O 9697   1.656   3.515   5.414
 3152WAT     H1 9698   1.639   3.444   5.482
 3152WAT     H2 9699   1.694   3.474   5.331
 3153WAT      O 9700   3.082   6.489   6.996
 3153WAT     H1 9701   2.999   6.489   7.052
 3153WAT     H2 9702   3.072   6.554   6.921
 3154WAT      O 9703   3.709   2.007   5.053
 3154WAT     H1 9704   3.631   2.019   5.115
 3154WAT     H2 9705   3.677   2.002   4.959
 3155WAT      O 9706   9.450   8.372   8.874
 3155WAT     H1 9707   9.491   8.463   8.874
 3155WAT     H2 9708   9.520   8.304   8.897
 3156WAT      O 9709   7.649   6.743   9.279
 3156WAT     H1 9710   7.697   6.655   9.289
 3156WAT     H2 9711   7.574   6.732   9.214
 3157WAT      O 9712   7.730   4.178   6.104
 3157WAT     H1 9713   7.631   4.186   6.097
 3157WAT     H2 9714   7.761   4.101   6.049
 3158WAT      O 9715   1.971   7.208   8.073
 3158WAT     H1 9716   1.955   7.291   8.126
 3158WAT     H2 9717   2.032   7.228   7.997
 3159WAT      O 9718   2.235   4.414   6.868
 3159WAT     H1 9719   2.294   4.345   6.827
 3159WAT     H2 9720   2.164   4.370   6.923
 3160WAT      O 9721   8.031   3.809   8.342
 3160WAT     H1 9722   7.968   3.804   8.264
 3160WAT     H2 9723   8.053   3.716   8.373
 3161WAT      O 9724   6.309   7.373   9.412
 3161WAT     H1 9725   6.303   7.338   9.318
 3161WAT     H2 9726   6.372   7.316   9.465
 3162WAT      O 9727   9.169   8.238   3.111
 3162WAT     H1 9728   9.175   8.317   3.172
 3162WAT     H2 9729   9.240   8.243   3.041
 3163WAT      O 9730   4.336   7.869   5.855
 3163WAT     H1 9731   4.406   7.799   5.841
 3163WAT     H2 9732   4.364   7.930   5.929
 3164WAT      O 9733   5.767   6.037   5.681
 3164WAT     H1 9734   5.683   6.069   5.724
 3164WAT     H2 9735   5.846   6.077   5.728
 3165WAT      O 9736   5.604   2.093   3.946
 3165WAT     H1 9737   5.621   2.068   3.851
 3165WAT     H2 9738   5.641   2.184   3.963
 3166WAT      O 9739   8.098   0.948   8.418
 3166WAT     H1 9740   8.097   1.047   8.433
 3166WAT     H2 9741   8.084   0.901   8.506
 3167WAT      O 9742   2.072   9.152   2.035
 3167WAT     H1 9743   1.986   9.162   2.086
 3167WAT     H2 9744   2.149   9.154   2.099
 3168WAT      O 9745   7.544   2.767   2.953
 3168WAT     H1 9746   7.537   2.715   2.868
 3168WAT     H2 9747   7.471   2.738   3.015
 3169WAT      O 9748   7.971   3.521   1.627
 3169WAT     H1 9749   7.932   3.537   1.718
 3169WAT     H2 9750   7.922   3.446   1.582
 3170WAT      O 9751   4.590   4.676   3.265
 3170WAT     H1 9752   4.523   4.634   3.204
 3170WAT     H2 9753   4.673   4.620   3.267
 3171WAT      O 9754   6.245   8.046   7.656
 3171WAT     H1 9755   6.163   8.011   7.701
 3171WAT     H2 9756   6.266   8.137   7.693
 3172WAT      O 9757   3.182   6.046   7.743
 3172WAT     H1 9758   3.203   6.070   7.648
 3172WAT     H2 9759   3.125   6.117   7.784
 3173WAT      O 9760   8.799   5.719   2.673
 3173WAT     H1 9761   8.826   5.690   2.581
 3173WAT     H2 9762   8.870   5.777   2.712
 3174WAT      O 9763   5.927   4.176   7.682
 3174WAT     H1 9764   5.860   4.113   7.723
 3174WAT     H2 9765   6.016   4.131   7.679
 3175WAT      O 9766   4.170   3.333   4.765
 3175WAT     H1 9767   4.170   3.300   4.671
 3175WAT     H2 9768   4.232   3.279   4.820
 3176WAT      O 9769   3.833   2.284   4.730
 3176WAT     H1 9770   3.750   2.315   4.777
 3176WAT     H2 9771   3.898   2.360   4.724
 3177WAT      O 9772   7.458   5.632   7.763
 3177WAT     H1 9773   7.461   5.732   7.768
 3177WAT     H2 9774   7.389   5.604   7.697
 3178WAT      O 9775   7.958   3.050   9.093
 3178WAT     H1 9776   7.866   3.021   9.066
 3178WAT     H2 9777   8.002   2.976   9.145
 3179WAT      O 9778   3.858   6.460   5.668
 3179WAT     H1 9779   3.771   6.411   5.657
 3179WAT     H2 9780   3.928   6.414   5.613
 3180WAT      O 9781   5.220   8.474   5.048
 3180WAT     H1 9782   5.277   8.515   4.976
 3180WAT     H2 9783   5.137   8.435   5.007
 3181WAT      O 9784   8.130   6.080   1.264
 3181WAT     H1 9785   8.100   6.134   1.185
 3181WAT     H2 9786   8.054   6.067   1.327
 3182WAT      O 9787   1.772   2.201   3.718
 3182WAT     H1 9788   1.711   2.131   3.757
 3182WAT     H2 9789   1.793   2.268   3.788
 3183WAT      O 9790   0.109   9.316   8.085
 3183WAT     H1 9791   0.054   9.346   8.163
 3183WAT     H2 9792   0.172   9.244   8.115
 3184WAT      O 9793   7.673   4.554   8.999
 3184WAT     H1 9794   7.640   4.461   8.981
 3184WAT     H2 9795   7.596   4.613   9.021
 3185WAT      O 9796   9.250   6.993   0.502
 3185WAT     H1 9797   9.158   6.972   0.469
 3185WAT     H2 9798   9.312   7.003   0.425
 3186WAT      O 9799   8.202   9.265   0.430
 3186WAT     H1 9800   8.112   9.244   0.467
 3186WAT     H2 9801   8.235   9.351   0.469
 3187WAT      O 9802   3.719   1.765   4.024
 3187WAT     H1 9803   3.685   1.673   4.042
 3187WAT     H2 9804   3.814   1.772   4.054
 3188WAT      O 9805   4.545   6.023   9.850
 3188WAT     H1 9806   4.586   6.066   9.931
 3188WAT     H2 9807   4.448   6.005   9.867
 3189WAT      O 9808   5.093   8.070   4.525
 3189WAT     H1 9809   5.193   8.066   4.529
 3189WAT     H2 9810   5.055   8.017   4.601
 3190WAT      O 9811   4.470   4.567   2.716
 3190WAT     H1 9812   4.523   4.643   2.752
 3190WAT     H2 9813   4.437   4.588   2.624
 3191WAT      O 9814   5.724   2.364   6.663
 3191WAT     H1 9815   5.630   2.380   6.636
 3191WAT     H2 9816   5.774   2.450   6.663
 3192WAT      O 9817   6.180   0.497   9.656
 3192WAT     H1 9818   6.201   0.478   9.560
 3192WAT     H2 9819   6.250   0.556   9.695
 3193WAT      O 9820   0.266   3.008   8.011
 3193WAT     H1 9821   0.259   2.911   8.035
 3193WAT     H2 9822   0.186   3.057   8.045
 3194WAT      O 9823   8.283   3.405   1.820
 3194WAT     H1 9824   8.187   3.390   1.797
 3194WAT     H2 9825   8.293   3.414   1.919
 3195WAT      O 9826   2.984   8.174   9.325
 3195WAT     H1 9827   3.028   8.130   9.404
 3195WAT     H2 9828   3.053   8.225   9.274
 3196WAT      O 9829   1.683   3.694   1.421
 3196WAT     H1 9830   1.701   3.790   1.401
 3196WAT     H2 9831   1.742   3.664   1.496
 3197WAT      O 9832   6.810   8.447   9.427
 3197WAT     H1 9833   6.829   8.391   9.507
 3197WAT     H2 9834   6.716   8.482   9.431
 3198WAT      O 9835   3.178   3.434   2.872
 3198WAT     H1 9836   3.168   3.450   2.970
 3198WAT     H2 9837   3.243   3.500   2.835
 3199WAT      O 9838   9.421   2.539   2.110
 3199WAT     H1 9839   9.423   2.457   2.167
 3199WAT     H2 9840   9.451   2.515   2.017
 3200WAT      O 9841   4.967   1.492   1.583
 3200WAT     H1 9842   4.912   1.530   1.509
 3200WAT     H2 9843   5.014   1.566   1.631
 3201WAT      O 9844   4.525   8.181   7.193
 3201WAT     H1 9845   4.543   8.137   7.106
 3201WAT     H2 9846   4.460   8.255   7.181
 3202WAT      O 9847   2.475   8.267   5.329
 3202WAT     H1 9848   2.573   8.248   5.335
 3202WAT     H2 9849   2.458   8.328   5.251
 3203WAT      O 9850   6.970   6.415   9.066
 3203WAT     H1 9851   6.938   6.325   9.097
 3203WAT     H2 9852   7.067   6.425   9.088
 3204WAT      O 9853   6.962   6.682   5.518
 3204WAT     H1 9854   6.964   6.642   5.426
 3204WAT     H2 9855   7.044   6.653   5.568
 3205WAT      O 9856   9.164   7.098   1.445
 3205WAT     H1 9857   9.095   7.157   1.486
 3205WAT     H2 9858   9.253   7.145   1.446
 3206WAT      O 9859   1.215   2.921   5.387
 3206WAT     H1 9860   1.190   3.000   5.443
 3206WAT     H2 9861   1.165   2.926   5.300
 3207WAT      O 9862   4.256   0.636   4.762
 3207WAT     H1 9863   4.323   0.609   4.832
 3207WAT     H2 9864   4.223   0.555   4.714
 3208WAT      O 9865   2.094   1.290   1.488
 3208WAT     H1 9866   2.178   1.253   1.527
 3208WAT     H2 9867   2.015   1.247   1.531
 3209WAT      O 9868   9.427   8.405   4.849
 3209WAT     H1 9869   9.513   8.455   4.859
 3209WAT     H2 9870   9.421   8.335   4.920
 3210WAT      O 9871   1.691   8.827   9.353
 3210WAT     H1 9872   1.745   8.911   9.355
 3210WAT     H2 9873   1.601   8.847   9.313
 3211WAT      O 9874   9.849   1.553   9.148
 3211WAT     H1 9875   9.877   1.621   9.215
 3211WAT     H2 9876   9.777   1.495   9.187
 3212WAT      O 9877   6.623   5.882   1.402
 3212WAT     H1 9878   6.667   5.943   1.468
 3212WAT     H2 9879   6.589   5.801   1.450
 3213WAT      O 9880   2.241   3.714   7.091
 3213WAT     H1 9881   2.142   3.703   7.080
 3213WAT     H2 9882   2.275   3.779   7.023
 3214WAT      O 9883   5.007   3.184   2.767
 3214WAT     H1 9884   5.089   3.177   2.822
 3214WAT     H2 9885   4.993   3.098   2.717
 3215WAT      O 9886   3.463   0.580   8.086
 3215WAT     H1 9887   3.378   0.600   8.036
 3215WAT     H2 9888   3.536   0.560   8.022
 3216WAT      O 9889   7.003   0.651   6.543
 3216WAT     H1 9890   6.950   0.736   6.533
 3216WAT     H2 9891   7.014   0.631   6.641
 3217WAT      O 9892   6.341   1.722   7.685
 3217WAT     H1 9893   6.429   1.752   7.724
 3217WAT     H2 9894   6.356   1.640   7.630
 3218WAT      O 9895   4.851   1.356   0.226
 3218WAT     H1 9896   4.842   1.364   0.325
 3218WAT     H2 9897   4.948   1.345   0.202
 3219WAT      O 9898   2.306   4.635   3.621
 3219WAT     H1 9899   2.302   4.555   3.681
 3219WAT     H2 9900   2.384   4.691   3.645
 3220WAT      O 9901   4.038   5.076   0.962
 3220WAT     H1 9902   3.966   5.056   1.028
 3220WAT     H2 9903   4.127   5.065   1.005
 3221WAT      O 9904   6.049   0.302   4.747
 3221WAT     H1 9905   6.009   0.308   4.656
 3221WAT     H2 9906   6.020   0.216   4.791
 3222WAT      O 9907   4.573   4.987   9.161
 3222WAT     H1 9908   4.668   4.956   9.148
 3222WAT     H2 9909   4.573   5.081   9.194
 3223WAT      O 9910   9.719   1.127   1.582
 3223WAT     H1 9911   9.642   1.064   1.578
 3223WAT     H2 9912   9.708   1.196   1.510
 3224WAT      O 9913   1.911   4.132   4.076
 3224WAT     H1 9914   1.902   4.175   3.986
 3224WAT     H2 9915   1.867   4.191   4.145
 3225WAT      O 9916   8.224   4.002   8.540
 3225WAT     H1 9917   8.222   4.096   8.573
 3225WAT     H2 9918   8.235   4.001   8.440
 3226WAT      O 9919   3.693   8.465   1.786
 3226WAT     H1 9920   3.615   8.427   1.836
 3226WAT     H2 9921   3.710   8.559   1.818
 3227WAT      O 9922   7.979   3.522   0.440
 3227WAT     H1 9923   7.910   3.546   0.507
 3227WAT     H2 9924   8.005   3.603   0.387
 3228WAT      O 9925   3.592   7.800   8.217
 3228WAT     H1 9926   3.567   7.770   8.125
 3228WAT     H2 9927   3.671   7.748   8.249
 3229WAT      O 9928   2.776   7.924   7.530
 3229WAT     H1 9929   2.712   7.854   7.500
 3229WAT     H2 9930   2.828   7.958   7.452
 3230WAT      O 9931   1.621   7.301   8.945
 3230WAT     H1 9932   1.558   7.322   9.020
 3230WAT     H2 9933   1.658   7.209   8.958
 3231WAT      O 9934   1.347   1.111   3.310
 3231WAT     H1 9935   1.427   1.170   3.296
 3231WAT     H2 9936   1.377   1.019   3.333
 3232WAT      O 9937   6.783   1.906   4.009
 3232WAT     H1 9938   6.819   1.871   4.095
 3232WAT     H2 9939   6.723   1.984   4.027
 3233WAT      O 9940   6.056   8.393   3.790
 3233WAT     H1 9941   6.139   8.337   3.788
 3233WAT     H2 9942   6.029   8.408   3.885
 3234WAT      O 9943   6.999   2.603   0.985
 3234WAT     H1 9944   6.926   2.569   1.043
 3234WAT     H2 9945   6.964   2.675   0.925
 3235WAT      O 9946   7.148   0.237   8.714
 3235WAT     H1 9947   7.235   0.285   8.703
 3235WAT     H2 9948   7.073   0.299   8.693
 3236WAT      O 9949   7.951   2.012   2.848
 3236WAT     H1 9950   7.907   1.974   2.930
 3236WAT     H2 9951   7.911   2.101   2.828
 3237WAT      O 9952   9.857   6.021   3.137
 3237WAT     H1 9953   9.933   6.038   3.200
 3237WAT     H2 9954   9.870   5.932   3.093
 3238WAT      O 9955   2.797   5.136   7.648
 3238WAT     H1 9956   2.866   5.070   7.677
 3238WAT     H2 9957   2.711   5.089   7.627
 3239WAT      O 9958   2.464   3.093   5.840
 3239WAT     H1 9959   2.371   3.110   5.809
 3239WAT     H2 9960   2.474   2.997   5.867
 3240WAT      O 9961   4.933   6.254   4.773
 3240WAT     H1 9962   4.942   6.352   4.788
 3240WAT     H2 9963   4.896   6.210   4.855
 3241WAT      O 9964   5.145   6.774   8.702
 3241WAT     H1 9965   5.078   6.802   8.771
 3241WAT     H2 9966   5.138   6.675   8.689
 3242WAT      O 9967   4.946   7.954   3.550
 3242WAT     H1 9968   4.884   7.877   3.533
 3242WAT     H2 9969   4.914   8.034   3.500
 3243WAT      O 9970   5.421   7.488   5.914
 3243WAT     H1 9971   5.366   7.419   5.962
 3243WAT     H2 9972   5.488   7.442   5.856
 3244WAT      O 9973   1.341   3.755   0.305
 3244WAT     H1 9974   1.365   3.808   0.223
 3244WAT     H2 9975   1.410   3.685   0.320
 3245WAT      O 9976   3.663   3.480   2.742
 3245WAT     H1 9977   3.750   3.431   2.749
 3245WAT     H2 9978   3.675   3.561   2.684
 3246WAT      O 9979   4.826   7.123   3.241
 3246WAT     H1 9980   4.828   7.105   3.340
 3246WAT     H2 9981   4.876   7.207   3.222
 3247WAT      O 9982   7.613   2.611   4.866
 3247WAT     H1 9983   7.635   2.706   4.886
 3247WAT     H2 9984   7.563   2.572   4.943
 3248WAT      O 9985   9.753   2.859   2.563
 3248WAT     H1 9986   9.694   2.823   2.491
 3248WAT     H2 9987   9.848   2.837   2.542
 3249WAT      O 9988   7.547   8.535   3.182
 3249WAT     H1 9989   7.551   8.476   3.101
 3249WAT     H2 9990   7.468   8.595   3.176
 3250WAT      O 9991   0.949   4.213   5.522
 3250WAT     H1 9992   1.042   4.179   5.536
 3250WAT     H2 9993   0.928   4.214   5.425
 3251WAT      O 9994   5.374   1.319   8.327
 3251WAT     H1 9995   5.381   1.398   8.387
 3251WAT     H2 9996   5.459   1.309   8.274
 3252WAT      O 9997   8.297   9.619   9.194
 3252WAT     H1 9998   8.273   9.537   9.142
 3252WAT     H2 9999   8.273   9.606   9.290
 3253WAT      O10000   6.834   6.220   4.093
 3253WAT     H110001   6.789   6.176   4.015
 3253WAT     H210002   6.848   6.317   4.073
 3254WAT      O10003   0.970   6.375   3.040
 3254WAT     H110004   0.874   6.378   3.011
 3254WAT     H210005   0.996   6.465   3.077
 3255WAT      O10006   7.886   4.843   0.813
 3255WAT     H110007   7.983   4.831   0.834
 3255WAT     H210008   7.838   4.877   0.894
 3256WAT      O10009   1.530   8.697   7.301
 3256WAT     H110010   1.482   8.636   7.364
 3256WAT     H210011   1.490   8.689   7.210
 3257WAT      O10012   2.293   8.126   0.272
 3257WAT     H110013   2.359   8.051   0.264
 3257WAT     H210014   2.202   8.094   0.247
 3258WAT      O10015   8.195   6.123   1.635
 3258WAT     H110016   8.166   6.210   1.675
 3258WAT     H210017   8.114   6.064   1.622
 3259WAT      O10018   2.844   4.882   9.258
 3259WAT     H110019   2.830   4.790   9.222
 3259WAT     H210020   2.843   4.880   9.358
 3260WAT      O10021   7.143   7.148   4.381
 3260WAT     H110022   7.225   7.130   4.435
 3260WAT     H210023   7.062   7.141   4.440
 3261WAT      O10024   5.177   3.473   5.230
 3261WAT     H110025   5.158   3.563   5.190
 3261WAT     H210026   5.188   3.483   5.329
 3262WAT      O10027   4.761   0.202   1.377
 3262WAT     H110028   4.796   0.295   1.391
 3262WAT     H210029   4.761   0.180   1.280
 3263WAT      O10030   4.512   0.782   3.083
 3263WAT     H110031   4.553   0.693   3.101
 3263WAT     H210032   4.547   0.849   3.149
 3264WAT      O10033   2.528   8.215   2.805
 3264WAT     H110034   2.516   8.288   2.737
 3264WAT     H210035   2.500   8.128   2.765
 3265WAT      O10036   9.729   7.907   2.499
 3265WAT     H110037   9.748   7.958   2.415
 3265WAT     H210038   9.800   7.926   2.566
 3266WAT      O10039   7.235   6.255   2.621
 3266WAT     H110040   7.287   6.288   2.700
 3266WAT     H210041   7.164   6.192   2.653
 3267WAT      O10042   1.121   9.260   6.273
 3267WAT     H110043   1.049   9.311   6.321
 3267WAT     H210044   1.081   9.181   6.228
 3268WAT      O10045   5.038   3.405   1.829
 3268WAT     H110046   5.084   3.483   1.872
 3268WAT     H210047   4.952   3.435   1.789
 3269WAT      O10048   5.983   3.577   6.282
 3269WAT     H110049   6.013   3.501   6.225
 3269WAT     H210050   5.890   3.602   6.259
 3270WAT      O10051   3.338   6.507   5.150
 3270WAT     H110052   3.387   6.473   5.230
 3270WAT     H210053   3.309   6.430   5.094
 3271WAT      O10054   8.341   0.219   0.861
 3271WAT     H110055   8.287   0.142   0.827
 3271WAT     H210056   8.302   0.304   0.828
 3272WAT      O10057   5.984   6.374   7.742
 3272WAT     H110058   6.040   6.293   7.726
 3272WAT     H210059   5.949   6.372   7.835
 3273WAT      O10060   2.101   8.754   3.933
 3273WAT     H110061   2.046   8.761   3.850
 3273WAT     H210062   2.133   8.660   3.944
 3274WAT      O10063   9.512   8.103   1.634
 3274WAT     H110064   9.535   8.059   1.721
 3274WAT     H210065   9.595   8.140   1.593
 3275WAT      O10066   7.745   4.117   5.058
 3275WAT     H110067   7.676   4.070   5.112
 3275WAT     H210068   7.835   4.103   5.100
 3276WAT      O10069   8.436   4.483   9.454
 3276WAT     H110070   8.502   4.516   9.386
 3276WAT     H210071   8.482   4.419   9.516
 3277WAT      O10072   9.155   0.881   5.481
 3277WAT     H110073   9.060   0.852   5.494
 3277WAT     H210074   9.201   0.886   5.569
 3278WAT      O10075   8.308   2.110   6.485
 3278WAT     H110076   8.231   2.065   6.441
 3278WAT     H210077   8.393   2.077   6.444
 3279WAT      O10078   4.806   1.661   9.751
 3279WAT     H110079   4.714   1.643   9.715
 3279WAT     H210080   4.867   1.585   9.727
 3280WAT      O10081   6.824   3.629   2.490
 3280WAT     H110082   6.909   3.605   2.442
 3280WAT     H210083   6.827   3.592   2.583
 3281WAT      O10084   4.095   3.410   3.945
 3281WAT     H110085   4.108   3.312   3.957
 3281WAT     H210086   4.133   3.439   3.858
 3282WAT      O10087   7.102   6.593   3.555
 3282WAT     H110088   7.075   6.561   3.465
 3282WAT     H210089   7.181   6.655   3.547
 3283WAT      O10090   6.156   9.589   3.446
 3283WAT     H110091   6.124   9.652   3.375
 3283WAT     H210092   6.181   9.640   3.528
 3284WAT      O10093   2.854   8.496   4.647
 3284WAT     H110094   2.800   8.576   4.672
 3284WAT     H210095   2.884   8.449   4.730
 3285WAT      O10096   2.603   7.158   9.063
 3285WAT     H110097   2.689   7.209   9.057
 3285WAT     H210098   2.527   7.218   9.038
 3286WAT      O10099   2.825   7.641   9.413
 3286WAT     H110100   2.787   7.558   9.373
 3286WAT     H210101   2.768   7.720   9.389
 3287WAT      O10102   8.445   4.585   2.765
 3287WAT     H110103   8.363   4.639   2.745
 3287WAT     H210104   8.485   4.616   2.851
 3288WAT      O10105   6.406   4.473   0.150
 3288WAT     H110106   6.465   4.430   0.219
 3288WAT     H210107   6.342   4.535   0.195
 3289WAT      O10108   1.643   8.520   8.937
 3289WAT     H110109   1.599   8.432   8.919
 3289WAT     H210110   1.574   8.591   8.949
 3290WAT      O10111   9.579   5.757   8.056
 3290WAT     H110112   9.644   5.782   8.127
 3290WAT     H210113   9.596   5.663   8.026
 3291WAT      O10114   5.215   2.683   6.027
 3291WAT     H110115   5.242   2.713   6.118
 3291WAT     H210116   5.201   2.584   6.027
 3292WAT      O10117   8.177   7.651   1.611
 3292WAT     H110118   8.171   7.682   1.706
 3292WAT     H210119   8.269   7.667   1.576
 3293WAT      O10120   2.402   6.555   0.926
 3293WAT     H110121   2.439   6.464   0.904
 3293WAT     H210122   2.307   6.545   0.956
 3294WAT      O10123   0.629   5.887   3.050
 3294WAT     H110124   0.690   5.965   3.031
 3294WAT     H210125   0.647   5.814   2.985
 3295WAT      O10126   6.896   4.333   9.705
 3295WAT     H110127   6.984   4.309   9.745
 3295WAT     H210128   6.824   4.281   9.750
 3296WAT      O10129   7.635   6.603   0.517
 3296WAT     H110130   7.566   6.673   0.502
 3296WAT     H210131   7.650   6.552   0.432
 3297WAT      O10132   0.903   5.693   3.052
 3297WAT     H110133   0.920   5.761   3.123
 3297WAT     H210134   0.831   5.630   3.083
 3298WAT      O10135   0.550   1.090   6.797
 3298WAT     H110136   0.545   1.176   6.747
 3298WAT     H210137   0.636   1.087   6.849
 3299WAT      O10138   5.952   3.075   1.122
 3299WAT     H110139   5.869   3.049   1.072
 3299WAT     H210140   6.023   3.103   1.058
 3300WAT      O10141   2.705   0.488   4.066
 3300WAT     H110142   2.666   0.547   4.137
 3300WAT     H210143   2.647   0.491   3.985
 3301WAT      O10144   1.397   5.478   0.255
 3301WAT     H110145   1.472   5.543   0.255
 3301WAT     H210146   1.403   5.420   0.337
 3302WAT      O10147   7.925   6.623   5.705
 3302WAT     H110148   7.935   6.722   5.716
 3302WAT     H210149   7.848   6.591   5.762
 3303WAT      O10150   1.068   4.866   1.670
 3303WAT     H110151   0.982   4.823   1.696
 3303WAT     H210152   1.061   4.965   1.686
 3304WAT      O10153   1.200   0.897   4.355
 3304WAT     H110154   1.290   0.853   4.352
 3304WAT     H210155   1.147   0.870   4.274
 3305WAT      O10156   4.894   4.887   6.736
 3305WAT     H110157   4.922   4.980   6.761
 3305WAT     H210158   4.944   4.821   6.792
 3306WAT      O10159   6.284   9.124   9.307
 3306WAT     H110160   6.374   9.081   9.315
 3306WAT     H210161   6.274   9.194   9.377
 3307WAT      O10162   9.706   8.464   0.712
 3307WAT     H110163   9.788   8.513   0.682
 3307WAT     H210164   9.701   8.465   0.812
 3308WAT      O10165   6.435   4.411   4.276
 3308WAT     H110166   6.364   4.397   4.346
 3308WAT     H210167   6.396   4.461   4.199
 3309WAT      O10168   1.909   2.566   7.422
 3309WAT     H110169   1.998   2.579   7.378
 3309WAT     H210170   1.918   2.504   7.499
 3310WAT      O10171   9.527   8.707   5.573
 3310WAT     H110172   9.476   8.792   5.565
 3310WAT     H210173   9.507   8.665   5.662
 3311WAT      O10174   4.910   4.029   3.849
 3311WAT     H110175   4.811   4.034   3.840
 3311WAT     H210176   4.952   4.107   3.802
 3312WAT      O10177   9.657   5.883   1.612
 3312WAT     H110178   9.617   5.967   1.649
 3312WAT     H210179   9.604   5.804   1.643
 3313WAT      O10180   6.021   4.443   3.883
 3313WAT     H110181   5.940   4.501   3.872
 3313WAT     H210182   6.046   4.404   3.795
 3314WAT      O10183   5.397   1.315   2.728
 3314WAT     H110184   5.329   1.381   2.760
 3314WAT     H210185   5.489   1.350   2.747
 3315WAT      O10186   9.492   1.567   2.544
 3315WAT     H110187   9.403   1.552   2.587
 3315WAT     H210188   9.492   1.527   2.452
 3316WAT      O10189   5.511   9.649   9.799
 3316WAT     H110190   5.413   9.656   9.813
 3316WAT     H210191   5.547   9.739   9.772
 3317WAT      O10192   7.697   8.325   7.489
 3317WAT     H110193   7.742   8.341   7.401
 3317WAT     H210194   7.709   8.229   7.515
 3318WAT      O10195   4.259   7.280   7.534
 3318WAT     H110196   4.238   7.286   7.436
 3318WAT     H210197   4.231   7.190   7.568
 3319WAT      O10198   3.025   4.716   0.015
 3319WAT     H110199   3.050   4.630  -0.031
 3319WAT     H210200   2.932   4.707   0.051
 3320WAT      O10201   8.974   7.239   1.590
 3320WAT     H110202   8.948   7.313   1.652
 3320WAT     H210203   8.895   7.180   1.573
 3321WAT      O10204   0.950   6.561   2.707
 3321WAT     H110205   0.973   6.467   2.732
 3321WAT     H210206   0.996   6.624   2.770
 3322WAT      O10207   4.718   7.479   6.990
 3322WAT     H110208   4.705   7.460   7.087
 3322WAT     H210209   4.641   7.441   6.938
 3323WAT      O10210   0.397   5.609   3.485
 3323WAT     H110211   0.326   5.641   3.548
 3323WAT     H210212   0.386   5.654   3.396
 3324WAT      O10213   8.835   4.058   6.229
 3324WAT     H110214   8.893   3.996   6.176
 3324WAT     H210215   8.806   4.135   6.172
 3325WAT      O10216   1.012   2.252   6.299
 3325WAT     H110217   1.082   2.323   6.307
 3325WAT     H210218   1.043   2.169   6.345
 3326WAT      O10219   0.571   0.018   4.526
 3326WAT     H110220   0.615  -0.051   4.469
 3326WAT     H210221   0.511  -0.027   4.592
 3327WAT      O10222   2.676   3.023   5.365
 3327WAT     H110223   2.604   3.088   5.338
 3327WAT     H210224   2.759   3.073   5.388
 3328WAT      O10225   4.930   5.221   0.469
 3328WAT     H110226   4.917   5.191   0.563
 3328WAT     H210227   4.865   5.173   0.410
 3329WAT      O10228   6.270   5.011   9.436
 3329WAT     H110229   6.214   5.009   9.519
 3329WAT     H210230   6.311   4.921   9.422
 3330WAT      O10231   5.383   2.395   8.756
 3330WAT     H110232   5.475   2.354   8.754
 3330WAT     H210233   5.358   2.425   8.664
 3331WAT      O10234   4.518   7.032   9.694
 3331WAT     H110235   4.437   7.091   9.695
 3331WAT     H210236   4.600   7.088   9.703
 3332WAT      O10237   1.152   6.928   3.450
 3332WAT     H110238   1.233   6.963   3.498
 3332WAT     H210239   1.171   6.922   3.352
 3333WAT      O10240   8.826   4.620   1.352
 3333WAT     H110241   8.736   4.637   1.392
 3333WAT     H210242   8.896   4.630   1.423
 3334WAT      O10243   5.877   8.065   0.433
 3334WAT     H110244   5.878   8.151   0.382
 3334WAT     H210245   5.886   7.989   0.368
 3335WAT      O10246   2.610   6.664   4.138
 3335WAT     H110247   2.590   6.621   4.226
 3335WAT     H210248   2.630   6.594   4.069
 3336WAT      O10249   4.725   4.081   1.279
 3336WAT     H110250   4.633   4.043   1.290
 3336WAT     H210251   4.768   4.041   1.198
 3337WAT      O10252   6.189   7.086   0.926
 3337WAT     H110253   6.288   7.078   0.943
 3337WAT     H210254   6.170   7.172   0.879
 3338WAT      O10255   8.240   0.448   5.508
 3338WAT     H110256   8.245   0.454   5.608
 3338WAT     H210257   8.145   0.434   5.480
 3339WAT      O10258   2.014   1.891   3.274
 3339WAT     H110259   2.085   1.850   3.216
 3339WAT     H210260   1.978   1.973   3.229
 3340WAT      O10261   5.066   2.284   1.335
 3340WAT     H110262   5.016   2.365   1.305
 3340WAT     H210263   5.084   2.225   1.256
 3341WAT      O10264   1.730   5.251   9.583
 3341WAT     H110265   1.751   5.289   9.493
 3341WAT     H210266   1.797   5.285   9.649
 3342WAT      O10267   9.876   3.146   2.690
 3342WAT     H110268   9.917   3.063   2.654
 3342WAT     H210269   9.777   3.144   2.675
 3343WAT      O10270   2.941   6.695   7.795
 3343WAT     H110271   3.006   6.686   7.719
 3343WAT     H210272   2.966   6.774   7.851
 3344WAT      O10273   4.062   1.723   7.779
 3344WAT     H110274   4.135   1.776   7.737
 3344WAT     H210275   4.097   1.634   7.807
 3345WAT      O10276   5.972   0.072   6.812
 3345WAT     H110277   5.916   0.147   6.847
 3345WAT     H210278   6.023   0.031   6.888
 3346WAT      O10279   8.145   6.366   3.363
 3346WAT     H110280   8.058   6.350   3.316
 3346WAT     H210281   8.160   6.293   3.429
 3347WAT      O10282   5.488   1.891   8.139
 3347WAT     H110283   5.488   1.991   8.127
 3347WAT     H210284   5.394   1.858   8.140
 3348WAT      O10285   6.800   8.948   0.969
 3348WAT     H110286   6.717   9.001   0.949
 3348WAT     H210287   6.809   8.938   1.068
 3349WAT      O10288   5.704   7.148   9.146
 3349WAT     H110289   5.690   7.076   9.214
 3349WAT     H210290   5.722   7.235   9.193
 3350WAT      O10291   8.096   3.311   2.754
 3350WAT     H110292   8.102   3.212   2.753
 3350WAT     H210293   8.092   3.345   2.660
 3351WAT      O10294   4.995   1.690   9.460
 3351WAT     H110295   5.010   1.619   9.529
 3351WAT     H210296   5.060   1.678   9.385
 3352WAT      O10297   1.125   1.577   4.356
 3352WAT     H110298   1.219   1.567   4.322
 3352WAT     H210299   1.063   1.587   4.278
 3353WAT      O10300   8.380   3.062   0.472
 3353WAT     H110301   8.300   3.029   0.422
 3353WAT     H210302   8.436   3.118   0.411
 3354WAT      O10303   8.250   5.983   2.339
 3354WAT     H110304   8.316   6.042   2.383
 3354WAT     H210305   8.173   5.967   2.400
 3355WAT      O10306   0.845   1.112   6.826
 3355WAT     H110307   0.833   1.028   6.773
 3355WAT     H210308   0.939   1.145   6.816
 3356WAT      O10309   5.814   0.366   8.243
 3356WAT     H110310   5.866   0.282   8.257
 3356WAT     H210311   5.759   0.357   8.160
 3357WAT      O10312   1.070   0.363   5.534
 3357WAT     H110313   1.126   0.384   5.454
 3357WAT     H210314   1.100   0.419   5.611
 3358WAT      O10315   3.745   4.096   2.888
 3358WAT     H110316   3.721   4.190   2.912
 3358WAT     H210317   3.765   4.044   2.972
 3359WAT      O10318   8.147   7.040   0.436
 3359WAT     H110319   8.200   6.955   0.435
 3359WAT     H210320   8.175   7.098   0.360
 3360WAT      O10321   5.203   4.525   1.202
 3360WAT     H110322   5.239   4.593   1.266
 3360WAT     H210323   5.141   4.570   1.138
 3361WAT      O10324   9.634   6.226   5.793
 3361WAT     H110325   9.639   6.278   5.878
 3361WAT     H210326   9.648   6.287   5.715
 3362WAT      O10327   7.127   1.229   3.194
 3362WAT     H110328   7.161   1.291   3.123
 3362WAT     H210329   7.162   1.137   3.177
 3363WAT      O10330   1.308   5.119   4.967
 3363WAT     H110331   1.215   5.088   4.988
 3363WAT     H210332   1.365   5.039   4.946
 3364WAT      O10333   1.626   4.057   3.982
 3364WAT     H110334   1.612   4.088   3.888
 3364WAT     H210335   1.716   4.088   4.013
 3365WAT      O10336   8.190   4.591   0.561
 3365WAT     H110337   8.194   4.501   0.517
 3365WAT     H210338   8.228   4.660   0.500
 3366WAT      O10339   2.926   4.067   9.594
 3366WAT     H110340   3.003   4.131   9.591
 3366WAT     H210341   2.870   4.077   9.512
 3367WAT      O10342   8.441   0.737   0.563
 3367WAT     H110343   8.478   0.785   0.484
 3367WAT     H210344   8.342   0.753   0.569
 3368WAT      O10345   5.627   8.421   7.263
 3368WAT     H110346   5.643   8.508   7.311
 3368WAT     H210347   5.682   8.419   7.179
 3369WAT      O10348   6.177   4.379   2.211
 3369WAT     H110349   6.233   4.410   2.134
 3369WAT     H210350   6.223   4.402   2.297
 3370WAT      O10351   2.302   0.514   2.438
 3370WAT     H110352   2.323   0.416   2.436
 3370WAT     H210353   2.296   0.544   2.534
 3371WAT      O10354   5.537   6.132   9.345
 3371WAT     H110355   5.530   6.149   9.444
 3371WAT     H210356   5.576   6.042   9.329
 3372WAT      O10357   4.635   1.681   2.000
 3372WAT     H110358   4.615   1.619   2.076
 3372WAT     H210359   4.584   1.766   2.012
 3373WAT      O10360   2.121   2.062   3.503
 3373WAT     H110361   2.070   2.147   3.514
 3373WAT     H210362   2.071   2.000   3.442
 3374WAT      O10363   3.207   7.460   2.987
 3374WAT     H110364   3.169   7.393   2.923
 3374WAT     H210365   3.156   7.456   3.073
 3375WAT      O10366   3.442   0.574   9.622
 3375WAT     H110367   3.351   0.532   9.621
 3375WAT     H210368   3.484   0.562   9.712
 3376WAT      O10369   5.196   2.983   8.980
 3376WAT     H110370   5.126   3.050   9.003
 3376WAT     H210371   5.201   2.913   9.051
 3377WAT      O10372   5.642   2.645   5.308
 3377WAT     H110373   5.574   2.655   5.236
 3377WAT     H210374   5.597   2.654   5.397
 3378WAT      O10375   5.110   1.513   4.215
 3378WAT     H110376   5.120   1.423   4.256
 3378WAT     H210377   5.176   1.524   4.141
 3379WAT      O10378   0.738   2.872   7.704
 3379WAT     H110379   0.835   2.891   7.689
 3379WAT     H210380   0.686   2.958   7.701
 3380WAT      O10381   7.098   2.355   1.910
 3380WAT     H110382   7.029   2.374   1.841
 3380WAT     H210383   7.054   2.316   1.991
 3381WAT      O10384   0.166   0.220   6.533
 3381WAT     H110385   0.098   0.262   6.594
 3381WAT     H210386   0.127   0.209   6.442
 3382WAT      O10387   6.224   7.889   4.499
 3382WAT     H110388   6.234   7.901   4.598
 3382WAT     H210389   6.228   7.791   4.476
 3383WAT      O10390   5.054   1.438   6.734
 3383WAT     H110391   5.098   1.349   6.738
 3383WAT     H210392   5.098   1.500   6.799
 3384WAT      O10393   8.293   5.827   6.697
 3384WAT     H110394   8.236   5.885   6.755
 3384WAT     H210395   8.377   5.876   6.674
 3385WAT      O10396   3.923   2.389   1.848
 3385WAT     H110397   3.859   2.343   1.787
 3385WAT     H210398   3.982   2.322   1.892
 3386WAT      O10399   3.728   8.709   1.509
 3386WAT     H110400   3.787   8.648   1.456
 3386WAT     H210401   3.768   8.722   1.601
 3387WAT      O10402   1.430   9.265   0.156
 3387WAT     H110403   1.357   9.200   0.132
 3387WAT     H210404   1.469   9.239   0.244
 3388WAT      O10405   0.360   5.636   8.672
 3388WAT     H110406   0.368   5.625   8.771
 3388WAT     H210407   0.302   5.714   8.652
 3389WAT      O10408   8.395   3.093   9.502
 3389WAT     H110409   8.352   3.183   9.508
 3389WAT     H210410   8.327   3.023   9.523
 3390WAT      O10411   5.443   5.955   6.600
 3390WAT     H110412   5.495   5.882   6.643
 3390WAT     H210413   5.431   6.030   6.665
 3391WAT      O10414   6.269   5.380   5.917
 3391WAT     H110415   6.196   5.357   5.852
 3391WAT     H210416   6.230   5.432   5.993
 3392WAT      O10417   7.245   6.609   2.370
 3392WAT     H110418   7.265   6.665   2.290
 3392WAT     H210419   7.288   6.519   2.360
 3393WAT      O10420   4.031   1.387   6.913
 3393WAT     H110421   4.000   1.458   6.850
 3393WAT     H210422   4.129   1.399   6.930
 3394WAT      O10423   7.292   7.959   0.789
 3394WAT     H110424   7.318   7.944   0.884
 3394WAT     H210425   7.369   7.935   0.730
 3395WAT      O10426   1.432   5.949   7.233
 3395WAT     H110427   1.419   5.884   7.158
 3395WAT     H210428   1.429   5.901   7.320
 3396WAT      O10429   3.722   9.107   5.498
 3396WAT     H110430   3.628   9.074   5.494
 3396WAT     H210431   3.780   9.050   5.440
 3397WAT      O10432   2.499   5.650   6.267
 3397WAT     H110433   2.438   5.585   6.312
 3397WAT     H210434   2.591   5.641   6.304
 3398WAT      O10435   2.964   7.006   1.120
 3398WAT     H110436   2.898   6.945   1.076
 3398WAT     H210437   3.056   6.967   1.110
 3399WAT      O10438   0.838   0.950   5.200
 3399WAT     H110439   0.744   0.919   5.183
 3399WAT     H210440   0.877   0.985   5.115
 3400WAT      O10441   8.041   6.090   5.925
 3400WAT     H110442   8.140   6.078   5.926
 3400WAT     H210443   7.997   6.002   5.906
 3401WAT      O10444   7.573   2.148   5.861
 3401WAT     H110445   7.519   2.076   5.905
 3401WAT     H210446   7.550   2.236   5.902
 3402WAT      O10447   6.955   1.636   2.228
 3402WAT     H110448   7.011   1.576   2.171
 3402WAT     H210449   6.862   1.639   2.192
 3403WAT      O10450   6.045   9.237   4.077
 3403WAT     H110451   6.018   9.248   4.173
 3403WAT     H210452   6.082   9.323   4.043
 3404WAT      O10453   0.953   5.134   9.019
 3404WAT     H110454   0.911   5.084   9.095
 3404WAT     H210455   0.882   5.163   8.955
 3405WAT      O10456   0.904   7.799   0.108
 3405WAT     H110457   0.867   7.720   0.157
 3405WAT     H210458   0.980   7.838   0.160
 3406WAT      O10459   9.499   5.168   3.558
 3406WAT     H110460   9.422   5.195   3.616
 3406WAT     H210461   9.487   5.205   3.467
 3407WAT      O10462   8.965   5.987   9.432
 3407WAT     H110463   8.868   5.965   9.435
 3407WAT     H210464   8.978   6.085   9.447
 3408WAT      O10465   2.066   2.845   1.529
 3408WAT     H110466   2.016   2.849   1.615
 3408WAT     H210467   2.026   2.911   1.464
 3409WAT      O10468   1.573   2.103   8.250
 3409WAT     H110469   1.490   2.065   8.209
 3409WAT     H210470   1.568   2.203   8.249
 3410WAT      O10471   5.195   0.923   2.062
 3410WAT     H110472   5.203   0.825   2.078
 3410WAT     H210473   5.283   0.967   2.079
 3411WAT      O10474   2.470   1.062   7.801
 3411WAT     H110475   2.535   1.038   7.729
 3411WAT     H210476   2.520   1.089   7.883
 3412WAT      O10477   9.798   2.174   7.731
 3412WAT     H110478   9.721   2.209   7.784
 3412WAT     H210479   9.768   2.096   7.677
 3413WAT      O10480   7.102   8.125   8.082
 3413WAT     H110481   7.098   8.027   8.103
 3413WAT     H210482   7.182   8.165   8.126
 3414WAT      O10483   3.539   0.835   0.452
 3414WAT     H110484   3.465   0.770   0.435
 3414WAT     H210485   3.584   0.814   0.539
 3415WAT      O10486   6.030   6.497   8.203
 3415WAT     H110487   6.072   6.406   8.205
 3415WAT     H210488   6.048   6.544   8.289
 3416WAT      O10489   6.619   7.814   2.168
 3416WAT     H110490   6.637   7.909   2.192
 3416WAT     H210491   6.555   7.810   2.092
 3417WAT      O10492   6.551   5.217   3.225
 3417WAT     H110493   6.588   5.159   3.152
 3417WAT     H210494   6.525   5.160   3.303
 3418WAT      O10495   1.991   3.601   8.024
 3418WAT     H110496   1.910   3.657   8.007
 3418WAT     H210497   1.966   3.504   8.025
 3419WAT      O10498   3.999   8.877   2.847
 3419WAT     H110499   3.922   8.894   2.785
 3419WAT     H210500   4.038   8.787   2.827
 3420WAT      O10501   1.050   1.261   2.460
 3420WAT     H110502   1.127   1.288   2.403
 3420WAT     H210503   1.053   1.162   2.474
 3421WAT      O10504   1.544   5.998   5.625
 3421WAT     H110505   1.594   6.084   5.614
 3421WAT     H210506   1.499   5.996   5.714
 3422WAT      O10507   3.068   4.481   9.447
 3422WAT     H110508   3.104   4.515   9.361
 3422WAT     H210509   2.970   4.465   9.438
 3423WAT      O10510   3.983   0.102   6.769
 3423WAT     H110511   4.009   0.170   6.838
 3423WAT     H210512   4.059   0.091   6.704
 3424WAT      O10513   6.472   3.148   4.334
 3424WAT     H110514   6.549   3.109   4.383
 3424WAT     H210515   6.415   3.201   4.397
 3425WAT      O10516   3.533   7.194   8.028
 3425WAT     H110517   3.543   7.208   7.929
 3425WAT     H210518   3.455   7.248   8.060
 3426WAT      O10519   3.456   6.628   9.037
 3426WAT     H110520   3.488   6.632   8.943
 3426WAT     H210521   3.491   6.708   9.087
 3427WAT      O10522   2.389   5.837   1.374
 3427WAT     H110523   2.406   5.813   1.278
 3427WAT     H210524   2.353   5.757   1.422
 3428WAT      O10525   4.573   0.684   3.531
 3428WAT     H110526   4.645   0.752   3.513
 3428WAT     H210527   4.592   0.601   3.478
 3429WAT      O10528   9.779   3.720   6.825
 3429WAT     H110529   9.860   3.752   6.875
 3429WAT     H210530   9.778   3.760   6.734
 3430WAT      O10531   0.338   8.707   2.788
 3430WAT     H110532   0.251   8.710   2.739
 3430WAT     H210533   0.326   8.651   2.871
 3431WAT      O10534   6.731   5.947   3.143
 3431WAT     H110535   6.687   5.857   3.155
 3431WAT     H210536   6.676   6.003   3.081
 3432WAT      O10537   8.228   9.483   9.830
 3432WAT     H110538   8.285   9.468   9.910
 3432WAT     H210539   8.283   9.474   9.747
 3433WAT      O10540   4.723   7.776   2.750
 3433WAT     H110541   4.624   7.764   2.735
 3433WAT     H210542   4.772   7.698   2.711
 3434WAT      O10543   3.504   6.621   5.702
 3434WAT     H110544   3.528   6.533   5.660
 3434WAT     H210545   3.584   6.656   5.752
 3435WAT      O10546   0.487   9.154   8.952
 3435WAT     H110547   0.415   9.086   8.966
 3435WAT     H210548   0.574   9.117   8.986
 3436WAT      O10549   1.150   3.554   5.575
 3436WAT     H110550   1.167   3.648   5.545
 3436WAT     H210551   1.126   3.553   5.672
 3437WAT      O10552   1.100   7.858   8.178
 3437WAT     H110553   1.083   7.924   8.252
 3437WAT     H210554   1.115   7.767   8.218
 3438WAT      O10555   8.579   0.961   3.381
 3438WAT     H110556   8.487   0.923   3.388
 3438WAT     H210557   8.611   0.951   3.287
 3439WAT      O10558   2.169   5.037   2.507
 3439WAT     H110559   2.130   5.089   2.583
 3439WAT     H210560   2.240   4.976   2.542
 3440WAT      O10561   5.784   3.062   4.027
 3440WAT     H110562   5.745   2.984   3.978
 3440WAT     H210563   5.802   3.136   3.962
 3441WAT      O10564   1.960   9.193   3.120
 3441WAT     H110565   1.953   9.104   3.164
 3441WAT     H210566   2.000   9.183   3.029
 3442WAT      O10567   5.046   8.286   8.570
 3442WAT     H110568   5.140   8.260   8.592
 3442WAT     H210569   5.046   8.357   8.501
 3443WAT      O10570   7.870   6.296   6.066
 3443WAT     H110571   7.874   6.197   6.070
 3443WAT     H210572   7.935   6.329   5.997
 3444WAT      O10573   0.439   5.261   1.249
 3444WAT     H110574   0.354   5.312   1.245
 3444WAT     H210575   0.453   5.211   1.164
 3445WAT      O10576   5.364   6.263   1.709
 3445WAT     H110577   5.275   6.218   1.702
 3445WAT     H210578   5.400   6.280   1.617
 3446WAT      O10579   4.060   3.695   1.833
 3446WAT     H110580   3.997   3.648   1.895
 3446WAT     H210581   4.121   3.627   1.791
 3447WAT      O10582   6.777   5.960   4.704
 3447WAT     H110583   6.699   5.904   4.676
 3447WAT     H210584   6.771   5.979   4.801
 3448WAT      O10585   2.623   9.341   7.330
 3448WAT     H110586   2.525   9.327   7.348
 3448WAT     H210587   2.635   9.376   7.237
 3449WAT      O10588   4.376   8.183   0.714
 3449WAT     H110589   4.394   8.275   0.680
 3449WAT     H210590   4.393   8.179   0.812
 3450WAT      O10591   9.414   1.038   1.800
 3450WAT     H110592   9.431   1.010   1.706
 3450WAT     H210593   9.368   1.127   1.801
 3451WAT      O10594   1.069   2.167   3.340
 3451WAT     H110595   1.035   2.234   3.406
 3451WAT     H210596   1.157   2.197   3.303
 3452WAT      O10597   0.650   0.731   7.983
 3452WAT     H110598   0.690   0.639   7.979
 3452WAT     H210599   0.591   0.738   8.063
 3453WAT      O10600   8.178   2.880   6.052
 3453WAT     H110601   8.195   2.801   5.994
 3453WAT     H210602   8.223   2.867   6.140
 3454WAT      O10603   3.782   7.083   5.208
 3454WAT     H110604   3.757   7.055   5.115
 3454WAT     H210605   3.880   7.066   5.222
 3455WAT      O10606   0.451   1.349   3.156
 3455WAT     H110607   0.353   1.367   3.158
 3455WAT     H210608   0.489   1.383   3.069
 3456WAT      O10609   8.118   4.315   5.673
 3456WAT     H110610   8.118   4.255   5.753
 3456WAT     H210611   8.195   4.292   5.613
 3457WAT      O10612   6.190   9.837   4.840
 3457WAT     H110613   6.100   9.842   4.798
 3457WAT     H210614   6.253   9.788   4.779
 3458WAT      O10615   8.236   0.476   0.773
 3458WAT     H110616   8.174   0.463   0.695
 3458WAT     H210617   8.213   0.561   0.819
 3459WAT      O10618   9.462   7.755   1.921
 3459WAT     H110619   9.550   7.796   1.944
 3459WAT     H210620   9.442   7.681   1.986
 3460WAT      O10621   5.476   8.881   3.250
 3460WAT     H110622   5.554   8.918   3.200
 3460WAT     H210623   5.485   8.781   3.258
 3461WAT      O10624   2.399   5.412   0.644
 3461WAT     H110625   2.372   5.424   0.548
 3461WAT     H210626   2.492   5.445   0.657
 3462WAT      O10627   8.325   6.012   5.949
 3462WAT     H110628   8.409   6.066   5.935
 3462WAT     H210629   8.280   6.042   6.033
 3463WAT      O10630   2.723   1.676   8.731
 3463WAT     H110631   2.648   1.729   8.690
 3463WAT     H210632   2.686   1.614   8.800
 3464WAT      O10633   6.960   6.608   3.089
 3464WAT     H110634   6.873   6.573   3.054
 3464WAT     H210635   6.958   6.708   3.086
 3465WAT      O10636   4.007   3.270   2.956
 3465WAT     H110637   4.029   3.181   2.998
 3465WAT     H210638   4.078   3.336   2.980
 3466WAT      O10639   5.472   3.553   8.146
 3466WAT     H110640   5.478   3.574   8.243
 3466WAT     H210641   5.454   3.637   8.095
 3467WAT      O10642   8.826   5.961   6.649
 3467WAT     H110643   8.743   6.004   6.613
 3467WAT     H210644   8.841   5.991   6.743
 3468WAT      O10645   3.766   1.477   0.382
 3468WAT     H110646   3.720   1.559   0.415
 3468WAT     H210647   3.742   1.462   0.286
 3469WAT      O10648   6.534   6.415   4.139
 3469WAT     H110649   6.557   6.328   4.182
 3469WAT     H210650   6.442   6.409   4.101
 3470WAT      O10651   6.635   3.921   9.553
 3470WAT     H110652   6.651   3.840   9.610
 3470WAT     H210653   6.601   3.995   9.611
 3471WAT      O10654   9.345   2.774   0.585
 3471WAT     H110655   9.356   2.870   0.560
 3471WAT     H210656   9.394   2.756   0.671
 3472WAT      O10657   7.474   1.471   9.423
 3472WAT     H110658   7.469   1.384   9.473
 3472WAT     H210659   7.382   1.508   9.411
 3473WAT      O10660   6.939   3.716   8.201
 3473WAT     H110661   6.905   3.809   8.215
 3473WAT     H210662   6.989   3.686   8.282
 3474WAT      O10663   3.683   3.860   0.216
 3474WAT     H110664   3.768   3.902   0.246
 3474WAT     H210665   3.613   3.930   0.205
 3475WAT      O10666   3.939   9.785   0.787
 3475WAT     H110667   3.910   9.869   0.740
 3475WAT     H210668   3.880   9.709   0.760
 3476WAT      O10669   3.111   6.219   1.579
 3476WAT     H110670   3.018   6.238   1.608
 3476WAT     H210671   3.131   6.270   1.496
 3477WAT      O10672   6.092   6.335   7.384
 3477WAT     H110673   6.114   6.294   7.472
 3477WAT     H210674   6.177   6.355   7.335
 3478WAT      O10675   0.926   0.936   3.886
 3478WAT     H110676   0.868   0.984   3.820
 3478WAT     H210677   1.014   0.915   3.844
 3479WAT      O10678   8.820   1.464   3.740
 3479WAT     H110679   8.806   1.558   3.772
 3479WAT     H210680   8.737   1.410   3.758
 3480WAT      O10681   2.605   1.555   0.980
 3480WAT     H110682   2.661   1.589   0.905
 3480WAT     H210683   2.540   1.487   0.946
 3481WAT      O10684   6.430   5.627   0.363
 3481WAT     H110685   6.437   5.714   0.411
 3481WAT     H210686   6.463   5.637   0.269
 3482WAT      O10687   9.800   3.628   6.244
 3482WAT     H110688   9.780   3.572   6.325
 3482WAT     H210689   9.844   3.713   6.273
 3483WAT      O10690   5.154   8.887   9.773
 3483WAT     H110691   5.075   8.919   9.721
 3483WAT     H210692   5.167   8.945   9.853
 3484WAT      O10693   0.903   1.580   6.681
 3484WAT     H110694   0.859   1.496   6.649
 3484WAT     H210695   0.867   1.605   6.771
 3485WAT      O10696   3.348   5.529   3.777
 3485WAT     H110697   3.394   5.533   3.689
 3485WAT     H210698   3.384   5.601   3.837
 3486WAT      O10699   7.438   2.687   2.157
 3486WAT     H110700   7.452   2.671   2.254
 3486WAT     H210701   7.369   2.624   2.121
 3487WAT      O10702   5.007   3.634   9.261
 3487WAT     H110703   5.008   3.561   9.192
 3487WAT     H210704   4.949   3.606   9.337
 3488WAT      O10705   4.726   3.145   4.205
 3488WAT     H110706   4.714   3.243   4.184
 3488WAT     H210707   4.815   3.132   4.250
 3489WAT      O10708   4.535   5.790   4.985
 3489WAT     H110709   4.531   5.825   5.078
 3489WAT     H210710   4.591   5.851   4.929
 3490WAT      O10711   6.971   8.472   8.911
 3490WAT     H110712   6.892   8.479   8.972
 3490WAT     H210713   6.998   8.376   8.901
 3491WAT      O10714   6.768   3.305   3.225
 3491WAT     H110715   6.753   3.225   3.167
 3491WAT     H210716   6.859   3.342   3.208
 3492WAT      O10717   3.290   1.977   6.172
 3492WAT     H110718   3.274   2.075   6.160
 3492WAT     H210719   3.213   1.935   6.219
 3493WAT      O10720   0.034   7.430   5.502
 3493WAT     H110721   0.101   7.380   5.556
 3493WAT     H210722  -0.011   7.499   5.559
 3494WAT      O10723   6.700   8.453   5.324
 3494WAT     H110724   6.793   8.485   5.339
 3494WAT     H210725   6.700   8.378   5.258
 3495WAT      O10726   8.697   8.165   4.492
 3495WAT     H110727   8.701   8.185   4.394
 3495WAT     H210728   8.699   8.250   4.544
 3496WAT      O10729   0.261   0.435   9.050
 3496WAT     H110730   0.227   0.351   9.091
 3496WAT     H210731   0.359   0.428   9.036
 3497WAT      O10732   8.212   4.324   9.818
 3497WAT     H110733   8.220   4.420   9.789
 3497WAT     H210734   8.212   4.320   9.918
 3498WAT      O10735   0.021   9.056   4.866
 3498WAT     H110736   0.054   9.134   4.813
 3498WAT     H210737  -0.078   9.063   4.878
 3499WAT      O10738   0.096   6.070   1.615
 3499WAT     H110739   0.094   6.164   1.581
 3499WAT     H210740   0.055   6.009   1.548
 3500WAT      O10741   2.591   1.103   1.745
 3500WAT     H110742   2.584   1.007   1.770
 3500WAT     H210743   2.506   1.133   1.701
 3501WAT      O10744   0.980   1.146   0.160
 3501WAT     H110745   0.927   1.151   0.075
 3501WAT     H210746   0.957   1.062   0.209
 3502WAT      O10747   6.194   3.856   1.777
 3502WAT     H110748   6.205   3.779   1.715
 3502WAT     H210749   6.195   3.824   1.872
 3503WAT      O10750   6.700   3.678   7.095
 3503WAT     H110751   6.767   3.618   7.051
 3503WAT     H210752   6.719   3.684   7.193
 3504WAT      O10753   9.813   6.187   2.617
 3504WAT     H110754   9.850   6.279   2.635
 3504WAT     H210755   9.820   6.167   2.520
 3505WAT      O10756   0.189   4.254   8.155
 3505WAT     H110757   0.198   4.184   8.226
 3505WAT     H210758   0.125   4.223   8.085
 3506WAT      O10759   6.949   7.827   7.347
 3506WAT     H110760   6.979   7.769   7.422
 3506WAT     H210761   6.991   7.918   7.357
 3507WAT      O10762   0.844   9.218   7.112
 3507WAT     H110763   0.810   9.197   7.021
 3507WAT     H210764   0.778   9.188   7.180
 3508WAT      O10765   3.656   3.956   6.136
 3508WAT     H110766   3.587   3.885   6.153
 3508WAT     H210767   3.634   4.037   6.189
 3509WAT      O10768   9.060   4.837   1.107
 3509WAT     H110769   9.114   4.835   1.191
 3509WAT     H210770   8.984   4.900   1.117
 3510WAT      O10771   1.706   3.636   2.475
 3510WAT     H110772   1.788   3.689   2.495
 3510WAT     H210773   1.675   3.655   2.382
 3511WAT      O10774   1.034   5.510   0.317
 3511WAT     H110775   0.942   5.481   0.293
 3511WAT     H210776   1.093   5.505   0.237
 3512WAT      O10777   9.547   0.012   0.791
 3512WAT     H110778   9.460   0.055   0.767
 3512WAT     H210779   9.568  -0.061   0.725
 3513WAT      O10780   7.075   6.376   2.157
 3513WAT     H110781   7.081   6.471   2.127
 3513WAT     H210782   7.055   6.317   2.079
 3514WAT      O10783   9.470   1.964   3.567
 3514WAT     H110784   9.383   1.971   3.518
 3514WAT     H210785   9.533   1.907   3.515
 3515WAT      O10786   7.392   1.626   5.662
 3515WAT     H110787   7.457   1.696   5.630
 3515WAT     H210788   7.420   1.537   5.626
 3516WAT      O10789   3.915   5.985   9.492
 3516WAT     H110790   3.853   5.971   9.414
 3516WAT     H210791   4.007   6.004   9.458
 3517WAT      O10792   6.769   2.274   8.033
 3517WAT     H110793   6.808   2.192   8.075
 3517WAT     H210794   6.764   2.347   8.101
 3518WAT      O10795   4.828   2.169   1.699
 3518WAT     H110796   4.907   2.222   1.667
 3518WAT     H210797   4.748   2.194   1.645
 3519WAT      O10798   8.270   6.522   8.235
 3519WAT     H110799   8.356   6.562   8.205
 3519WAT     H210800   8.220   6.488   8.155
 3520WAT      O10801   7.465   0.851   3.080
 3520WAT     H110802   7.554   0.813   3.053
 3520WAT     H210803   7.458   0.849   3.180
 3521WAT      O10804   3.911   2.038   0.363
 3521WAT     H110805   3.991   2.034   0.304
 3521WAT     H210806   3.924   2.109   0.432
 3522WAT      O10807   4.373   3.207   2.092
 3522WAT     H110808   4.363   3.255   2.179
 3522WAT     H210809   4.358   3.270   2.017
 3523WAT      O10810   6.462   5.840   7.170
 3523WAT     H110811   6.445   5.742   7.178
 3523WAT     H210812   6.526   5.869   7.241
 3524WAT      O10813   3.047   3.988   6.438
 3524WAT     H110814   2.976   4.057   6.443
 3524WAT     H210815   3.111   4.000   6.514
 3525WAT      O10816   3.070   1.014   2.332
 3525WAT     H110817   3.123   1.055   2.258
 3525WAT     H210818   2.995   0.960   2.293
 3526WAT      O10819   0.875   4.843   6.430
 3526WAT     H110820   0.851   4.748   6.449
 3526WAT     H210821   0.806   4.884   6.371
 3527WAT      O10822   0.225   9.337   4.024
 3527WAT     H110823   0.314   9.374   4.050
 3527WAT     H210824   0.155   9.371   4.087
 3528WAT      O10825   6.165   0.098   3.114
 3528WAT     H110826   6.112   0.031   3.166
 3528WAT     H210827   6.246   0.124   3.166
 3529WAT      O10828   7.934   9.248   0.624
 3529WAT     H110829   7.944   9.157   0.664
 3529WAT     H210830   7.944   9.317   0.695
 3530WAT      O10831   1.719   0.557   1.314
 3530WAT     H110832   1.662   0.614   1.255
 3530WAT     H210833   1.770   0.492   1.258
 3531WAT      O10834   1.695   7.667   4.025
 3531WAT     H110835   1.637   7.595   3.986
 3531WAT     H210836   1.724   7.728   3.952
 3532WAT      O10837   7.476   4.769   9.084
 3532WAT     H110838   7.509   4.852   9.130
 3532WAT     H210839   7.404   4.727   9.139
 3533WAT      O10840   4.027   5.369   5.766
 3533WAT     H110841   4.085   5.395   5.689
 3533WAT     H210842   3.945   5.323   5.732
 3534WAT      O10843   4.724   2.516   7.506
 3534WAT     H110844   4.745   2.567   7.422
 3534WAT     H210845   4.743   2.419   7.492
 3535WAT      O10846   3.293   9.349   0.833
 3535WAT     H110847   3.229   9.374   0.906
 3535WAT     H210848   3.308   9.429   0.774
 3536WAT      O10849   2.482   1.911   7.172
 3536WAT     H110850   2.519   2.004   7.181
 3536WAT     H210851   2.512   1.872   7.085
 3537WAT      O10852   2.514   9.569   9.815
 3537WAT     H110853   2.493   9.643   9.879
 3537WAT     H210854   2.486   9.481   9.854
 3538WAT      O10855   2.536   0.875   7.120
 3538WAT     H110856   2.540   0.832   7.210
 3538WAT     H210857   2.441   0.882   7.090
 3539WAT      O10858   1.066   1.554   0.589
 3539WAT     H110859   1.005   1.612   0.642
 3539WAT     H210860   1.028   1.462   0.583
 3540WAT      O10861   8.566   7.192   9.846
 3540WAT     H110862   8.616   7.274   9.876
 3540WAT     H210863   8.626   7.137   9.789
 3541WAT      O10864   7.613   6.025   0.260
 3541WAT     H110865   7.665   5.949   0.300
 3541WAT     H210866   7.581   6.085   0.333
 3542WAT      O10867   8.039   7.141   2.072
 3542WAT     H110868   8.065   7.080   2.148
 3542WAT     H210869   7.945   7.121   2.045
 3543WAT      O10870   3.742   8.495   0.252
 3543WAT     H110871   3.706   8.495   0.158
 3543WAT     H210872   3.676   8.449   0.312
 3544WAT      O10873   5.509   6.146   3.123
 3544WAT     H110874   5.551   6.163   3.212
 3544WAT     H210875   5.550   6.064   3.082
 3545WAT      O10876   9.506   5.353   0.125
 3545WAT     H110877   9.557   5.300   0.058
 3545WAT     H210878   9.432   5.402   0.079
 3546WAT      O10879   3.324   1.732   7.161
 3546WAT     H110880   3.330   1.828   7.133
 3546WAT     H210881   3.234   1.696   7.139
 3547WAT      O10882   5.022   2.093   0.467
 3547WAT     H110883   4.991   1.999   0.455
 3547WAT     H210884   5.084   2.117   0.392
 3548WAT      O10885   4.558   4.136   2.839
 3548WAT     H110886   4.506   4.056   2.868
 3548WAT     H210887   4.551   4.207   2.908
 3549WAT      O10888   7.999   7.354   0.905
 3549WAT     H110889   8.091   7.326   0.933
 3549WAT     H210890   7.945   7.274   0.880
 3550WAT      O10891   1.989   8.580   5.662
 3550WAT     H110892   1.980   8.622   5.752
 3550WAT     H210893   1.908   8.601   5.607
 3551WAT      O10894   8.682   7.491   7.052
 3551WAT     H110895   8.690   7.434   6.971
 3551WAT     H210896   8.651   7.435   7.129
 3552WAT      O10897   5.331   7.825   8.475
 3552WAT     H110898   5.294   7.822   8.382
 3552WAT     H210899   5.423   7.863   8.473
 3553WAT      O10900   3.116   2.195   7.161
 3553WAT     H110901   3.031   2.150   7.135
 3553WAT     H210902   3.117   2.289   7.125
 3554WAT      O10903   7.416   6.710   4.482
 3554WAT     H110904   7.340   6.677   4.426
 3554WAT     H210905   7.382   6.732   4.573
 3555WAT      O10906   5.526   1.607   7.990
 3555WAT     H110907   5.566   1.619   7.899
 3555WAT     H210908   5.427   1.599   7.982
 3556WAT      O10909   7.877   4.122   0.407
 3556WAT     H110910   7.855   4.165   0.320
 3556WAT     H210911   7.961   4.069   0.398
 3557WAT      O10912   3.938   7.282   4.793
 3557WAT     H110913   3.967   7.260   4.886
 3557WAT     H210914   3.996   7.354   4.756
 3558WAT      O10915   8.207   1.887   0.671
 3558WAT     H110916   8.228   1.791   0.651
 3558WAT     H210917   8.122   1.892   0.722
 3559WAT      O10918   7.310   4.060   1.007
 3559WAT     H110919   7.308   3.971   1.053
 3559WAT     H210920   7.218   4.083   0.975
 3560WAT      O10921   3.690   1.246   7.598
 3560WAT     H110922   3.738   1.172   7.644
 3560WAT     H210923   3.602   1.262   7.643
 3561WAT      O10924   5.218   4.237   1.950
 3561WAT     H110925   5.283   4.313   1.942
 3561WAT     H210926   5.135   4.259   1.899
 3562WAT      O10927   5.152   8.665   6.426
 3562WAT     H110928   5.135   8.635   6.332
 3562WAT     H210929   5.086   8.737   6.449
 3563WAT      O10930   1.633   8.918   5.631
 3563WAT     H110931   1.628   8.985   5.704
 3563WAT     H210932   1.606   8.961   5.544
 3564WAT      O10933   6.466   8.851   9.587
 3564WAT     H110934   6.420   8.886   9.668
 3564WAT     H210935   6.535   8.784   9.613
 3565WAT      O10936   1.182   1.734   2.020
 3565WAT     H110937   1.280   1.747   2.010
 3565WAT     H210938   1.135   1.823   2.015
 3566WAT      O10939   8.610   0.167   0.900
 3566WAT     H110940   8.598   0.120   0.988
 3566WAT     H210941   8.520   0.182   0.859
 3567WAT      O10942   8.175   7.097   8.119
 3567WAT     H110943   8.241   7.126   8.050
 3567WAT     H210944   8.128   7.176   8.156
 3568WAT      O10945   3.079   3.462   9.333
 3568WAT     H110946   3.141   3.539   9.316
 3568WAT     H210947   3.032   3.476   9.420
 3569WAT      O10948   9.781   5.992   1.219
 3569WAT     H110949   9.835   6.055   1.164
 3569WAT     H210950   9.684   6.013   1.208
 3570WAT      O10951   0.070   3.150   8.235
 3570WAT     H110952   0.118   3.201   8.163
 3570WAT     H210953   0.136   3.118   8.302
 3571WAT      O10954   8.304   7.869   3.831
 3571WAT     H110955   8.299   7.868   3.930
 3571WAT     H210956   8.213   7.851   3.792
 3572WAT      O10957   6.839   4.134   4.460
 3572WAT     H110958   6.781   4.212   4.436
 3572WAT     H210959   6.809   4.053   4.411
 3573WAT      O10960   6.687   8.076   2.225
 3573WAT     H110961   6.746   8.063   2.305
 3573WAT     H210962   6.740   8.114   2.149
 3574WAT      O10963   2.936   8.755   7.203
 3574WAT     H110964   2.931   8.767   7.104
 3574WAT     H210965   2.936   8.657   7.225
 3575WAT      O10966   7.572   5.256   0.759
 3575WAT     H110967   7.494   5.263   0.697
 3575WAT     H210968   7.569   5.331   0.825
 3576WAT      O10969   6.453   5.556   2.410
 3576WAT     H110970   6.500   5.620   2.471
 3576WAT     H210971   6.482   5.574   2.315
 3577WAT      O10972   6.438   0.877   5.582
 3577WAT     H110973   6.381   0.859   5.662
 3577WAT     H210974   6.489   0.794   5.558
 3578WAT      O10975   0.433   4.656   2.246
 3578WAT     H110976   0.340   4.683   2.220
 3578WAT     H210977   0.436   4.635   2.343
 3579WAT      O10978   9.051   7.465   7.111
 3579WAT     H110979   8.993   7.537   7.149
 3579WAT     H210980   9.015   7.375   7.137
 3580WAT      O10981   8.980   3.482   6.842
 3580WAT     H110982   9.018   3.394   6.814
 3580WAT     H210983   9.043   3.526   6.905
 3581WAT      O10984   1.317   6.538   8.450
 3581WAT     H110985   1.319   6.633   8.418
 3581WAT     H210986   1.237   6.523   8.508
 3582WAT      O10987   5.704   3.391   4.559
 3582WAT     H110988   5.748   3.473   4.523
 3582WAT     H210989   5.721   3.315   4.496
 3583WAT      O10990   2.830   2.145   7.114
 3583WAT     H110991   2.731   2.152   7.119
 3583WAT     H210992   2.855   2.073   7.049
 3584WAT      O10993   7.574   4.677   5.146
 3584WAT     H110994   7.608   4.675   5.240
 3584WAT     H210995   7.649   4.656   5.083
 3585WAT      O10996   5.999   1.864   9.638
 3585WAT     H110997   6.078   1.825   9.685
 3585WAT     H210998   6.029   1.912   9.556
 3586WAT      O10999   7.056   3.235   2.906
 3586WAT     H111000   6.989   3.238   2.831
 3586WAT     H211001   7.078   3.140   2.928
 3587WAT      O11002   8.461   0.289   7.516
 3587WAT     H111003   8.489   0.193   7.517
 3587WAT     H211004   8.509   0.339   7.588
 3588WAT      O11005   9.234   0.832   6.991
 3588WAT     H111006   9.276   0.815   6.902
 3588WAT     H211007   9.179   0.752   7.017
 3589WAT      O11008   0.234   1.254   6.547
 3589WAT     H111009   0.285   1.191   6.604
 3589WAT     H211010   0.260   1.241   6.451
 3590WAT      O11011   8.596   5.187   2.098
 3590WAT     H111012   8.651   5.269   2.113
 3590WAT     H211013   8.623   5.144   2.012
 3591WAT      O11014   9.189   8.292   6.910
 3591WAT     H111015   9.218   8.388   6.909
 3591WAT     H211016   9.181   8.259   6.816
 3592WAT      O11017   1.493   5.671   1.372
 3592WAT     H111018   1.523   5.725   1.294
 3592WAT     H211019   1.572   5.637   1.422
 3593WAT      O11020   4.455   2.265   0.843
 3593WAT     H111021   4.555   2.265   0.847
 3593WAT     H211022   4.425   2.323   0.767
 3594WAT      O11023   4.343   1.760   3.627
 3594WAT     H111024   4.435   1.761   3.666
 3594WAT     H211025   4.348   1.773   3.528
 3595WAT      O11026   8.999   4.064   4.733
 3595WAT     H111027   8.956   4.044   4.645
 3595WAT     H211028   9.095   4.035   4.731
 3596WAT      O11029   8.146   2.053   9.473
 3596WAT     H111030   8.226   2.102   9.508
 3596WAT     H211031   8.096   2.012   9.549
 3597WAT      O11032   7.366   2.969   7.397
 3597WAT     H111033   7.415   2.909   7.333
 3597WAT     H211034   7.401   3.062   7.388
 3598WAT      O11035   9.520   4.845   9.385
 3598WAT     H111036   9.580   4.909   9.433
 3598WAT     H211037   9.511   4.761   9.439
 3599WAT      O11038   4.280   0.136   2.194
 3599WAT     H111039   4.349   0.155   2.124
 3599WAT     H211040   4.244   0.044   2.183
 3600WAT      O11041   2.186   4.184   6.201
 3600WAT     H111042   2.115   4.212   6.265
 3600WAT     H211043   2.190   4.084   6.197
 3601WAT      O11044   9.496   0.380   3.895
 3601WAT     H111045   9.466   0.291   3.929
 3601WAT     H211046   9.517   0.372   3.797
 3602WAT      O11047   5.424   9.158   3.898
 3602WAT     H111048   5.380   9.111   3.975
 3602WAT     H211049   5.447   9.252   3.925
 3603WAT      O11050   0.267   8.686   9.366
 3603WAT     H111051   0.183   8.710   9.316
 3603WAT     H211052   0.333   8.761   9.357
 3604WAT      O11053   5.740   0.067   6.032
 3604WAT     H111054   5.817   0.112   6.078
 3604WAT     H211055   5.738   0.095   5.936
 3605WAT      O11056   3.100   5.219   1.567
 3605WAT     H111057   3.084   5.255   1.659
 3605WAT     H211058   3.016   5.228   1.513
 3606WAT      O11059   2.361   9.770   1.993
 3606WAT     H111060   2.403   9.821   1.917
 3606WAT     H211061   2.412   9.787   2.077
 3607WAT      O11062   9.892   9.397   4.167
 3607WAT     H111063   9.876   9.416   4.070
 3607WAT     H211064   9.818   9.436   4.221
 3608WAT      O11065   6.211   8.087   1.362
 3608WAT     H111066   6.296   8.036   1.349
 3608WAT     H211067   6.164   8.054   1.444
 3609WAT      O11068   3.876   2.663   5.618
 3609WAT     H111069   3.888   2.577   5.668
 3609WAT     H211070   3.859   2.643   5.521
 3610WAT      O11071   2.826   6.811   1.004
 3610WAT     H111072   2.899   6.753   0.967
 3610WAT     H211073   2.761   6.754   1.054
 3611WAT      O11074   4.365   1.299   4.092
 3611WAT     H111075   4.429   1.343   4.028
 3611WAT     H211076   4.274   1.337   4.078
 3612WAT      O11077   2.782   8.987   0.739
 3612WAT     H111078   2.694   8.976   0.786
 3612WAT     H211079   2.768   9.036   0.653
 3613WAT      O11080   0.095   6.118   9.473
 3613WAT     H111081   0.170   6.146   9.533
 3613WAT     H211082   0.116   6.143   9.378
 3614WAT      O11083   1.469   8.305   3.920
 3614WAT     H111084   1.488   8.277   3.826
 3614WAT     H211085   1.375   8.336   3.927
 3615WAT      O11086   5.027   3.339   5.022
 3615WAT     H111087   4.938   3.379   4.998
 3615WAT     H211088   5.082   3.407   5.071
 3616WAT      O11089   4.045   4.327   1.496
 3616WAT     H111090   4.043   4.244   1.551
 3616WAT     H211091   4.098   4.311   1.413
 3617WAT      O11092   3.260   6.465   3.423
 3617WAT     H111093   3.322   6.447   3.500
 3617WAT     H211094   3.257   6.384   3.363
 3618WAT      O11095   5.647   3.049   9.118
 3618WAT     H111096   5.588   3.129   9.103
 3618WAT     H211097   5.601   2.985   9.179
 3619WAT      O11098   2.635   0.565   1.406
 3619WAT     H111099   2.623   0.582   1.308
 3619WAT     H211100   2.635   0.467   1.423
 3620WAT      O11101   3.675   2.285   6.010
 3620WAT     H111102   3.702   2.327   6.097
 3620WAT     H211103   3.637   2.355   5.949
 3621WAT      O11104   9.466   0.145   9.173
 3621WAT     H111105   9.552   0.196   9.184
 3621WAT     H211106   9.467   0.097   9.086
 3622WAT      O11107   2.938   1.782   9.458
 3622WAT     H111108   3.013   1.759   9.395
 3622WAT     H211109   2.932   1.881   9.468
 3623WAT      O11110   6.563   4.289   2.564
 3623WAT     H111111   6.640   4.249   2.514
 3623WAT     H211112   6.532   4.371   2.516
 3624WAT      O11113   6.634   5.039   9.593
 3624WAT     H111114   6.682   4.977   9.655
 3624WAT     H211115   6.543   5.059   9.628
 3625WAT      O11116   2.971   3.873   2.915
 3625WAT     H111117   3.064   3.903   2.896
 3625WAT     H211118   2.939   3.816   2.840
 3626WAT      O11119   3.312   8.507   9.441
 3626WAT     H111120   3.266   8.423   9.471
 3626WAT     H211121   3.301   8.578   9.511
 3627WAT      O11122   7.818   1.571   8.027
 3627WAT     H111123   7.734   1.564   7.975
 3627WAT     H211124   7.895   1.540   7.971
 3628WAT      O11125   3.429   9.562   8.671
 3628WAT     H111126   3.454   9.483   8.614
 3628WAT     H211127   3.489   9.639   8.650
 3629WAT      O11128   9.733   9.458   9.583
 3629WAT     H111129   9.634   9.446   9.573
 3629WAT     H211130   9.754   9.555   9.585
 3630WAT      O11131   2.347   9.611   5.803
 3630WAT     H111132   2.409   9.591   5.727
 3630WAT     H211133   2.279   9.678   5.773
 3631WAT      O11134   1.437   3.897   5.796
 3631WAT     H111135   1.512   3.964   5.792
 3631WAT     H211136   1.474   3.806   5.780
 3632WAT      O11137   6.065   2.530   2.981
 3632WAT     H111138   5.979   2.506   3.025
 3632WAT     H211139   6.142   2.510   3.042
 3633WAT      O11140   2.325   8.168   5.962
 3633WAT     H111141   2.379   8.242   5.922
 3633WAT     H211142   2.385   8.090   5.983
 3634WAT      O11143   4.252   2.782   5.945
 3634WAT     H111144   4.261   2.712   6.016
 3634WAT     H211145   4.165   2.831   5.958
 3635WAT      O11146   9.343   0.394   1.566
 3635WAT     H111147   9.431   0.416   1.608
 3635WAT     H211148   9.359   0.340   1.483
 3636WAT      O11149   4.386   7.201   4.409
 3636WAT     H111150   4.327   7.269   4.452
 3636WAT     H211151   4.338   7.113   4.405
 3637WAT      O11152   5.685   2.944   6.984
 3637WAT     H111153   5.771   2.954   6.933
 3637WAT     H211154   5.609   2.944   6.919
 3638WAT      O11155   3.697   5.641   9.044
 3638WAT     H111156   3.623   5.690   8.999
 3638WAT     H211157   3.748   5.705   9.102
 3639WAT      O11158   5.936   7.775   2.379
 3639WAT     H111159   5.843   7.781   2.344
 3639WAT     H211160   6.000   7.804   2.308
 3640WAT      O11161   8.167   8.180   1.099
 3640WAT     H111162   8.143   8.224   1.185
 3640WAT     H211163   8.085   8.144   1.056
 3641WAT      O11164   1.511   4.599   0.437
 3641WAT     H111165   1.518   4.678   0.376
 3641WAT     H211166   1.432   4.610   0.497
 3642WAT      O11167   2.444   2.493   7.047
 3642WAT     H111168   2.508   2.562   7.013
 3642WAT     H211169   2.466   2.404   7.006
 3643WAT      O11170   0.112   6.869   0.903
 3643WAT     H111171   0.078   6.877   0.810
 3643WAT     H211172   0.036   6.861   0.967
 3644WAT      O11173   5.945   2.066   0.746
 3644WAT     H111174   5.897   2.124   0.812
 3644WAT     H211175   5.880   2.029   0.680
 3645WAT      O11176   2.303   4.585   2.277
 3645WAT     H111177   2.304   4.536   2.364
 3645WAT     H211178   2.368   4.661   2.280
 3646WAT      O11179   4.158   1.680   4.311
 3646WAT     H111180   4.203   1.764   4.342
 3646WAT     H211181   4.142   1.620   4.390
 3647WAT      O11182   7.962   6.491   0.307
 3647WAT     H111183   8.006   6.431   0.241
 3647WAT     H211184   8.011   6.486   0.394
 3648WAT      O11185   6.741   4.088   0.051
 3648WAT     H111186   6.780   3.997   0.037
 3648WAT     H211187   6.794   4.136   0.121
 3649WAT      O11188   2.332   5.084   1.563
 3649WAT     H111189   2.359   5.106   1.469
 3649WAT     H211190   2.399   5.123   1.626
 3650WAT      O11191   6.904   2.902   6.987
 3650WAT     H111192   6.974   2.939   6.927
 3650WAT     H211193   6.902   2.803   6.978
 3651WAT      O11194   3.207   0.061   7.499
 3651WAT     H111195   3.293   0.011   7.511
 3651WAT     H211196   3.183   0.061   7.402
 3652WAT      O11197   7.371   3.358   3.790
 3652WAT     H111198   7.434   3.301   3.737
 3652WAT     H211199   7.396   3.355   3.887
 3653WAT      O11200   2.781   5.573   1.605
 3653WAT     H111201   2.773   5.619   1.517
 3653WAT     H211202   2.855   5.615   1.658
 3654WAT      O11203   8.250   7.171   6.251
 3654WAT     H111204   8.151   7.167   6.258
 3654WAT     H211205   8.280   7.117   6.172
 3655WAT      O11206   6.515   8.540   4.396
 3655WAT     H111207   6.438   8.476   4.386
 3655WAT     H211208   6.517   8.602   4.318
 3656WAT      O11209   0.273   8.637   6.373
 3656WAT     H111210   0.360   8.676   6.403
 3656WAT     H211211   0.218   8.707   6.328
 3657WAT      O11212   5.070   9.370   6.367
 3657WAT     H111213   5.008   9.394   6.442
 3657WAT     H211214   5.100   9.275   6.377
 3658WAT      O11215   1.700   2.728   5.897
 3658WAT     H111216   1.610   2.686   5.902
 3658WAT     H211217   1.732   2.727   5.802
 3659WAT      O11218   6.020   2.199   5.989
 3659WAT     H111219   5.941   2.140   5.971
 3659WAT     H211220   5.996   2.294   5.969
 3660WAT      O11221   2.494   3.883   3.136
 3660WAT     H111222   2.565   3.859   3.070
 3660WAT     H211223   2.505   3.827   3.219
 3661WAT      O11224   3.832   4.916   4.281
 3661WAT     H111225   3.793   4.997   4.326
 3661WAT     H211226   3.759   4.856   4.249
 3662WAT      O11227   8.342   9.416   5.979
 3662WAT     H111228   8.337   9.492   5.914
 3662WAT     H211229   8.314   9.332   5.933
 3663WAT      O11230   6.589   9.834   4.380
 3663WAT     H111231   6.621   9.754   4.430
 3663WAT     H211232   6.643   9.845   4.297
 3664WAT      O11233   2.779   9.841   8.033
 3664WAT     H111234   2.864   9.794   8.058
 3664WAT     H211235   2.757   9.821   7.938
 3665WAT      O11236   7.489   8.761   8.919
 3665WAT     H111237   7.459   8.682   8.866
 3665WAT     H211238   7.438   8.765   9.005
 3666WAT      O11239   0.342   9.280   0.234
 3666WAT     H111240   0.325   9.253   0.139
 3666WAT     H211241   0.433   9.250   0.261
 3667WAT      O11242   6.000   3.975   2.008
 3667WAT     H111243   6.018   4.068   1.974
 3667WAT     H211244   5.935   3.929   1.947
 3668WAT      O11245   1.059   3.198   8.711
 3668WAT     H111246   1.100   3.196   8.620
 3668WAT     H211247   1.083   3.284   8.756
 3669WAT      O11248   0.544   3.116   5.153
 3669WAT     H111249   0.535   3.019   5.176
 3669WAT     H211250   0.453   3.155   5.136
 3670WAT      O11251   9.609   5.332   4.047
 3670WAT     H111252   9.618   5.365   4.141
 3670WAT     H211253   9.637   5.404   3.983
 3671WAT      O11254   8.774   7.116   5.850
 3671WAT     H111255   8.714   7.180   5.802
 3671WAT     H211256   8.749   7.022   5.825
 3672WAT      O11257   0.013   5.515   5.924
 3672WAT     H111258   0.075   5.561   5.988
 3672WAT     H211259   0.067   5.473   5.851
 3673WAT      O11260   2.022   0.172   0.348
 3673WAT     H111261   2.053   0.078   0.344
 3673WAT     H211262   1.923   0.174   0.363
 3674WAT      O11263   6.480   4.200   2.073
 3674WAT     H111264   6.510   4.148   2.153
 3674WAT     H211265   6.439   4.137   2.006
 3675WAT      O11266   9.670   0.911   3.010
 3675WAT     H111267   9.765   0.925   3.036
 3675WAT     H211268   9.664   0.849   2.933
 3676WAT      O11269   5.428   8.757   8.268
 3676WAT     H111270   5.414   8.703   8.186
 3676WAT     H211271   5.502   8.823   8.252
 3677WAT      O11272   3.388   1.251   6.641
 3677WAT     H111273   3.454   1.270   6.568
 3677WAT     H211274   3.349   1.337   6.673
 3678WAT      O11275   1.790   6.361   8.121
 3678WAT     H111276   1.850   6.307   8.061
 3678WAT     H211277   1.734   6.422   8.065
 3679WAT      O11278   0.424   7.567   4.875
 3679WAT     H111279   0.455   7.473   4.861
 3679WAT     H211280   0.484   7.629   4.825
 3680WAT      O11281   6.867   1.045   8.479
 3680WAT     H111282   6.769   1.065   8.484
 3680WAT     H211283   6.907   1.095   8.402
 3681WAT      O11284   8.209   0.786   3.943
 3681WAT     H111285   8.265   0.808   4.022
 3681WAT     H211286   8.178   0.870   3.900
 3682WAT      O11287   3.407   3.566   2.798
 3682WAT     H111288   3.439   3.660   2.801
 3682WAT     H211289   3.473   3.506   2.843
 3683WAT      O11290   1.898   0.352   1.195
 3683WAT     H111291   1.911   0.407   1.112
 3683WAT     H211292   1.986   0.336   1.239
 3684WAT      O11293   8.648   3.938   6.760
 3684WAT     H111294   8.579   3.983   6.702
 3684WAT     H211295   8.721   3.901   6.702
 3685WAT      O11296   6.053   8.317   5.153
 3685WAT     H111297   6.049   8.260   5.071
 3685WAT     H211298   6.149   8.331   5.179
 3686WAT      O11299   5.392   2.662   4.478
 3686WAT     H111300   5.378   2.688   4.573
 3686WAT     H211301   5.358   2.735   4.418
 3687WAT      O11302   4.441   4.509   1.934
 3687WAT     H111303   4.531   4.497   1.894
 3687WAT     H211304   4.373   4.522   1.861
 3688WAT      O11305   6.699   5.911   2.769
 3688WAT     H111306   6.654   5.952   2.849
 3688WAT     H211307   6.680   5.967   2.688
 3689WAT      O11308   8.799   7.220   3.881
 3689WAT     H111309   8.778   7.226   3.783
 3689WAT     H211310   8.791   7.124   3.910
 3690WAT      O11311   1.542   9.469   6.643
 3690WAT     H111312   1.461   9.486   6.699
 3690WAT     H211313   1.520   9.483   6.547
 3691WAT      O11314   8.265   4.573   8.251
 3691WAT     H111315   8.281   4.475   8.266
 3691WAT     H211316   8.287   4.624   8.334
 3692WAT      O11317   8.326   4.725   8.474
 3692WAT     H111318   8.316   4.678   8.562
 3692WAT     H211319   8.424   4.734   8.453
 3693WAT      O11320   3.528   3.906   6.846
 3693WAT     H111321   3.612   3.929   6.895
 3693WAT     H211322   3.458   3.976   6.863
 3694WAT      O11323   1.285   8.152   7.919
 3694WAT     H111324   1.324   8.069   7.878
 3694WAT     H211325   1.334   8.232   7.885
 3695WAT      O11326   4.210   5.294   9.137
 3695WAT     H111327   4.263   5.290   9.052
 3695WAT     H211328   4.121   5.335   9.118
 3696WAT      O11329   0.078   2.525   1.017
 3696WAT     H111330   0.145   2.533   0.944
 3696WAT     H211331   0.014   2.602   1.012
 3697WAT      O11332   0.667   0.852   3.975
 3697WAT     H111333   0.754   0.891   3.947
 3697WAT     H211334   0.633   0.791   3.903
 3698WAT      O11335   8.054   9.129   3.473
 3698WAT     H111336   8.091   9.145   3.565
 3698WAT     H211337   7.975   9.188   3.458
 3699WAT      O11338   5.292   8.474   5.906
 3699WAT     H111339   5.384   8.491   5.940
 3699WAT     H211340   5.297   8.424   5.819
 3700WAT      O11341   3.957   6.038   0.786
 3700WAT     H111342   3.948   6.123   0.839
 3700WAT     H211343   3.869   6.016   0.743
 3701WAT      O11344   6.667   7.829   0.058
 3701WAT     H111345   6.570   7.806   0.066
 3701WAT     H211346   6.678   7.906  -0.005
 3702WAT      O11347   3.260   4.414   1.685
 3702WAT     H111348   3.338   4.399   1.746
 3702WAT     H211349   3.176   4.384   1.731
 3703WAT      O11350   3.503   1.976   2.579
 3703WAT     H111351   3.573   1.979   2.650
 3703WAT     H211352   3.531   2.035   2.503
 3704WAT      O11353   9.306   8.828   4.789
 3704WAT     H111354   9.255   8.861   4.869
 3704WAT     H211355   9.257   8.852   4.706
 3705WAT      O11356   1.921   6.554   4.469
 3705WAT     H111357   2.013   6.587   4.488
 3705WAT     H211358   1.854   6.616   4.509
 3706WAT      O11359   3.617   9.306   0.770
 3706WAT     H111360   3.715   9.319   0.784
 3706WAT     H211361   3.569   9.318   0.857
 3707WAT      O11362   5.802   0.713   2.957
 3707WAT     H111363   5.729   0.726   3.023
 3707WAT     H211364   5.866   0.644   2.992
 3708WAT      O11365   6.864   7.578   2.643
 3708WAT     H111366   6.818   7.647   2.586
 3708WAT     H211367   6.963   7.589   2.635
 3709WAT      O11368   0.191   3.622   0.554
 3709WAT     H111369   0.144   3.636   0.641
 3709WAT     H211370   0.229   3.710   0.522
 3710WAT      O11371   5.698   2.968   6.494
 3710WAT     H111372   5.766   2.962   6.421
 3710WAT     H211373   5.739   2.939   6.581
 3711WAT      O11374   3.305   0.572   6.833
 3711WAT     H111375   3.380   0.621   6.878
 3711WAT     H211376   3.251   0.524   6.903
 3712WAT      O11377   6.977   7.750   1.592
 3712WAT     H111378   6.919   7.704   1.659
 3712WAT     H211379   7.073   7.736   1.614
 3713WAT      O11380   5.229   7.414   7.183
 3713WAT     H111381   5.151   7.419   7.246
 3713WAT     H211382   5.285   7.496   7.194
 3714WAT      O11383   3.298   9.003   4.239
 3714WAT     H111384   3.278   8.920   4.291
 3714WAT     H211385   3.255   9.081   4.285
 3715WAT      O11386   2.933   8.398   1.025
 3715WAT     H111387   2.847   8.449   1.021
 3715WAT     H211388   3.009   8.463   1.033
 3716WAT      O11389   8.308   0.516   1.157
 3716WAT     H111390   8.392   0.539   1.107
 3716WAT     H211391   8.316   0.425   1.196
 3717WAT      O11392   6.053   6.264   0.247
 3717WAT     H111393   6.031   6.214   0.331
 3717WAT     H211394   5.994   6.344   0.239
 3718WAT      O11395   5.276   1.619   0.724
 3718WAT     H111396   5.215   1.580   0.793
 3718WAT     H211397   5.345   1.552   0.698
 3719WAT      O11398   7.253   7.276   8.316
 3719WAT     H111399   7.318   7.313   8.250
 3719WAT     H211400   7.283   7.186   8.346
 3720WAT      O11401   8.399   9.704   6.917
 3720WAT     H111402   8.437   9.683   6.827
 3720WAT     H211403   8.306   9.669   6.923
 3721WAT      O11404   5.076   2.183   3.710
 3721WAT     H111405   4.980   2.209   3.700
 3721WAT     H211406   5.109   2.210   3.800
 3722WAT      O11407   3.318   2.194   4.652
 3722WAT     H111408   3.256   2.125   4.614
 3722WAT     H211409   3.266   2.261   4.704
 3723WAT      O11410   6.098   6.734   4.606
 3723WAT     H111411   6.116   6.656   4.667
 3723WAT     H211412   6.036   6.798   4.650
 3724WAT      O11413   4.306   6.109   8.157
 3724WAT     H111414   4.399   6.093   8.126
 3724WAT     H211415   4.242   6.061   8.096
 3725WAT      O11416   0.316   5.338   9.024
 3725WAT     H111417   0.302   5.428   8.982
 3725WAT     H211418   0.348   5.350   9.118
 3726WAT      O11419   5.284   6.463   5.823
 3726WAT     H111420   5.257   6.405   5.900
 3726WAT     H211421   5.228   6.441   5.743
 3727WAT      O11422   1.956   7.879   4.884
 3727WAT     H111423   1.880   7.907   4.825
 3727WAT     H211424   1.931   7.892   4.980
 3728WAT      O11425   0.990   9.228   4.897
 3728WAT     H111426   1.087   9.243   4.920
 3728WAT     H211427   0.980   9.139   4.852
 3729WAT      O11428   5.787   2.154   2.636
 3729WAT     H111429   5.856   2.210   2.681
 3729WAT     H211430   5.742   2.208   2.564
 3730WAT      O11431   0.859   3.537   1.538
 3730WAT     H111432   0.893   3.577   1.623
 3730WAT     H211433   0.893   3.588   1.460
 3731WAT      O11434   1.787   7.498   1.530
 3731WAT     H111435   1.747   7.570   1.587
 3731WAT     H211436   1.730   7.484   1.449
 3732WAT      O11437   7.303   8.445   7.083
 3732WAT     H111438   7.376   8.452   7.015
 3732WAT     H211439   7.282   8.537   7.118
 3733WAT      O11440   9.711   1.261   0.168
 3733WAT     H111441   9.618   1.294   0.152
 3733WAT     H211442   9.776   1.324   0.126
 3734WAT      O11443   9.761   3.581   4.845
 3734WAT     H111444   9.786   3.669   4.805
 3734WAT     H211445   9.800   3.573   4.936
 3735WAT      O11446   9.362   5.818   3.584
 3735WAT     H111447   9.418   5.777   3.512
 3735WAT     H211448   9.345   5.914   3.562
 3736WAT      O11449   1.631   4.620   0.909
 3736WAT     H111450   1.721   4.644   0.945
 3736WAT     H211451   1.642   4.557   0.832
 3737WAT      O11452   7.576   2.774   4.229
 3737WAT     H111453   7.631   2.751   4.149
 3737WAT     H211454   7.634   2.772   4.310
 3738WAT      O11455   5.135   7.545   3.054
 3738WAT     H111456   5.097   7.461   3.093
 3738WAT     H211457   5.114   7.622   3.115
 3739WAT      O11458   6.667   2.465   8.284
 3739WAT     H111459   6.599   2.430   8.349
 3739WAT     H211460   6.638   2.555   8.252
 3740WAT      O11461   4.088   2.654   3.975
 3740WAT     H111462   4.033   2.734   4.001
 3740WAT     H211463   4.058   2.621   3.886
 3741WAT      O11464   8.848   2.832   5.949
 3741WAT     H111465   8.750   2.832   5.968
 3741WAT     H211466   8.864   2.818   5.852
 3742WAT      O11467   0.903   9.473   0.811
 3742WAT     H111468   0.885   9.509   0.902
 3742WAT     H211469   0.865   9.381   0.803
 3743WAT      O11470   5.176   3.182   3.583
 3743WAT     H111471   5.175   3.157   3.486
 3743WAT     H211472   5.199   3.102   3.638
 3744WAT      O11473   9.698   5.483   4.714
 3744WAT     H111474   9.622   5.418   4.722
 3744WAT     H211475   9.663   5.576   4.721
 3745WAT      O11476   0.983   5.485   0.965
 3745WAT     H111477   1.033   5.539   1.033
 3745WAT     H211478   1.044   5.462   0.889
 3746WAT      O11479   2.184   0.933   5.710
 3746WAT     H111480   2.195   0.838   5.679
 3746WAT     H211481   2.256   0.990   5.671
 3747WAT      O11482   0.671   5.895   4.438
 3747WAT     H111483   0.662   5.857   4.346
 3747WAT     H211484   0.608   5.972   4.448
 3748WAT      O11485   2.503   5.424   4.403
 3748WAT     H111486   2.518   5.391   4.496
 3748WAT     H211487   2.572   5.492   4.379
 3749WAT      O11488   5.117   0.189   0.093
 3749WAT     H111489   5.083   0.095   0.100
 3749WAT     H211490   5.041   0.250   0.073
 3750WAT      O11491   1.873   3.500   6.689
 3750WAT     H111492   1.851   3.453   6.775
 3750WAT     H211493   1.954   3.558   6.703
 3751WAT      O11494   9.428   0.220   7.854
 3751WAT     H111495   9.525   0.238   7.871
 3751WAT     H211496   9.372   0.289   7.902
 3752WAT      O11497   8.859   2.075   1.706
 3752WAT     H111498   8.911   2.139   1.649
 3752WAT     H211499   8.795   2.024   1.649
 3753WAT      O11500   5.815   4.619   7.783
 3753WAT     H111501   5.901   4.629   7.834
 3753WAT     H211502   5.825   4.548   7.714
 3754WAT      O11503   9.709   3.486   1.780
 3754WAT     H111504   9.612   3.463   1.791
 3754WAT     H211505   9.738   3.465   1.687
 3755WAT      O11506   9.435   7.603   3.699
 3755WAT     H111507   9.513   7.578   3.757
 3755WAT     H211508   9.412   7.699   3.714
 3756WAT      O11509   0.266   6.819   4.200
 3756WAT     H111510   0.215   6.873   4.267
 3756WAT     H211511   0.338   6.875   4.159
 3757WAT      O11512   8.355   0.417   8.447
 3757WAT     H111513   8.278   0.390   8.505
 3757WAT     H211514   8.422   0.466   8.503
 3758WAT      O11515   7.759   2.393   8.131
 3758WAT     H111516   7.766   2.446   8.047
 3758WAT     H211517   7.696   2.438   8.194
 3759WAT      O11518   6.679   8.258   5.125
 3759WAT     H111519   6.713   8.297   5.040
 3759WAT     H211520   6.595   8.208   5.108
 3760WAT      O11521   5.864   5.188   2.040
 3760WAT     H111522   5.864   5.215   2.137
 3760WAT     H211523   5.773   5.201   2.002
 3761WAT      O11524   1.548   6.464   3.856
 3761WAT     H111525   1.560   6.535   3.926
 3761WAT     H211526   1.595   6.381   3.885
 3762WAT      O11527   7.004   2.618   8.177
 3762WAT     H111528   7.014   2.688   8.107
 3762WAT     H211529   6.956   2.656   8.256
 3763WAT      O11530   0.525   1.790   1.435
 3763WAT     H111531   0.497   1.704   1.392
 3763WAT     H211532   0.584   1.841   1.372
 3764WAT      O11533   1.846   6.826   9.648
 3764WAT     H111534   1.915   6.829   9.576
 3764WAT     H211535   1.766   6.879   9.620
 3765WAT      O11536   6.468   3.571   4.097
 3765WAT     H111537   6.462   3.615   4.008
 3765WAT     H211538   6.564   3.560   4.123
 3766WAT      O11539   0.079   0.546   4.844
 3766WAT     H111540   0.095   0.611   4.919
 3766WAT     H211541   0.166   0.529   4.797
 3767WAT      O11542   4.043   1.538   3.044
 3767WAT     H111543   3.978   1.614   3.035
 3767WAT     H211544   4.019   1.483   3.124
 3768WAT      O11545   1.956   6.357   1.051
 3768WAT     H111546   1.894   6.373   1.128
 3768WAT     H211547   1.962   6.440   0.995
 3769WAT      O11548   9.468   3.658   4.756
 3769WAT     H111549   9.550   3.628   4.805
 3769WAT     H211550   9.416   3.720   4.815
 3770WAT      O11551   2.787   2.917   3.376
 3770WAT     H111552   2.823   2.975   3.303
 3770WAT     H211553   2.861   2.887   3.436
 3771WAT      O11554   8.899   4.332   0.856
 3771WAT     H111555   8.825   4.286   0.905
 3771WAT     H211556   8.860   4.407   0.801
 3772WAT      O11557   0.935   0.843   5.873
 3772WAT     H111558   0.864   0.865   5.939
 3772WAT     H211559   0.995   0.922   5.861
 3773WAT      O11560   0.488   6.335   6.275
 3773WAT     H111561   0.553   6.268   6.310
 3773WAT     H211562   0.507   6.425   6.316
 3774WAT      O11563   2.228   1.979   9.362
 3774WAT     H111564   2.155   1.931   9.410
 3774WAT     H211565   2.309   1.984   9.421
 3775WAT      O11566   8.400   9.268   3.617
 3775WAT     H111567   8.473   9.252   3.551
 3775WAT     H211568   8.329   9.325   3.577
 3776WAT      O11569   8.844   8.416   5.680
 3776WAT     H111570   8.814   8.355   5.607
 3776WAT     H211571   8.780   8.411   5.756
 3777WAT      O11572   5.533   7.329   5.427
 3777WAT     H111573   5.537   7.354   5.330
 3777WAT     H211574   5.498   7.236   5.436
 3778WAT      O11575   3.554   8.964   7.895
 3778WAT     H111576   3.615   9.029   7.848
 3778WAT     H211577   3.597   8.874   7.897
 3779WAT      O11578   0.746   1.965   9.233
 3779WAT     H111579   0.844   1.968   9.216
 3779WAT     H211580   0.699   2.024   9.168
 3780WAT      O11581   4.715   3.154   7.551
 3780WAT     H111582   4.767   3.232   7.517
 3780WAT     H211583   4.774   3.074   7.556
 3781WAT      O11584   0.651   1.327   9.850
 3781WAT     H111585   0.652   1.255   9.920
 3781WAT     H211586   0.614   1.411   9.890
 3782WAT      O11587   8.272   0.921   1.848
 3782WAT     H111588   8.208   0.995   1.832
 3782WAT     H211589   8.262   0.886   1.941
 3783WAT      O11590   4.883   2.903   7.501
 3783WAT     H111591   4.982   2.919   7.503
 3783WAT     H211592   4.862   2.812   7.536
 3784WAT      O11593   5.970   6.816   3.646
 3784WAT     H111594   6.003   6.911   3.644
 3784WAT     H211595   5.870   6.815   3.656
 3785WAT      O11596   7.811   4.076   8.117
 3785WAT     H111597   7.808   3.982   8.151
 3785WAT     H211598   7.831   4.138   8.193
 3786WAT      O11599   9.170   7.396   1.840
 3786WAT     H111600   9.230   7.425   1.915
 3786WAT     H211601   9.128   7.476   1.797
 3787WAT      O11602   5.247   0.022   3.272
 3787WAT     H111603   5.279  -0.065   3.310
 3787WAT     H211604   5.163   0.049   3.318
 3788WAT      O11605   0.408   6.213   1.291
 3788WAT     H111606   0.375   6.285   1.351
 3788WAT     H211607   0.483   6.248   1.234
 3789WAT      O11608   2.536   1.562   1.472
 3789WAT     H111609   2.508   1.637   1.531
 3789WAT     H211610   2.537   1.593   1.377
 3790WAT      O11611   1.360   3.024   1.352
 3790WAT     H111612   1.297   3.095   1.320
 3790WAT     H211613   1.398   3.050   1.440
 3791WAT      O11614   8.017   2.229   4.411
 3791WAT     H111615   7.974   2.295   4.349
 3791WAT     H211616   7.949   2.165   4.445
 3792WAT      O11617   8.951   5.791   0.888
 3792WAT     H111618   8.902   5.706   0.908
 3792WAT     H211619   9.020   5.807   0.958
 3793WAT      O11620   5.966   9.390   8.089
 3793WAT     H111621   5.993   9.457   8.159
 3793WAT     H211622   5.971   9.432   7.999
 3794WAT      O11623   9.145   9.028   1.394
 3794WAT     H111624   9.132   9.035   1.493
 3794WAT     H211625   9.243   9.029   1.374
 3795WAT      O11626   9.042   5.009   5.753
 3795WAT     H111627   9.020   4.913   5.740
 3795WAT     H211628   8.996   5.043   5.835
 3796WAT      O11629   6.316   5.968   6.207
 3796WAT     H111630   6.234   5.922   6.172
 3796WAT     H211631   6.299   6.066   6.211
 3797WAT      O11632   7.768   4.537   2.328
 3797WAT     H111633   7.668   4.532   2.320
 3797WAT     H211634   7.792   4.600   2.402
 3798WAT      O11635   5.949   0.539   9.892
 3798WAT     H111636   6.020   0.531   9.822
 3798WAT     H211637   5.874   0.595   9.858
 3799WAT      O11638   3.831   6.895   9.736
 3799WAT     H111639   3.930   6.897   9.721
 3799WAT     H211640   3.791   6.819   9.685
 3800WAT      O11641   3.135   9.211   1.034
 3800WAT     H111642   3.117   9.187   1.129
 3800WAT     H211643   3.060   9.267   0.999
 3801WAT      O11644   4.657   2.395   1.934
 3801WAT     H111645   4.727   2.439   1.877
 3801WAT     H211646   4.695   2.311   1.974
 3802WAT      O11647   4.062   2.045   4.492
 3802WAT     H111648   3.996   2.035   4.417
 3802WAT     H211649   4.087   2.141   4.501
 3803WAT      O11650   5.566   1.182   9.740
 3803WAT     H111651   5.609   1.199   9.651
 3803WAT     H211652   5.620   1.115   9.791
 3804WAT      O11653   4.135   4.884   2.381
 3804WAT     H111654   4.185   4.859   2.299
 3804WAT     H211655   4.113   4.801   2.433
 3805WAT      O11656   4.877   9.626   0.619
 3805WAT     H111657   4.975   9.610   0.608
 3805WAT     H211658   4.851   9.617   0.715
 3806WAT      O11659   7.269   0.493   1.228
 3806WAT     H111660   7.308   0.491   1.320
 3806WAT     H211661   7.270   0.587   1.194
 3807WAT      O11662   6.843   8.663   1.202
 3807WAT     H111663   6.898   8.716   1.139
 3807WAT     H211664   6.761   8.715   1.226
 3808WAT      O11665   9.187   8.072   9.367
 3808WAT     H111666   9.124   8.100   9.295
 3808WAT     H211667   9.281   8.094   9.339
 3809WAT      O11668   4.740   8.731   6.340
 3809WAT     H111669   4.831   8.751   6.374
 3809WAT     H211670   4.676   8.726   6.416
 3810WAT      O11671   7.018   3.819   1.411
 3810WAT     H111672   7.056   3.883   1.478
 3810WAT     H211673   6.952   3.759   1.456
 3811WAT      O11674   4.155   9.154   6.718
 3811WAT     H111675   4.109   9.163   6.807
 3811WAT     H211676   4.220   9.229   6.707
 3812WAT      O11677   9.318   7.182   9.511
 3812WAT     H111678   9.228   7.138   9.517
 3812WAT     H211679   9.344   7.216   9.601
 3813WAT      O11680   7.055   8.964   0.244
 3813WAT     H111681   7.152   8.989   0.246
 3813WAT     H211682   7.006   9.013   0.316
 3814WAT      O11683   1.863   6.727   4.843
 3814WAT     H111684   1.913   6.641   4.852
 3814WAT     H211685   1.928   6.804   4.846
 3815WAT      O11686   6.070   3.869   7.135
 3815WAT     H111687   6.051   3.931   7.211
 3815WAT     H211688   6.119   3.918   7.063
 3816WAT      O11689   6.836   1.839   3.721
 3816WAT     H111690   6.935   1.843   3.705
 3816WAT     H211691   6.817   1.856   3.817
 3817WAT      O11692   6.241   4.578   6.566
 3817WAT     H111693   6.275   4.543   6.478
 3817WAT     H211694   6.296   4.657   6.593
 3818WAT      O11695   8.853   2.163   4.799
 3818WAT     H111696   8.782   2.144   4.867
 3818WAT     H211697   8.833   2.249   4.754
 3819WAT      O11698   7.213   6.444   8.843
 3819WAT     H111699   7.194   6.410   8.936
 3819WAT     H211700   7.270   6.378   8.795
 3820WAT      O11701   7.970   2.260   2.569
 3820WAT     H111702   7.887   2.208   2.550
 3820WAT     H211703   7.946   2.357   2.580
 3821WAT      O11704   9.374   6.027   7.488
 3821WAT     H111705   9.420   5.981   7.565
 3821WAT     H211706   9.276   6.034   7.508
 3822WAT      O11707   0.294   8.293   4.241
 3822WAT     H111708   0.277   8.244   4.327
 3822WAT     H211709   0.212   8.291   4.185
 3823WAT      O11710   0.609   7.555   2.550
 3823WAT     H111711   0.587   7.485   2.617
 3823WAT     H211712   0.696   7.532   2.505
 3824WAT      O11713   6.968   4.687   0.012
 3824WAT     H111714   7.033   4.629  -0.037
 3824WAT     H211715   6.921   4.633   0.082
 3825WAT      O11716   6.978   4.532   2.991
 3825WAT     H111717   6.880   4.543   3.005
 3825WAT     H211718   7.008   4.443   3.025
 3826WAT      O11719   3.090   1.214   8.454
 3826WAT     H111720   3.159   1.148   8.483
 3826WAT     H211721   3.044   1.252   8.534
 3827WAT      O11722   3.690   3.423   8.804
 3827WAT     H111723   3.648   3.428   8.894
 3827WAT     H211724   3.682   3.511   8.758
 3828WAT      O11725   1.746   6.875   5.351
 3828WAT     H111726   1.741   6.943   5.424
 3828WAT     H211727   1.693   6.905   5.272
 3829WAT      O11728   9.485   3.049   2.799
 3829WAT     H111729   9.538   3.104   2.734
 3829WAT     H211730   9.389   3.046   2.771
 3830WAT      O11731   0.707   5.904   6.851
 3830WAT     H111732   0.806   5.908   6.837
 3830WAT     H211733   0.686   5.930   6.945
 3831WAT      O11734   4.437   5.010   2.457
 3831WAT     H111735   4.365   5.057   2.405
 3831WAT     H211736   4.468   4.930   2.406
 3832WAT      O11737   8.041   0.666   6.350
 3832WAT     H111738   8.083   0.725   6.281
 3832WAT     H211739   8.104   0.653   6.426
 3833WAT      O11740   0.869   5.015   4.789
 3833WAT     H111741   0.890   4.975   4.700
 3833WAT     H211742   0.798   4.960   4.835
 3834WAT      O11743   8.098   1.719   2.107
 3834WAT     H111744   8.116   1.674   2.020
 3834WAT     H211745   8.168   1.693   2.174
 3835WAT      O11746   3.398   1.175   9.777
 3835WAT     H111747   3.310   1.174   9.730
 3835WAT     H211748   3.471   1.156   9.711
 3836WAT      O11749   1.697   8.908   2.890
 3836WAT     H111750   1.709   8.995   2.939
 3836WAT     H211751   1.648   8.843   2.948
 3837WAT      O11752   1.371   9.169   2.015
 3837WAT     H111753   1.283   9.203   2.049
 3837WAT     H211754   1.360   9.140   1.919
 3838WAT      O11755   4.025   1.203   4.816
 3838WAT     H111756   4.102   1.226   4.874
 3838WAT     H211757   4.046   1.228   4.721
 3839WAT      O11758   8.842   2.090   1.970
 3839WAT     H111759   8.846   2.082   1.871
 3839WAT     H211760   8.748   2.108   1.998
 3840WAT      O11761   2.457   7.859   0.939
 3840WAT     H111762   2.454   7.955   0.965
 3840WAT     H211763   2.378   7.811   0.979
 3841WAT      O11764   5.848   2.194   1.158
 3841WAT     H111765   5.938   2.191   1.201
 3841WAT     H211766   5.780   2.227   1.224
 3842WAT      O11767   4.398   6.422   9.012
 3842WAT     H111768   4.350   6.393   8.930
 3842WAT     H211769   4.493   6.389   9.008
 3843WAT      O11770   1.658   5.262   6.697
 3843WAT     H111771   1.744   5.220   6.725
 3843WAT     H211772   1.635   5.232   6.604
 3844WAT      O11773   3.987   3.646   7.318
 3844WAT     H111774   4.070   3.619   7.269
 3844WAT     H211775   3.940   3.564   7.352
 3845WAT      O11776   0.265   0.872   0.628
 3845WAT     H111777   0.315   0.876   0.542
 3845WAT     H211778   0.288   0.951   0.684
 3846WAT      O11779   5.165   0.664   7.825
 3846WAT     H111780   5.122   0.574   7.819
 3846WAT     H211781   5.262   0.653   7.848
 3847WAT      O11782   2.809   2.496   4.607
 3847WAT     H111783   2.795   2.531   4.700
 3847WAT     H211784   2.866   2.560   4.555
 3848WAT      O11785   1.127   5.151   2.877
 3848WAT     H111786   1.086   5.073   2.829
 3848WAT     H211787   1.083   5.161   2.966
 3849WAT      O11788   4.463   6.141   4.918
 3849WAT     H111789   4.545   6.190   4.947
 3849WAT     H211790   4.468   6.122   4.820
 3850WAT      O11791   6.433   0.232   6.458
 3850WAT     H111792   6.367   0.279   6.516
 3850WAT     H211793   6.431   0.134   6.478
 3851WAT      O11794   5.038   2.542   2.199
 3851WAT     H111795   4.947   2.505   2.218
 3851WAT     H211796   5.100   2.467   2.177
 3852WAT      O11797   4.267   5.767   0.128
 3852WAT     H111798   4.366   5.755   0.135
 3852WAT     H211799   4.247   5.852   0.079
 3853WAT      O11800   6.732   4.216   6.650
 3853WAT     H111801   6.738   4.157   6.570
 3853WAT     H211802   6.665   4.288   6.633
 3854WAT      O11803   4.790   2.592   2.523
 3854WAT     H111804   4.720   2.599   2.594
 3854WAT     H211805   4.880   2.608   2.564
 3855WAT      O11806   5.051   1.905   4.459
 3855WAT     H111807   5.015   1.841   4.392
 3855WAT     H211808   5.015   1.997   4.440
 3856WAT      O11809   8.694   7.901   7.474
 3856WAT     H111810   8.693   7.986   7.423
 3856WAT     H211811   8.785   7.859   7.466
 3857WAT      O11812   3.421   2.411   2.165
 3857WAT     H111813   3.442   2.382   2.258
 3857WAT     H211814   3.344   2.357   2.130
 3858WAT      O11815   4.417   7.446   9.751
 3858WAT     H111816   4.359   7.374   9.712
 3858WAT     H211817   4.454   7.414   9.839
 3859WAT      O11818   0.188   2.767   3.848
 3859WAT     H111819   0.160   2.697   3.783
 3859WAT     H211820   0.202   2.854   3.800
 3860WAT      O11821   8.346   1.288   0.698
 3860WAT     H111822   8.406   1.345   0.641
 3860WAT     H211823   8.286   1.233   0.640
 3861WAT      O11824   1.117   7.267   9.568
 3861WAT     H111825   1.175   7.317   9.632
 3861WAT     H211826   1.060   7.331   9.517
 3862WAT      O11827   7.036   2.833   0.102
 3862WAT     H111828   7.055   2.791   0.191
 3862WAT     H211829   6.963   2.900   0.112
 3863WAT      O11830   5.518   4.175   1.092
 3863WAT     H111831   5.422   4.203   1.088
 3863WAT     H211832   5.571   4.243   1.142
 3864WAT      O11833   2.514   3.497   9.591
 3864WAT     H111834   2.497   3.452   9.679
 3864WAT     H211835   2.466   3.447   9.518
 3865WAT      O11836   0.303   3.748   7.251
 3865WAT     H111837   0.370   3.729   7.180
 3865WAT     H211838   0.339   3.817   7.313
 3866WAT      O11839   0.512   9.385   8.791
 3866WAT     H111840   0.532   9.361   8.696
 3866WAT     H211841   0.509   9.302   8.847
 3867WAT      O11842   4.577   5.688   9.489
 3867WAT     H111843   4.647   5.748   9.528
 3867WAT     H211844   4.518   5.654   9.562
 3868WAT      O11845   3.365   6.017   3.219
 3868WAT     H111846   3.440   6.042   3.159
 3868WAT     H211847   3.346   5.919   3.211
 3869WAT      O11848   2.210   4.282   6.510
 3869WAT     H111849   2.245   4.204   6.562
 3869WAT     H211850   2.285   4.346   6.492
 3870WAT      O11851   6.320   8.989   2.232
 3870WAT     H111852   6.258   9.064   2.210
 3870WAT     H211853   6.299   8.910   2.173
 3871WAT      O11854   5.344   8.993   2.820
 3871WAT     H111855   5.282   8.954   2.888
 3871WAT     H211856   5.300   8.994   2.730
 3872WAT      O11857   4.337   5.054   3.352
 3872WAT     H111858   4.428   5.012   3.352
 3872WAT     H211859   4.316   5.085   3.445
 3873WAT      O11860   0.729   1.120   6.449
 3873WAT     H111861   0.822   1.143   6.476
 3873WAT     H211862   0.728   1.033   6.401
 3874WAT      O11863   8.136   7.303   8.944
 3874WAT     H111864   8.175   7.318   8.853
 3874WAT     H211865   8.138   7.205   8.965
 3875WAT      O11866   9.665   6.854   8.966
 3875WAT     H111867   9.676   6.878   9.062
 3875WAT     H211868   9.586   6.903   8.928
 3876WAT      O11869   2.481   5.338   7.362
 3876WAT     H111870   2.423   5.417   7.347
 3876WAT     H211871   2.534   5.350   7.446
 3877WAT      O11872   4.607   3.218   8.284
 3877WAT     H111873   4.628   3.142   8.223
 3877WAT     H211874   4.528   3.268   8.249
 3878WAT      O11875   3.146   8.847   6.830
 3878WAT     H111876   3.125   8.910   6.756
 3878WAT     H211877   3.062   8.816   6.874
 3879WAT      O11878   2.485   7.693   3.136
 3879WAT     H111879   2.412   7.736   3.083
 3879WAT     H211880   2.503   7.748   3.218
 3880WAT      O11881   3.655   3.254   5.282
 3880WAT     H111882   3.623   3.280   5.191
 3880WAT     H211883   3.610   3.169   5.310
 3881WAT      O11884   4.939   1.387   6.275
 3881WAT     H111885   4.926   1.304   6.329
 3881WAT     H211886   4.931   1.467   6.334
 3882WAT      O11887   4.859   2.430   6.193
 3882WAT     H111888   4.833   2.521   6.161
 3882WAT     H211889   4.778   2.371   6.197
 3883WAT      O11890   4.622   4.044   6.592
 3883WAT     H111891   4.562   4.101   6.536
 3883WAT     H211892   4.588   3.950   6.591
 3884WAT      O11893   2.496   1.928   5.565
 3884WAT     H111894   2.569   1.898   5.504
 3884WAT     H211895   2.522   1.912   5.660
 3885WAT      O11896   9.675   6.146   4.770
 3885WAT     H111897   9.652   6.064   4.719
 3885WAT     H211898   9.693   6.221   4.706
 3886WAT      O11899   6.626   7.877   4.252
 3886WAT     H111900   6.673   7.796   4.285
 3886WAT     H211901   6.683   7.958   4.268
 3887WAT      O11902   3.945   0.236   1.092
 3887WAT     H111903   3.956   0.145   1.134
 3887WAT     H211904   3.868   0.234   1.029
 3888WAT      O11905   3.153   1.118   8.064
 3888WAT     H111906   3.112   1.208   8.056
 3888WAT     H211907   3.166   1.078   7.973
 3889WAT      O11908   6.337   6.654   2.557
 3889WAT     H111909   6.343   6.749   2.525
 3889WAT     H211910   6.380   6.593   2.490
 3890WAT      O11911   4.059   1.821   6.669
 3890WAT     H111912   4.089   1.854   6.580
 3890WAT     H211913   3.977   1.870   6.698
 3891WAT      O11914   1.081   4.331   1.211
 3891WAT     H111915   1.138   4.296   1.136
 3891WAT     H211916   0.990   4.355   1.176
 3892WAT      O11917   1.179   8.765   1.261
 3892WAT     H111918   1.219   8.856   1.256
 3892WAT     H211919   1.253   8.697   1.267
 3893WAT      O11920   3.001   7.458   3.166
 3893WAT     H111921   3.022   7.486   3.260
 3893WAT     H211922   2.928   7.515   3.129
 3894WAT      O11923   2.020   9.144   5.438
 3894WAT     H111924   1.978   9.063   5.398
 3894WAT     H211925   1.957   9.185   5.505
 3895WAT      O11926   7.246   9.745   5.976
 3895WAT     H111927   7.193   9.683   6.033
 3895WAT     H211928   7.285   9.695   5.899
 3896WAT      O11929   6.862   9.165   2.226
 3896WAT     H111930   6.894   9.243   2.281
 3896WAT     H211931   6.874   9.081   2.279
 3897WAT      O11932   0.860   7.738   7.809
 3897WAT     H111933   0.789   7.805   7.827
 3897WAT     H211934   0.829   7.648   7.840
 3898WAT      O11935   2.926   3.515   7.484
 3898WAT     H111936   2.999   3.450   7.504
 3898WAT     H211937   2.956   3.578   7.413
 3899WAT      O11938   0.998   3.322   3.483
 3899WAT     H111939   1.075   3.371   3.524
 3899WAT     H211940   0.985   3.234   3.530
 3900WAT      O11941   1.237   1.110   7.674
 3900WAT     H111942   1.201   1.018   7.683
 3900WAT     H211943   1.199   1.153   7.591
 3901WAT      O11944   9.571   1.891   8.306
 3901WAT     H111945   9.518   1.975   8.317
 3901WAT     H211946   9.592   1.853   8.397
 3902WAT      O11947   9.320   5.305   5.766
 3902WAT     H111948   9.303   5.225   5.708
 3902WAT     H211949   9.237   5.326   5.818
 3903WAT      O11950   3.497   7.146   1.938
 3903WAT     H111951   3.561   7.084   1.983
 3903WAT     H211952   3.404   7.120   1.961
 3904WAT      O11953   4.899   6.999   2.876
 3904WAT     H111954   4.853   6.945   2.947
 3904WAT     H211955   4.998   6.980   2.879
 3905WAT      O11956   4.113   6.106   9.292
 3905WAT     H111957   4.091   6.114   9.195
 3905WAT     H211958   4.197   6.157   9.312
 3906WAT      O11959   4.560   6.066   8.020
 3906WAT     H111960   4.574   5.968   8.036
 3906WAT     H211961   4.616   6.118   8.085
 3907WAT      O11962   9.746   5.427   2.451
 3907WAT     H111963   9.694   5.357   2.501
 3907WAT     H211964   9.833   5.388   2.421
 3908WAT      O11965   9.457   9.633   4.452
 3908WAT     H111966   9.518   9.699   4.408
 3908WAT     H211967   9.491   9.610   4.543
 3909WAT      O11968   7.289   8.272   8.192
 3909WAT     H111969   7.337   8.330   8.127
 3909WAT     H211970   7.269   8.324   8.275
 3910WAT      O11971   5.929   3.678   8.348
 3910WAT     H111972   6.021   3.682   8.388
 3910WAT     H211973   5.925   3.603   8.282
 3911WAT      O11974   8.492   1.827   2.337
 3911WAT     H111975   8.490   1.894   2.411
 3911WAT     H211976   8.544   1.747   2.366
 3912WAT      O11977   5.425   0.247   7.461
 3912WAT     H111978   5.505   0.200   7.423
 3912WAT     H211979   5.381   0.301   7.389
 3913WAT      O11980   3.167   0.118   3.246
 3913WAT     H111981   3.074   0.081   3.240
 3913WAT     H211982   3.225   0.052   3.295
 3914WAT      O11983   1.911   0.631   7.884
 3914WAT     H111984   1.896   0.716   7.835
 3914WAT     H211985   1.850   0.560   7.847
 3915WAT      O11986   9.233   3.798   3.178
 3915WAT     H111987   9.188   3.751   3.102
 3915WAT     H211988   9.293   3.734   3.226
 3916WAT      O11989   1.144   1.659   5.332
 3916WAT     H111990   1.196   1.742   5.314
 3916WAT     H211991   1.083   1.674   5.409
 3917WAT      O11992   2.506   3.729   3.385
 3917WAT     H111993   2.557   3.656   3.339
 3917WAT     H211994   2.565   3.773   3.453
 3918WAT      O11995   4.979   9.303   7.092
 3918WAT     H111996   5.079   9.309   7.097
 3918WAT     H211997   4.951   9.208   7.105
 3919WAT      O11998   0.664   7.234   0.154
 3919WAT     H111999   0.670   7.210   0.058
 3919WAT     H212000   0.628   7.327   0.163
 3920WAT      O12001   5.286   9.088   9.355
 3920WAT     H112002   5.338   9.012   9.393
 3920WAT     H212003   5.226   9.126   9.425
 3921WAT      O12004   1.708   3.713   4.897
 3921WAT     H112005   1.633   3.774   4.923
 3921WAT     H212006   1.677   3.649   4.827
 3922WAT      O12007   6.996   3.045   4.624
 3922WAT     H112008   7.070   3.112   4.631
 3922WAT     H212009   6.971   3.013   4.715
 3923WAT      O12010   2.097   3.921   9.074
 3923WAT     H112011   2.019   3.913   9.137
 3923WAT     H212012   2.080   3.864   8.994
 3924WAT      O12013   2.596   1.721   6.927
 3924WAT     H112014   2.605   1.800   6.866
 3924WAT     H212015   2.682   1.707   6.977
 3925WAT      O12016   9.607   1.400   9.239
 3925WAT     H112017   9.515   1.365   9.223
 3925WAT     H212018   9.654   1.343   9.307
 3926WAT      O12019   9.287   0.707   6.013
 3926WAT     H112020   9.382   0.726   5.990
 3926WAT     H212021   9.228   0.779   5.977
 3927WAT      O12022   9.651   3.801   5.043
 3927WAT     H112023   9.596   3.877   5.077
 3927WAT     H212024   9.675   3.818   4.947
 3928WAT      O12025   3.218   6.307   2.774
 3928WAT     H112026   3.124   6.315   2.740
 3928WAT     H212027   3.218   6.253   2.858
 3929WAT      O12028   4.180   5.102   1.360
 3929WAT     H112029   4.211   5.130   1.451
 3929WAT     H212030   4.232   5.152   1.291
 3930WAT      O12031   8.028   6.917   2.524
 3930WAT     H112032   8.095   6.972   2.573
 3930WAT     H212033   7.955   6.889   2.587
 3931WAT      O12034   7.455   7.932   8.903
 3931WAT     H112035   7.491   7.906   8.993
 3931WAT     H212036   7.356   7.922   8.903
 3932WAT      O12037   3.331   5.256   6.472
 3932WAT     H112038   3.425   5.273   6.499
 3932WAT     H212039   3.329   5.213   6.382
 3933WAT      O12040   6.118   3.295   4.140
 3933WAT     H112041   6.078   3.205   4.158
 3933WAT     H212042   6.216   3.286   4.125
 3934WAT      O12043   6.529   5.378   1.522
 3934WAT     H112044   6.511   5.380   1.620
 3934WAT     H212045   6.455   5.327   1.476
 3935WAT      O12046   7.437   4.665   0.992
 3935WAT     H112047   7.379   4.622   1.061
 3935WAT     H212048   7.398   4.649   0.901
 3936WAT      O12049   9.407   6.111   0.613
 3936WAT     H112050   9.494   6.145   0.577
 3936WAT     H212051   9.421   6.023   0.657
 3937WAT      O12052   9.486   3.126   7.566
 3937WAT     H112053   9.409   3.127   7.501
 3937WAT     H212054   9.460   3.175   7.649
 3938WAT      O12055   7.850   2.557   3.192
 3938WAT     H112056   7.873   2.652   3.169
 3938WAT     H212057   7.921   2.518   3.250
 3939WAT      O12058   1.694   3.878   6.779
 3939WAT     H112059   1.655   3.834   6.859
 3939WAT     H212060   1.623   3.931   6.732
 3940WAT      O12061   9.260   4.208   4.238
 3940WAT     H112062   9.339   4.155   4.206
 3940WAT     H212063   9.193   4.214   4.164
 3941WAT      O12064   2.540   5.497   1.711
 3941WAT     H112065   2.635   5.521   1.694
 3941WAT     H212066   2.480   5.562   1.663
 3942WAT      O12067   1.525   4.820   6.115
 3942WAT     H112068   1.577   4.899   6.150
 3942WAT     H212069   1.435   4.819   6.158
 3943WAT      O12070   1.780   9.671   4.822
 3943WAT     H112071   1.815   9.749   4.874
 3943WAT     H212072   1.775   9.591   4.882
 3944WAT      O12073   3.861   2.411   2.885
 3944WAT     H112074   3.919   2.491   2.869
 3944WAT     H212075   3.824   2.415   2.978
 3945WAT      O12076   4.342   2.433   0.659
 3945WAT     H112077   4.266   2.413   0.596
 3945WAT     H212078   4.364   2.530   0.655
 3946WAT      O12079   0.765   8.313   8.829
 3946WAT     H112080   0.735   8.391   8.775
 3946WAT     H212081   0.747   8.229   8.779
 3947WAT      O12082   4.873   0.890   7.078
 3947WAT     H112083   4.775   0.893   7.061
 3947WAT     H212084   4.902   0.795   7.090
 3948WAT      O12085   7.741   5.978   5.601
 3948WAT     H112086   7.730   6.066   5.646
 3948WAT     H212087   7.659   5.922   5.616
 3949WAT      O12088   2.217   6.866   8.935
 3949WAT     H112089   2.247   6.788   8.880
 3949WAT     H212090   2.191   6.941   8.875
 3950WAT      O12091   7.774   3.565   9.035
 3950WAT     H112092   7.811   3.658   9.035
 3950WAT     H212093   7.682   3.566   8.996
 3951WAT      O12094   8.992   4.681   1.944
 3951WAT     H112095   9.050   4.601   1.926
 3951WAT     H212096   9.037   4.739   2.013
 3952WAT      O12097   7.932   8.161   8.655
 3952WAT     H112098   7.898   8.254   8.674
 3952WAT     H212099   7.928   8.107   8.739
 3953WAT      O12100   5.470   2.179   2.975
 3953WAT     H112101   5.529   2.102   2.952
 3953WAT     H212102   5.388   2.147   3.022
 3954WAT      O12103   2.898   2.701   8.670
 3954WAT     H112104   2.967   2.656   8.613
 3954WAT     H212105   2.864   2.636   8.738
 3955WAT      O12106   8.973   5.569   9.185
 3955WAT     H112107   9.058   5.580   9.237
 3955WAT     H212108   8.906   5.520   9.240
 3956WAT      O12109   6.360   7.762   0.633
 3956WAT     H112110   6.367   7.749   0.534
 3956WAT     H212111   6.449   7.790   0.670
 3957WAT      O12112   6.030   6.435   0.897
 3957WAT     H112113   6.058   6.348   0.939
 3957WAT     H212114   5.967   6.483   0.959
 3958WAT      O12115   9.797   3.436   2.492
 3958WAT     H112116   9.875   3.390   2.536
 3958WAT     H212117   9.782   3.397   2.401
 3959WAT      O12118   0.795   6.820   2.555
 3959WAT     H112119   0.719   6.775   2.602
 3959WAT     H212120   0.869   6.755   2.540
 3960WAT      O12121   5.297   7.342   3.802
 3960WAT     H112122   5.279   7.345   3.901
 3960WAT     H212123   5.376   7.400   3.781
 3961WAT      O12124   8.688   0.497   0.018
 3961WAT     H112125   8.589   0.500   0.032
 3961WAT     H212126   8.711   0.419  -0.040
 3962WAT      O12127   8.302   4.192   3.309
 3962WAT     H112128   8.316   4.223   3.215
 3962WAT     H212129   8.390   4.162   3.347
 3963WAT      O12130   7.224   1.800   3.031
 3963WAT     H112131   7.193   1.893   3.052
 3963WAT     H212132   7.152   1.735   3.054
 3964WAT      O12133   5.394   1.665   2.604
 3964WAT     H112134   5.408   1.754   2.647
 3964WAT     H212135   5.414   1.672   2.506
 3965WAT      O12136   1.437   8.248   0.115
 3965WAT     H112137   1.472   8.318   0.053
 3965WAT     H212138   1.363   8.198   0.071
 3966WAT      O12139   5.284   2.398   5.869
 3966WAT     H112140   5.240   2.438   5.788
 3966WAT     H212141   5.215   2.380   5.938
 3967WAT      O12142   8.019   9.615   3.922
 3967WAT     H112143   7.982   9.523   3.936
 3967WAT     H212144   7.981   9.677   3.991
 3968WAT      O12145   2.796   6.672   9.694
 3968WAT     H112146   2.744   6.755   9.676
 3968WAT     H212147   2.893   6.692   9.691
 3969WAT      O12148   6.018   0.677   3.426
 3969WAT     H112149   6.054   0.656   3.336
 3969WAT     H212150   6.080   0.641   3.496
 3970WAT      O12151   1.235   5.841   1.012
 3970WAT     H112152   1.311   5.890   1.057
 3970WAT     H212153   1.193   5.778   1.077
 3971WAT      O12154   9.339   3.383   3.240
 3971WAT     H112155   9.427   3.429   3.233
 3971WAT     H212156   9.275   3.422   3.173
 3972WAT      O12157   5.093   3.426   4.327
 3972WAT     H112158   5.044   3.344   4.295
 3972WAT     H212159   5.163   3.399   4.392
 3973WAT      O12160   7.044   9.233   8.925
 3973WAT     H112161   7.129   9.188   8.953
 3973WAT     H212162   7.022   9.306   8.988
 3974WAT      O12163   9.812   0.443   5.220
 3974WAT     H112164   9.826   0.536   5.187
 3974WAT     H212165   9.715   0.430   5.241
 3975WAT      O12166   5.760   3.547   8.731
 3975WAT     H112167   5.751   3.576   8.636
 3975WAT     H212168   5.857   3.540   8.755
 3976WAT      O12169   1.075   7.485   4.284
 3976WAT     H112170   1.020   7.516   4.207
 3976WAT     H212171   1.109   7.564   4.335
 3977WAT      O12172   7.128   4.699   6.462
 3977WAT     H112173   7.070   4.675   6.541
 3977WAT     H212174   7.128   4.622   6.397
 3978WAT      O12175   6.821   5.955   9.037
 3978WAT     H112176   6.786   6.016   8.965
 3978WAT     H212177   6.744   5.911   9.083
 3979WAT      O12178   9.800   8.095   0.978
 3979WAT     H112179   9.816   8.020   1.044
 3979WAT     H212180   9.887   8.119   0.935
 3980WAT      O12181   5.719   8.093   7.688
 3980WAT     H112182   5.760   8.108   7.778
 3980WAT     H212183   5.777   8.030   7.636
 3981WAT      O12184   8.003   2.706   5.330
 3981WAT     H112185   7.971   2.788   5.377
 3981WAT     H212186   7.936   2.678   5.262
 3982WAT      O12187   4.276   0.608   8.243
 3982WAT     H112188   4.311   0.577   8.155
 3982WAT     H212189   4.353   0.634   8.302
 3983WAT      O12190   9.236   6.878   9.184
 3983WAT     H112191   9.330   6.900   9.210
 3983WAT     H212192   9.214   6.925   9.099
 3984WAT      O12193   7.759   3.029   3.011
 3984WAT     H112194   7.733   3.115   3.054
 3984WAT     H212195   7.709   2.954   3.055
 3985WAT      O12196   1.077   7.548   6.623
 3985WAT     H112197   1.163   7.533   6.672
 3985WAT     H212198   1.002   7.503   6.672
 3986WAT      O12199   7.186   2.343   9.682
 3986WAT     H112200   7.214   2.394   9.600
 3986WAT     H212201   7.267   2.304   9.726
 3987WAT      O12202   0.982   0.635   0.724
 3987WAT     H112203   0.979   0.637   0.624
 3987WAT     H212204   0.972   0.541   0.756
 3988WAT      O12205   9.104   7.097   2.493
 3988WAT     H112206   9.050   7.102   2.577
 3988WAT     H212207   9.201   7.091   2.515
 3989WAT      O12208   4.080   4.084   1.647
 3989WAT     H112209   4.019   4.005   1.645
 3989WAT     H212210   4.171   4.054   1.676
 3990WAT      O12211   9.337   0.562   5.253
 3990WAT     H112212   9.362   0.625   5.327
 3990WAT     H212213   9.412   0.498   5.237
 3991WAT      O12214   0.442   0.878   3.348
 3991WAT     H112215   0.349   0.877   3.310
 3991WAT     H212216   0.488   0.963   3.320
 3992WAT      O12217   4.822   3.051   8.939
 3992WAT     H112218   4.907   3.096   8.967
 3992WAT     H212219   4.748   3.077   9.002
 3993WAT      O12220   9.244   3.865   2.760
 3993WAT     H112221   9.214   3.957   2.735
 3993WAT     H212222   9.332   3.871   2.807
 3994WAT      O12223   0.927   7.818   2.373
 3994WAT     H112224   0.828   7.810   2.362
 3994WAT     H212225   0.962   7.888   2.310
 3995WAT      O12226   0.639   1.410   5.997
 3995WAT     H112227   0.639   1.312   5.980
 3995WAT     H212228   0.706   1.455   5.938
 3996WAT      O12229   8.292   8.588   9.685
 3996WAT     H112230   8.322   8.505   9.638
 3996WAT     H212231   8.328   8.589   9.778
 3997WAT      O12232   3.068   3.902   6.049
 3997WAT     H112233   3.150   3.954   6.026
 3997WAT     H212234   3.038   3.927   6.141
 3998WAT      O12235   5.955   3.840   3.519
 3998WAT     H112236   5.921   3.929   3.551
 3998WAT     H212237   5.993   3.850   3.427
 3999WAT      O12238   3.079   5.452   5.700
 3999WAT     H112239   3.157   5.481   5.645
 3999WAT     H212240   3.108   5.382   5.765
 4000WAT      O12241   9.141   9.261   2.450
 4000WAT     H112242   9.080   9.247   2.371
 4000WAT     H212243   9.087   9.264   2.534
 4001WAT      O12244   6.023   3.074   3.076
 4001WAT     H112245   5.982   2.994   3.120
 4001WAT     H212246   5.989   3.157   3.120
 4002WAT      O12247   4.717   9.290   5.581
 4002WAT     H112248   4.739   9.196   5.608
 4002WAT     H212249   4.688   9.342   5.661
 4003WAT      O12250   0.310   6.069   4.599
 4003WAT     H112251   0.378   6.032   4.663
 4003WAT     H212252   0.223   6.079   4.647
 4004WAT      O12253   9.001   1.640   0.082
 4004WAT     H112254   8.967   1.558   0.035
 4004WAT     H212255   9.080   1.676   0.032
 4005WAT      O12256   1.280   2.580   9.250
 4005WAT     H112257   1.216   2.592   9.174
 4005WAT     H212258   1.273   2.657   9.313
 4006WAT      O12259   3.392   6.871   1.723
 4006WAT     H112260   3.329   6.879   1.801
 4006WAT     H212261   3.425   6.777   1.716
 4007WAT      O12262   9.844   5.189   5.684
 4007WAT     H112263   9.901   5.270   5.694
 4007WAT     H212264   9.874   5.120   5.750
 4008WAT      O12265   2.191   1.623   1.617
 4008WAT     H112266   2.103   1.668   1.632
 4008WAT     H212267   2.192   1.581   1.527
 4009WAT      O12268   4.234   6.785   5.345
 4009WAT     H112269   4.159   6.798   5.409
 4009WAT     H212270   4.208   6.821   5.255
 4010WAT      O12271   0.163   5.863   0.247
 4010WAT     H112272   0.203   5.811   0.323
 4010WAT     H212273   0.063   5.853   0.248
 4011WAT      O12274   2.418   2.739   3.872
 4011WAT     H112275   2.477   2.658   3.869
 4011WAT     H212276   2.442   2.800   3.797
 4012WAT      O12277   0.233   7.806   9.467
 4012WAT     H112278   0.302   7.745   9.428
 4012WAT     H212279   0.222   7.785   9.564
 4013WAT      O12280   5.963   8.193   7.811
 4013WAT     H112281   6.017   8.247   7.876
 4013WAT     H212282   6.001   8.101   7.805
 4014WAT      O12283   9.804   2.098   1.625
 4014WAT     H112284   9.873   2.025   1.622
 4014WAT     H212285   9.724   2.070   1.572
 4015WAT      O12286   8.745   0.723   3.680
 4015WAT     H112287   8.827   0.698   3.730
 4015WAT     H212288   8.666   0.725   3.742
 4016WAT      O12289   8.716   5.939   1.482
 4016WAT     H112290   8.628   5.966   1.521
 4016WAT     H212291   8.727   5.840   1.491
 4017WAT      O12292   4.033   2.734   7.550
 4017WAT     H112293   4.048   2.831   7.567
 4017WAT     H212294   4.014   2.688   7.636
 4018WAT      O12295   8.601   5.108   1.131
 4018WAT     H112296   8.581   5.040   1.060
 4018WAT     H212297   8.532   5.102   1.203
 4019WAT      O12298   2.260   3.186   5.486
 4019WAT     H112299   2.220   3.096   5.506
 4019WAT     H212300   2.336   3.175   5.422
 4020WAT      O12301   7.099   7.510   0.037
 4020WAT     H112302   7.044   7.492   0.119
 4020WAT     H212303   7.074   7.599  -0.001
 4021WAT      O12304   9.143   7.262   9.148
 4021WAT     H112305   9.177   7.188   9.091
 4021WAT     H212306   9.075   7.226   9.212
 4022WAT      O12307   3.586   8.757   0.300
 4022WAT     H112308   3.653   8.685   0.316
 4022WAT     H212309   3.500   8.716   0.269
 4023WAT      O12310   4.735   6.628   8.831
 4023WAT     H112311   4.828   6.643   8.865
 4023WAT     H212312   4.671   6.684   8.884
 4024WAT      O12313   3.542   3.497   3.874
 4024WAT     H112314   3.529   3.414   3.927
 4024WAT     H212315   3.533   3.577   3.934
 4025WAT      O12316   0.974   3.059   9.218
 4025WAT     H112317   0.919   2.980   9.195
 4025WAT     H212318   1.022   3.092   9.136
 4026WAT      O12319   9.709   3.260   3.489
 4026WAT     H112320   9.652   3.297   3.563
 4026WAT     H212321   9.741   3.335   3.432
 4027WAT      O12322   8.825   5.607   9.558
 4027WAT     H112323   8.789   5.609   9.465
 4027WAT     H212324   8.910   5.660   9.562
 4028WAT      O12325   7.422   1.243   5.927
 4028WAT     H112326   7.324   1.227   5.920
 4028WAT     H212327   7.439   1.324   5.983
 4029WAT      O12328   1.261   3.931   1.949
 4029WAT     H112329   1.345   3.982   1.931
 4029WAT     H212330   1.269   3.839   1.911
 4030WAT      O12331   3.724   5.400   5.504
 4030WAT     H112332   3.743   5.324   5.566
 4030WAT     H212333   3.810   5.447   5.482
 4031WAT      O12334   9.811   8.362   5.901
 4031WAT     H112335   9.807   8.279   5.957
 4031WAT     H212336   9.732   8.363   5.839
 4032WAT      O12337   9.018   6.856   9.373
 4032WAT     H112338   8.929   6.821   9.342
 4032WAT     H212339   9.085   6.848   9.300
 4033WAT      O12340   4.438   2.717   0.700
 4033WAT     H112341   4.495   2.738   0.779
 4033WAT     H212342   4.370   2.790   0.688
 4034WAT      O12343   3.051   9.538   1.432
 4034WAT     H112344   3.011   9.608   1.491
 4034WAT     H212345   3.138   9.508   1.471
 4035WAT      O12346   4.190   3.575   2.369
 4035WAT     H112347   4.256   3.622   2.427
 4035WAT     H212348   4.098   3.612   2.385
 4036WAT      O12349   1.262   8.661   2.778
 4036WAT     H112350   1.182   8.652   2.719
 4036WAT     H212351   1.328   8.724   2.735
 4037WAT      O12352   8.558   6.765   0.569
 4037WAT     H112353   8.590   6.762   0.475
 4037WAT     H212354   8.588   6.850   0.612
 4038WAT      O12355   6.439   4.674   8.067
 4038WAT     H112356   6.438   4.702   7.971
 4038WAT     H212357   6.380   4.736   8.120
 4039WAT      O12358   1.722   5.595   3.806
 4039WAT     H112359   1.779   5.667   3.845
 4039WAT     H212360   1.669   5.552   3.878
 4040WAT      O12361   4.750   0.657   5.498
 4040WAT     H112362   4.704   0.687   5.414
 4040WAT     H212363   4.848   0.656   5.483
 4041WAT      O12364   1.189   8.491   4.244
 4041WAT     H112365   1.151   8.510   4.153
 4041WAT     H212366   1.123   8.437   4.297
 4042WAT      O12367   5.899   4.209   9.301
 4042WAT     H112368   5.998   4.222   9.301
 4042WAT     H212369   5.856   4.279   9.244
 4043WAT      O12370   4.590   2.745   1.073
 4043WAT     H112371   4.604   2.673   1.140
 4043WAT     H212372   4.531   2.816   1.110
 4044WAT      O12373   1.406   1.839   1.806
 4044WAT     H112374   1.455   1.830   1.719
 4044WAT     H212375   1.308   1.839   1.789
 4045WAT      O12376   0.193   5.212   0.081
 4045WAT     H112377   0.170   5.277   0.009
 4045WAT     H212378   0.262   5.252   0.142
 4046WAT      O12379   1.854   2.932   0.007
 4046WAT     H112380   1.923   2.949   0.078
 4046WAT     H212381   1.901   2.921  -0.081
 4047WAT      O12382   6.419   1.185   0.590
 4047WAT     H112383   6.488   1.254   0.612
 4047WAT     H212384   6.371   1.158   0.673
 4048WAT      O12385   8.462   1.219   9.409
 4048WAT     H112386   8.394   1.287   9.435
 4048WAT     H212387   8.418   1.145   9.358
 4049WAT      O12388   3.372   6.397   9.339
 4049WAT     H112389   3.298   6.454   9.376
 4049WAT     H212390   3.381   6.315   9.395
 4050WAT      O12391   7.959   0.845   2.205
 4050WAT     H112392   7.886   0.785   2.238
 4050WAT     H212393   7.923   0.938   2.194
 4051WAT      O12394   9.245   8.196   7.450
 4051WAT     H112395   9.196   8.114   7.423
 4051WAT     H212396   9.288   8.237   7.369
 4052WAT      O12397   7.584   1.032   6.295
 4052WAT     H112398   7.631   0.972   6.360
 4052WAT     H212399   7.626   1.023   6.204
 4053WAT      O12400   9.258   1.010   6.665
 4053WAT     H112401   9.268   1.034   6.568
 4053WAT     H212402   9.289   0.916   6.679
 4054WAT      O12403   8.689   4.891   6.039
 4054WAT     H112404   8.609   4.848   6.080
 4054WAT     H212405   8.767   4.880   6.101
 4055WAT      O12406   8.054   5.416   2.445
 4055WAT     H112407   8.109   5.390   2.525
 4055WAT     H212408   7.986   5.484   2.473
 4056WAT      O12409   7.843   0.043   1.398
 4056WAT     H112410   7.755  -0.003   1.396
 4056WAT     H212411   7.831   0.136   1.433
 4057WAT      O12412   2.179   1.324   8.781
 4057WAT     H112413   2.240   1.248   8.805
 4057WAT     H212414   2.130   1.355   8.863
 4058WAT      O12415   3.321   7.526   9.752
 4058WAT     H112416   3.376   7.582   9.690
 4058WAT     H212417   3.276   7.453   9.701
 4059WAT      O12418   3.202   5.893   2.370
 4059WAT     H112419   3.256   5.840   2.305
 4059WAT     H212420   3.135   5.833   2.414
 4060WAT      O12421   5.628   5.898   4.335
 4060WAT     H112422   5.593   5.984   4.299
 4060WAT     H212423   5.702   5.917   4.400
 4061WAT      O12424   6.972   5.927   6.351
 4061WAT     H112425   7.020   5.859   6.296
 4061WAT     H212426   6.983   6.017   6.309
 4062WAT      O12427   1.036   7.980   8.422
 4062WAT     H112428   0.979   8.049   8.468
 4062WAT     H212429   1.130   7.987   8.455
 4063WAT      O12430   6.367   1.689   6.919
 4063WAT     H112431   6.323   1.659   7.004
 4063WAT     H212432   6.423   1.614   6.883
 4064WAT      O12433   3.847   5.146   8.527
 4064WAT     H112434   3.757   5.134   8.486
 4064WAT     H212435   3.855   5.240   8.561
 4065WAT      O12436   2.304   4.497   6.211
 4065WAT     H112437   2.394   4.541   6.208
 4065WAT     H212438   2.316   4.398   6.220
 4066WAT      O12439   8.949   5.026   9.665
 4066WAT     H112440   8.873   4.979   9.709
 4066WAT     H212441   9.029   4.966   9.663
 4067WAT      O12442   4.327   0.712   9.849
 4067WAT     H112443   4.394   0.647   9.886
 4067WAT     H212444   4.319   0.700   9.750
 4068WAT      O12445   0.537   1.848   9.614
 4068WAT     H112446   0.543   1.926   9.552
 4068WAT     H212447   0.441   1.833   9.640
 4069WAT      O12448   7.073   8.989   2.379
 4069WAT     H112449   7.059   9.059   2.448
 4069WAT     H212450   6.999   8.921   2.385
 4070WAT      O12451   6.358   8.068   3.167
 4070WAT     H112452   6.395   8.128   3.237
 4070WAT     H212453   6.429   8.006   3.134
 4071WAT      O12454   2.953   2.169   1.575
 4071WAT     H112455   3.040   2.189   1.530
 4071WAT     H212456   2.963   2.087   1.631
 4072WAT      O12457   1.854   8.670   3.143
 4072WAT     H112458   1.900   8.622   3.218
 4072WAT     H212459   1.922   8.715   3.086
 4073WAT      O12460   7.317   7.017   0.930
 4073WAT     H112461   7.256   7.090   0.899
 4073WAT     H212462   7.267   6.958   0.995
 4074WAT      O12463   1.359   1.583   6.473
 4074WAT     H112464   1.325   1.530   6.395
 4074WAT     H212465   1.283   1.623   6.523
 4075WAT      O12466   7.256   0.800   2.922
 4075WAT     H112467   7.331   0.815   2.986
 4075WAT     H212468   7.235   0.702   2.918
 4076WAT      O12469   5.894   7.363   2.720
 4076WAT     H112470   5.887   7.411   2.633
 4076WAT     H212471   5.922   7.426   2.792
 4077WAT      O12472   9.325   5.660   7.075
 4077WAT     H112473   9.315   5.674   6.976
 4077WAT     H212474   9.349   5.746   7.118
 4078WAT      O12475   1.111   5.466   5.548
 4078WAT     H112476   1.017   5.455   5.518
 4078WAT     H212477   1.119   5.550   5.603
 4079WAT      O12478   6.418   8.952   8.695
 4079WAT     H112479   6.378   8.905   8.617
 4079WAT     H212480   6.378   8.916   8.779
 4080WAT      O12481   0.344   2.621   4.051
 4080WAT     H112482   0.280   2.670   3.991
 4080WAT     H212483   0.295   2.549   4.100
 4081WAT      O12484   0.175   0.313   8.178
 4081WAT     H112485   0.259   0.342   8.132
 4081WAT     H212486   0.174   0.214   8.186
 4082WAT      O12487   5.153   1.231   3.508
 4082WAT     H112488   5.188   1.155   3.562
 4082WAT     H212489   5.220   1.257   3.438
 4083WAT      O12490   8.276   1.045   6.309
 4083WAT     H112491   8.222   1.127   6.329
 4083WAT     H212492   8.319   1.012   6.392
 4084WAT      O12493   8.695   7.309   6.336
 4084WAT     H112494   8.708   7.271   6.244
 4084WAT     H212495   8.715   7.239   6.404
 4085WAT      O12496   7.364   1.614   7.246
 4085WAT     H112497   7.432   1.610   7.320
 4085WAT     H212498   7.274   1.588   7.282
 4086WAT      O12499   9.414   4.096   2.522
 4086WAT     H112500   9.493   4.151   2.550
 4086WAT     H212501   9.445   4.004   2.498
 4087WAT      O12502   6.722   7.055   8.010
 4087WAT     H112503   6.789   7.094   8.074
 4087WAT     H212504   6.683   6.972   8.049
 4088WAT      O12505   6.348   2.006   0.161
 4088WAT     H112506   6.258   1.983   0.198
 4088WAT     H212507   6.418   1.953   0.209
 4089WAT      O12508   1.205   5.514   4.406
 4089WAT     H112509   1.237   5.455   4.332
 4089WAT     H212510   1.257   5.599   4.406
 4090WAT      O12511   7.274   9.389   9.033
 4090WAT     H112512   7.294   9.335   9.115
 4090WAT     H212513   7.349   9.379   8.967
 4091WAT      O12514   6.445   7.202   3.069
 4091WAT     H112515   6.425   7.299   3.085
 4091WAT     H212516   6.490   7.192   2.980
 4092WAT      O12517   1.014   3.237   1.794
 4092WAT     H112518   1.000   3.139   1.779
 4092WAT     H212519   1.007   3.257   1.891
 4093WAT      O12520   2.017   6.739   4.044
 4093WAT     H112521   2.025   6.730   3.945
 4093WAT     H212522   2.091   6.688   4.088
 4094WAT      O12523   9.191   7.518   8.584
 4094WAT     H112524   9.139   7.551   8.505
 4094WAT     H212525   9.198   7.591   8.651
 4095WAT      O12526   3.299   2.131   2.656
 4095WAT     H112527   3.238   2.172   2.587
 4095WAT     H212528   3.377   2.089   2.610
 4096WAT      O12529   3.678   8.046   6.318
 4096WAT     H112530   3.776   8.027   6.328
 4096WAT     H212531   3.632   8.029   6.405
 4097WAT      O12532   9.031   7.274   4.860
 4097WAT     H112533   9.118   7.312   4.890
 4097WAT     H212534   9.020   7.288   4.762
 4098WAT      O12535   5.609   1.787   2.021
 4098WAT     H112536   5.544   1.853   2.059
 4098WAT     H212537   5.581   1.762   1.928
 4099WAT      O12538   7.217   6.012   1.347
 4099WAT     H112539   7.218   6.061   1.259
 4099WAT     H212540   7.312   5.995   1.376
 4100WAT      O12541   1.868   3.050   2.234
 4100WAT     H112542   1.819   3.027   2.150
 4100WAT     H212543   1.814   3.020   2.313
 4101WAT      O12544   6.394   9.214   5.048
 4101WAT     H112545   6.467   9.208   5.115
 4101WAT     H212546   6.378   9.310   5.024
 4102WAT      O12547   4.302   1.387   7.601
 4102WAT     H112548   4.360   1.351   7.528
 4102WAT     H212549   4.207   1.390   7.570
 4103WAT      O12550   4.239   8.468   4.864
 4103WAT     H112551   4.140   8.478   4.873
 4103WAT     H212552   4.284   8.514   4.940
 4104WAT      O12553   4.908   5.936   7.282
 4104WAT     H112554   4.856   6.013   7.245
 4104WAT     H212555   4.880   5.919   7.376
 4105WAT      O12556   0.843   8.310   0.633
 4105WAT     H112557   0.910   8.271   0.697
 4105WAT     H212558   0.829   8.406   0.654
 4106WAT      O12559   9.615   4.163   8.835
 4106WAT     H112560   9.653   4.104   8.906
 4106WAT     H212561   9.690   4.213   8.791
 4107WAT      O12562   3.994   3.426   1.444
 4107WAT     H112563   4.071   3.416   1.507
 4107WAT     H212564   3.926   3.488   1.484
 4108WAT      O12565   7.239   3.168   4.675
 4108WAT     H112566   7.288   3.092   4.718
 4108WAT     H212567   7.241   3.247   4.735
 4109WAT      O12568   6.464   1.057   4.003
 4109WAT     H112569   6.545   1.011   4.040
 4109WAT     H212570   6.387   0.993   4.001
 4110WAT      O12571   7.179   5.694   1.237
 4110WAT     H112572   7.256   5.633   1.254
 4110WAT     H212573   7.207   5.789   1.253
 4111WAT      O12574   7.354   4.870   0.530
 4111WAT     H112575   7.311   4.849   0.442
 4111WAT     H212576   7.385   4.965   0.530
 4112WAT      O12577   2.414   5.676   0.024
 4112WAT     H112578   2.454   5.696   0.114
 4112WAT     H212579   2.484   5.635  -0.034
 4113WAT      O12580   0.848   0.113   4.590
 4113WAT     H112581   0.774   0.046   4.589
 4113WAT     H212582   0.809   0.205   4.592
 4114WAT      O12583   1.136   1.025   7.983
 4114WAT     H112584   1.231   1.037   8.014
 4114WAT     H212585   1.136   0.973   7.898
 4115WAT      O12586   9.566   5.426   7.654
 4115WAT     H112587   9.522   5.352   7.705
 4115WAT     H212588   9.644   5.461   7.706
 4116WAT      O12589   4.148   3.265   8.935
 4116WAT     H112590   4.073   3.244   8.872
 4116WAT     H212591   4.178   3.359   8.922
 4117WAT      O12592   2.711   5.077   3.664
 4117WAT     H112593   2.635   5.086   3.729
 4117WAT     H212594   2.772   5.005   3.694
 4118WAT      O12595   8.596   8.924   9.217
 4118WAT     H112596   8.557   8.833   9.204
 4118WAT     H212597   8.606   8.968   9.128
 4119WAT      O12598   7.830   3.625   4.866
 4119WAT     H112599   7.804   3.701   4.806
 4119WAT     H212600   7.922   3.594   4.843
 4120WAT      O12601   9.365   9.079   1.857
 4120WAT     H112602   9.444   9.123   1.815
 4120WAT     H212603   9.396   9.011   1.924
 4121WAT      O12604   2.225   7.989   0.696
 4121WAT     H112605   2.154   7.974   0.628
 4121WAT     H212606   2.292   8.055   0.661
 4122WAT      O12607   7.057   4.515   6.282
 4122WAT     H112608   7.059   4.568   6.197
 4122WAT     H212609   6.964   4.512   6.317
 4123WAT      O12610   2.821   7.423   0.419
 4123WAT     H112611   2.846   7.338   0.371
 4123WAT     H212612   2.723   7.423   0.436
 4124WAT      O12613   4.013   1.765   1.108
 4124WAT     H112614   4.100   1.716   1.107
 4124WAT     H212615   3.940   1.704   1.081
 4125WAT      O12616   3.342   3.013   2.308
 4125WAT     H112617   3.355   3.027   2.406
 4125WAT     H212618   3.422   2.966   2.270
 4126WAT      O12619   4.524   3.197   4.585
 4126WAT     H112620   4.494   3.216   4.491
 4126WAT     H212621   4.567   3.279   4.623
 4127WAT      O12622   0.359   3.560   2.204
 4127WAT     H112623   0.308   3.519   2.129
 4127WAT     H212624   0.420   3.492   2.244
 4128WAT      O12625   9.235   6.368   9.166
 4128WAT     H112626   9.227   6.331   9.259
 4128WAT     H212627   9.313   6.327   9.120
 4129WAT      O12628   2.356   4.524   5.795
 4129WAT     H112629   2.286   4.588   5.826
 4129WAT     H212630   2.351   4.440   5.849
 4130WAT      O12631   8.387   0.245   8.699
 4130WAT     H112632   8.350   0.254   8.791
 4130WAT     H212633   8.423   0.333   8.669
 4131WAT      O12634   5.850   4.101   3.882
 4131WAT     H112635   5.854   4.160   3.962
 4131WAT     H212636   5.807   4.014   3.907
 4132WAT      O12637   0.368   7.386   1.344
 4132WAT     H112638   0.452   7.439   1.333
 4132WAT     H212639   0.292   7.447   1.364
 4133WAT      O12640   4.121   2.479   6.137
 4133WAT     H112641   4.087   2.453   6.228
 4133WAT     H212642   4.056   2.448   6.067
 4134WAT      O12643   7.744   6.707   5.276
 4134WAT     H112644   7.685   6.633   5.310
 4134WAT     H212645   7.792   6.677   5.193
 4135WAT      O12646   8.215   7.371   6.622
 4135WAT     H112647   8.265   7.444   6.576
 4135WAT     H212648   8.259   7.350   6.709
 4136WAT      O12649   3.633   6.360   1.472
 4136WAT     H112650   3.705   6.419   1.508
 4136WAT     H212651   3.585   6.316   1.548
 4137WAT      O12652   5.589   0.806   3.141
 4137WAT     H112653   5.513   0.833   3.082
 4137WAT     H212654   5.582   0.853   3.229
 4138WAT      O12655   6.817   5.696   2.107
 4138WAT     H112656   6.898   5.639   2.091
 4138WAT     H212657   6.737   5.649   2.071
 4139WAT      O12658   1.393   6.081   6.497
 4139WAT     H112659   1.331   6.150   6.536
 4139WAT     H212660   1.437   6.030   6.571
 4140WAT      O12661   7.095   1.741   8.611
 4140WAT     H112662   7.079   1.791   8.526
 4140WAT     H212663   7.029   1.667   8.619
 4141WAT      O12664   8.872   5.666   8.971
 4141WAT     H112665   8.861   5.595   8.901
 4141WAT     H212666   8.933   5.633   9.043
 4142WAT      O12667   7.887   2.633   7.627
 4142WAT     H112668   7.810   2.602   7.683
 4142WAT     H212669   7.958   2.672   7.686
 4143WAT      O12670   6.834   3.849   8.434
 4143WAT     H112671   6.803   3.755   8.450
 4143WAT     H212672   6.755   3.911   8.438
 4144WAT      O12673   3.639   1.835   2.322
 4144WAT     H112674   3.613   1.929   2.300
 4144WAT     H212675   3.739   1.827   2.325
 4145WAT      O12676   2.168   0.200   5.168
 4145WAT     H112677   2.237   0.226   5.101
 4145WAT     H212678   2.209   0.199   5.260
 4146WAT      O12679   7.855   2.361   5.739
 4146WAT     H112680   7.871   2.293   5.810
 4146WAT     H212681   7.792   2.431   5.774
 4147WAT      O12682   6.971   4.697   5.072
 4147WAT     H112683   6.980   4.764   5.145
 4147WAT     H212684   7.056   4.691   5.021
 4148WAT      O12685   7.745   3.440   8.091
 4148WAT     H112686   7.725   3.505   8.164
 4148WAT     H212687   7.670   3.438   8.025
 4149WAT      O12688   6.254   5.644   7.648
 4149WAT     H112689   6.212   5.668   7.560
 4149WAT     H212690   6.210   5.562   7.684
 4150WAT      O12691   5.279   2.880   4.905
 4150WAT     H112692   5.254   2.976   4.892
 4150WAT     H212693   5.348   2.873   4.976
 4151WAT      O12694   2.165   5.298   5.490
 4151WAT     H112695   2.123   5.337   5.408
 4151WAT     H212696   2.201   5.207   5.470
 4152WAT      O12697   0.437   8.618   7.295
 4152WAT     H112698   0.368   8.565   7.244
 4152WAT     H212699   0.525   8.613   7.248
 4153WAT      O12700   4.643   0.559   8.088
 4153WAT     H112701   4.702   0.519   8.158
 4153WAT     H212702   4.694   0.630   8.039
 4154WAT      O12703   9.278   2.504   1.673
 4154WAT     H112704   9.300   2.447   1.594
 4154WAT     H212705   9.291   2.600   1.649
 4155WAT      O12706   2.658   3.498   6.682
 4155WAT     H112707   2.634   3.465   6.590
 4155WAT     H212708   2.607   3.444   6.750
 4156WAT      O12709   7.275   5.443   1.997
 4156WAT     H112710   7.276   5.377   2.072
 4156WAT     H212711   7.335   5.411   1.923
 4157WAT      O12712   7.224   3.601   6.077
 4157WAT     H112713   7.200   3.618   6.173
 4157WAT     H212714   7.262   3.684   6.037
 4158WAT      O12715   5.311   9.088   2.193
 4158WAT     H112716   5.249   9.052   2.123
 4158WAT     H212717   5.259   9.146   2.256
 4159WAT      O12718   3.876   0.805   3.117
 4159WAT     H112719   3.841   0.800   3.023
 4159WAT     H212720   3.834   0.734   3.172
 4160WAT      O12721   8.460   3.738   1.947
 4160WAT     H112722   8.538   3.678   1.934
 4160WAT     H212723   8.432   3.775   1.858
 4161WAT      O12724   7.303   7.501   3.680
 4161WAT     H112725   7.309   7.599   3.699
 4161WAT     H212726   7.297   7.450   3.766
 4162WAT      O12727   2.403   8.507   8.140
 4162WAT     H112728   2.453   8.454   8.072
 4162WAT     H212729   2.343   8.447   8.192
 4163WAT      O12730   6.568   3.451   8.147
 4163WAT     H112731   6.576   3.548   8.170
 4163WAT     H212732   6.505   3.440   8.070
 4164WAT      O12733   5.647   0.322   8.040
 4164WAT     H112734   5.576   0.276   8.093
 4164WAT     H212735   5.653   0.281   7.949
 4165WAT      O12736   9.785   6.890   7.423
 4165WAT     H112737   9.773   6.800   7.382
 4165WAT     H212738   9.872   6.929   7.392
 4166WAT      O12739   6.216   9.548   7.007
 4166WAT     H112740   6.167   9.543   6.921
 4166WAT     H212741   6.315   9.549   6.989
 4167WAT      O12742   2.272   3.063   8.167
 4167WAT     H112743   2.196   3.059   8.102
 4167WAT     H212744   2.287   2.971   8.205
 4168WAT      O12745   1.111   9.551   0.413
 4168WAT     H112746   1.204   9.589   0.419
 4168WAT     H212747   1.088   9.535   0.317
 4169WAT      O12748   8.310   8.668   5.636
 4169WAT     H112749   8.404   8.684   5.667
 4169WAT     H212750   8.272   8.753   5.600
 4170WAT      O12751   1.038   2.690   9.528
 4170WAT     H112752   1.036   2.782   9.490
 4170WAT     H212753   1.133   2.660   9.539
 4171WAT      O12754   5.852   1.463   7.360
 4171WAT     H112755   5.881   1.532   7.294
 4171WAT     H212756   5.794   1.395   7.314
 4172WAT      O12757   7.606   0.734   8.708
 4172WAT     H112758   7.523   0.713   8.759
 4172WAT     H212759   7.583   0.749   8.612
 4173WAT      O12760   8.608   6.466   1.048
 4173WAT     H112761   8.534   6.462   0.981
 4173WAT     H212762   8.696   6.457   1.000
 4174WAT      O12763   2.646   3.345   4.751
 4174WAT     H112764   2.721   3.395   4.709
 4174WAT     H212765   2.608   3.280   4.685
 4175WAT      O12766   7.208   0.610   7.415
 4175WAT     H112767   7.127   0.552   7.415
 4175WAT     H212768   7.182   0.703   7.389
 4176WAT      O12769   9.082   2.289   6.079
 4176WAT     H112770   9.022   2.328   6.149
 4176WAT     H212771   9.062   2.333   5.991
 4177WAT      O12772   3.095   6.759   6.857
 4177WAT     H112773   3.189   6.753   6.890
 4177WAT     H212774   3.092   6.816   6.775
 4178WAT      O12775   7.013   3.383   3.143
 4178WAT     H112776   7.020   3.314   3.071
 4178WAT     H212777   7.105   3.407   3.175
 4179WAT      O12778   6.068   3.039   1.624
 4179WAT     H112779   6.021   3.021   1.537
 4179WAT     H212780   6.003   3.075   1.690
 4180WAT      O12781   6.971   9.762   2.262
 4180WAT     H112782   7.064   9.729   2.244
 4180WAT     H212783   6.954   9.758   2.360
 4181WAT      O12784   5.644   4.584   2.313
 4181WAT     H112785   5.633   4.509   2.248
 4181WAT     H212786   5.632   4.550   2.406
 4182WAT      O12787   0.592   3.607   7.871
 4182WAT     H112788   0.683   3.596   7.833
 4182WAT     H212789   0.544   3.680   7.823
 4183WAT      O12790   6.723   1.788   1.806
 4183WAT     H112791   6.746   1.694   1.781
 4183WAT     H212792   6.794   1.826   1.865
 4184WAT      O12793   2.150   5.015   4.920
 4184WAT     H112794   2.107   4.933   4.882
 4184WAT     H212795   2.155   5.086   4.849
 4185WAT      O12796   7.841   7.449   4.367
 4185WAT     H112797   7.756   7.500   4.351
 4185WAT     H212798   7.913   7.485   4.308
 4186WAT      O12799   1.634   5.747   4.979
 4186WAT     H112800   1.573   5.803   5.035
 4186WAT     H212801   1.729   5.770   4.999
 4187WAT      O12802   1.786   2.939   2.506
 4187WAT     H112803   1.876   2.961   2.544
 4187WAT     H212804   1.786   2.845   2.474
 4188WAT      O12805   0.076   9.698   4.345
 4188WAT     H112806   0.169   9.663   4.334
 4188WAT     H212807   0.037   9.666   4.431
 4189WAT      O12808   1.615   7.672   2.799
 4189WAT     H112809   1.557   7.672   2.717
 4189WAT     H212810   1.653   7.580   2.812
 4190WAT      O12811   8.660   5.054   2.411
 4190WAT     H112812   8.654   5.005   2.324
 4190WAT     H212813   8.723   5.131   2.401
 4191WAT      O12814   2.103   2.071   8.018
 4191WAT     H112815   2.161   1.994   7.991
 4191WAT     H212816   2.137   2.110   8.103
 4192WAT      O12817   8.003   1.386   2.487
 4192WAT     H112818   8.082   1.332   2.515
 4192WAT     H212819   8.032   1.480   2.467
 4193WAT      O12820   8.956   7.711   6.884
 4193WAT     H112821   8.944   7.618   6.920
 4193WAT     H212822   9.034   7.713   6.822
 4194WAT      O12823   2.730   7.294   2.951
 4194WAT     H112824   2.730   7.272   2.854
 4194WAT     H212825   2.794   7.233   2.999
 4195WAT      O12826   4.451   4.648   0.678
 4195WAT     H112827   4.517   4.607   0.615
 4195WAT     H212828   4.490   4.731   0.718
 4196WAT      O12829   9.406   8.959   9.891
 4196WAT     H112830   9.366   8.909   9.815
 4196WAT     H212831   9.476   8.902   9.935
 4197WAT      O12832   7.892   5.436   3.827
 4197WAT     H112833   7.900   5.501   3.752
 4197WAT     H212834   7.931   5.348   3.798
 4198WAT      O12835   4.980   9.715   5.344
 4198WAT     H112836   4.945   9.806   5.322
 4198WAT     H212837   4.904   9.651   5.351
 4199WAT      O12838   4.375   0.517   1.875
 4199WAT     H112839   4.443   0.464   1.825
 4199WAT     H212840   4.374   0.488   1.971
 4200WAT      O12841   2.326   5.701   6.591
 4200WAT     H112842   2.290   5.762   6.662
 4200WAT     H212843   2.253   5.678   6.526
 4201WAT      O12844   9.845   1.568   5.364
 4201WAT     H112845   9.904   1.576   5.445
 4201WAT     H212846   9.829   1.659   5.326
 4202WAT      O12847   8.274   5.355   4.107
 4202WAT     H112848   8.229   5.271   4.140
 4202WAT     H212849   8.322   5.399   4.183
 4203WAT      O12850   9.723   9.345   4.937
 4203WAT     H112851   9.802   9.331   4.877
 4203WAT     H212852   9.677   9.258   4.953
 4204WAT      O12853   1.577   3.248   2.442
 4204WAT     H112854   1.574   3.163   2.493
 4204WAT     H212855   1.489   3.295   2.449
 4205WAT      O12856   2.237   8.716   5.875
 4205WAT     H112857   2.206   8.661   5.952
 4205WAT     H212858   2.263   8.657   5.798
 4206WAT      O12859   4.046   3.263   7.209
 4206WAT     H112860   3.984   3.295   7.281
 4206WAT     H212861   4.064   3.166   7.222
 4207WAT      O12862   6.346   8.686   8.229
 4207WAT     H112863   6.394   8.773   8.242
 4207WAT     H212864   6.342   8.664   8.132
 4208WAT      O12865   1.442   5.877   3.200
 4208WAT     H112866   1.438   5.804   3.269
 4208WAT     H212867   1.351   5.889   3.160
 4209WAT      O12868   0.147   6.170   0.815
 4209WAT     H112869   0.234   6.121   0.805
 4209WAT     H212870   0.084   6.140   0.744
 4210WAT      O12871   4.613   6.218   8.253
 4210WAT     H112872   4.693   6.272   8.279
 4210WAT     H212873   4.590   6.153   8.326
 4211WAT      O12874   2.258   5.882   9.799
 4211WAT     H112875   2.308   5.801   9.829
 4211WAT     H212876   2.312   5.930   9.729
 4212WAT      O12877   5.819   0.496   3.507
 4212WAT     H112878   5.816   0.502   3.607
 4212WAT     H212879   5.879   0.567   3.472
 4213WAT      O12880   0.082   7.312   4.769
 4213WAT     H112881   0.109   7.239   4.831
 4213WAT     H212882   0.041   7.273   4.687
 4214WAT      O12883   5.848   8.510   4.560
 4214WAT     H112884   5.760   8.508   4.513
 4214WAT     H212885   5.898   8.593   4.533
 4215WAT      O12886   6.041   2.849   2.426
 4215WAT     H112887   6.136   2.874   2.444
 4215WAT     H212888   6.034   2.809   2.334
 4216WAT      O12889   3.617   7.954   2.516
 4216WAT     H112890   3.633   8.025   2.448
 4216WAT     H212891   3.582   7.872   2.471
 4217WAT      O12892   6.245   3.684   3.688
 4217WAT     H112893   6.288   3.740   3.617
 4217WAT     H212894   6.170   3.735   3.730
 4218WAT      O12895   0.020   2.447   3.188
 4218WAT     H112896   0.115   2.418   3.176
 4218WAT     H212897  -0.040   2.368   3.183
 4219WAT      O12898   7.590   6.936   9.462
 4219WAT     H112899   7.589   7.025   9.417
 4219WAT     H212900   7.596   6.864   9.392
 4220WAT      O12901   6.285   7.620   6.506
 4220WAT     H112902   6.371   7.646   6.462
 4220WAT     H212903   6.241   7.548   6.454
 4221WAT      O12904   8.695   2.941   1.987
 4221WAT     H112905   8.719   2.935   2.084
 4221WAT     H212906   8.610   2.993   1.976
 4222WAT      O12907   4.303   6.523   3.312
 4222WAT     H112908   4.252   6.609   3.307
 4222WAT     H212909   4.396   6.541   3.345
 4223WAT      O12910   3.329   1.968   3.361
 4223WAT     H112911   3.328   2.048   3.421
 4223WAT     H212912   3.362   1.888   3.411
 4224WAT      O12913   5.810   3.711   1.247
 4224WAT     H112914   5.722   3.707   1.201
 4224WAT     H212915   5.881   3.672   1.188
 4225WAT      O12916   6.904   7.944   3.994
 4225WAT     H112917   6.873   7.855   4.028
 4225WAT     H212918   6.827   8.008   3.993
 4226WAT      O12919   8.136   5.955   3.149
 4226WAT     H112920   8.055   5.896   3.144
 4226WAT     H212921   8.194   5.924   3.225
 4227WAT      O12922   4.588   4.235   0.797
 4227WAT     H112923   4.637   4.299   0.737
 4227WAT     H212924   4.546   4.286   0.873
 4228WAT      O12925   0.228   1.827   2.347
 4228WAT     H112926   0.280   1.822   2.433
 4228WAT     H212927   0.143   1.877   2.362
 4229WAT      O12928   8.705   8.541   6.332
 4229WAT     H112929   8.756   8.624   6.353
 4229WAT     H212930   8.749   8.463   6.375
 4230WAT      O12931   3.564   8.851   2.769
 4230WAT     H112932   3.493   8.905   2.723
 4230WAT     H212933   3.653   8.872   2.729
 4231WAT      O12934   2.799   6.963   2.314
 4231WAT     H112935   2.847   7.025   2.252
 4231WAT     H212936   2.733   6.909   2.261
 4232WAT      O12937   7.926   6.695   4.401
 4232WAT     H112938   7.864   6.768   4.429
 4232WAT     H212939   8.000   6.687   4.467
 4233WAT      O12940   0.770   0.749   8.259
 4233WAT     H112941   0.726   0.662   8.241
 4233WAT     H212942   0.835   0.770   8.185
 4234WAT      O12943   3.591   5.720   1.434
 4234WAT     H112944   3.534   5.653   1.387
 4234WAT     H212945   3.684   5.715   1.400
 4235WAT      O12946   9.592   6.067   3.056
 4235WAT     H112947   9.606   6.129   2.979
 4235WAT     H212948   9.679   6.051   3.103
 4236WAT      O12949   8.629   3.502   5.775
 4236WAT     H112950   8.546   3.557   5.782
 4236WAT     H212951   8.646   3.479   5.679
 4237WAT      O12952   7.515   0.012   3.293
 4237WAT     H112953   7.592  -0.051   3.284
 4237WAT     H212954   7.524   0.063   3.379
 4238WAT      O12955   4.637   1.427   0.091
 4238WAT     H112956   4.560   1.413   0.152
 4238WAT     H212957   4.722   1.398   0.136
 4239WAT      O12958   6.004   8.155   1.697
 4239WAT     H112959   5.951   8.190   1.620
 4239WAT     H212960   5.942   8.121   1.768
 4240WAT      O12961   6.825   3.275   0.287
 4240WAT     H112962   6.842   3.246   0.193
 4240WAT     H212963   6.741   3.330   0.289
 4241WAT      O12964   5.967   0.219   8.567
 4241WAT     H112965   6.048   0.231   8.625
 4241WAT     H212966   5.914   0.303   8.567
 4242WAT      O12967   2.310   0.634   6.212
 4242WAT     H112968   2.325   0.704   6.142
 4242WAT     H212969   2.364   0.552   6.188
 4243WAT      O12970   2.133   6.188   2.868
 4243WAT     H112971   2.091   6.125   2.933
 4243WAT     H212972   2.065   6.216   2.800
 4244WAT      O12973   6.406   1.449   8.159
 4244WAT     H112974   6.441   1.504   8.235
 4244WAT     H212975   6.338   1.384   8.193
 4245WAT      O12976   3.679   0.268   8.381
 4245WAT     H112977   3.769   0.298   8.411
 4245WAT     H212978   3.622   0.248   8.462
 4246WAT      O12979   0.579   4.941   5.457
 4246WAT     H112980   0.498   4.989   5.490
 4246WAT     H212981   0.653   4.951   5.524
 4247WAT      O12982   3.321   2.219   9.316
 4247WAT     H112983   3.334   2.192   9.221
 4247WAT     H212984   3.388   2.290   9.339
 4248WAT      O12985   3.986   8.944   1.198
 4248WAT     H112986   3.986   8.924   1.296
 4248WAT     H212987   4.080   8.944   1.164
 4249WAT      O12988   4.132   9.257   8.285
 4249WAT     H112989   4.092   9.309   8.210
 4249WAT     H212990   4.231   9.249   8.270
 4250WAT      O12991   0.407   8.192   9.310
 4250WAT     H112992   0.475   8.124   9.279
 4250WAT     H212993   0.344   8.148   9.375
 4251WAT      O12994   1.443   6.770   8.033
 4251WAT     H112995   1.368   6.815   8.082
 4251WAT     H212996   1.508   6.839   8.001
 4252WAT      O12997   1.851   5.936   2.430
 4252WAT     H112998   1.815   6.020   2.470
 4252WAT     H212999   1.930   5.958   2.372
 4253WAT      O13000   5.587   8.471   4.670
 4253WAT     H113001   5.684   8.465   4.695
 4253WAT     H213002   5.576   8.453   4.572
 4254WAT      O13003   7.326   7.877   0.231
 4254WAT     H113004   7.363   7.837   0.315
 4254WAT     H213005   7.245   7.931   0.252
 4255WAT      O13006   4.000   0.585   8.787
 4255WAT     H113007   3.975   0.617   8.878
 4255WAT     H213008   4.078   0.523   8.794
 4256WAT      O13009   7.880   5.968   8.087
 4256WAT     H113010   7.882   6.023   8.170
 4256WAT     H213011   7.890   6.028   8.007
 4257WAT      O13012   6.561   4.103   1.521
 4257WAT     H113013   6.555   4.008   1.551
 4257WAT     H213014   6.499   4.118   1.444
 4258WAT      O13015   5.790   5.521   2.680
 4258WAT     H113016   5.757   5.454   2.746
 4258WAT     H213017   5.759   5.612   2.706
 4259WAT      O13018   8.198   9.632   7.711
 4259WAT     H113019   8.136   9.564   7.749
 4259WAT     H213020   8.182   9.720   7.754
 4260WAT      O13021   2.923   6.093   8.518
 4260WAT     H113022   3.002   6.042   8.483
 4260WAT     H213023   2.903   6.170   8.458
 4261WAT      O13024   4.781   3.931   7.353
 4261WAT     H113025   4.783   3.950   7.452
 4261WAT     H213026   4.701   3.875   7.332
 4262WAT      O13027   3.143   2.600   8.136
 4262WAT     H113028   3.053   2.577   8.173
 4262WAT     H213029   3.134   2.674   8.069
 4263WAT      O13030   6.137   2.521   2.022
 4263WAT     H113031   6.169   2.614   2.042
 4263WAT     H213032   6.186   2.485   1.943
 4264WAT      O13033   7.859   0.149   6.100
 4264WAT     H113034   7.767   0.150   6.140
 4264WAT     H213035   7.892   0.055   6.098
 4265WAT      O13036   3.353   5.583   0.310
 4265WAT     H113037   3.293   5.522   0.258
 4265WAT     H213038   3.305   5.617   0.390
 4266WAT      O13039   8.478   0.642   3.413
 4266WAT     H113040   8.563   0.654   3.362
 4266WAT     H213041   8.498   0.624   3.509
 4267WAT      O13042   2.533   9.826   5.508
 4267WAT     H113043   2.565   9.919   5.525
 4267WAT     H213044   2.464   9.827   5.436
 4268WAT      O13045   3.975   5.063   9.638
 4268WAT     H113046   3.876   5.074   9.633
 4268WAT     H213047   4.016   5.084   9.550
 4269WAT      O13048   3.863   8.471   8.086
 4269WAT     H113049   3.768   8.502   8.095
 4269WAT     H213050   3.885   8.407   8.159
 4270WAT      O13051   8.259   2.801   8.980
 4270WAT     H113052   8.212   2.713   8.971
 4270WAT     H213053   8.296   2.828   8.892
 4271WAT      O13054   3.103   7.334   2.719
 4271WAT     H113055   3.134   7.289   2.635
 4271WAT     H213056   3.058   7.268   2.778
 4272WAT      O13057   8.644   2.581   1.688
 4272WAT     H113058   8.725   2.581   1.747
 4272WAT     H213059   8.642   2.666   1.635
 4273WAT      O13060   8.712   7.608   4.581
 4273WAT     H113061   8.759   7.680   4.529
 4273WAT     H213062   8.749   7.519   4.555
 4274WAT      O13063   5.579   9.517   9.441
 4274WAT     H113064   5.484   9.496   9.466
 4274WAT     H213065   5.619   9.438   9.395
 4275WAT      O13066   0.784   1.125   0.586
 4275WAT     H113067   0.708   1.145   0.526
 4275WAT     H213068   0.752   1.071   0.664
 4276WAT      O13069   5.417   7.267   8.796
 4276WAT     H113070   5.480   7.322   8.741
 4276WAT     H213071   5.461   7.182   8.823
 4277WAT      O13072   0.499   9.219   6.809
 4277WAT     H113073   0.537   9.294   6.863
 4277WAT     H213074   0.431   9.170   6.863
 4278WAT      O13075   2.613   2.429   2.952
 4278WAT     H113076   2.655   2.341   2.979
 4278WAT     H213077   2.682   2.501   2.957
 4279WAT      O13078   3.725   3.673   0.832
 4279WAT     H113079   3.746   3.751   0.892
 4279WAT     H213080   3.643   3.694   0.779
 4280WAT      O13081   4.413   0.702   5.182
 4280WAT     H113082   4.327   0.750   5.202
 4280WAT     H213083   4.425   0.626   5.245
 4281WAT      O13084   4.083   9.485   0.261
 4281WAT     H113085   4.059   9.405   0.316
 4281WAT     H213086   4.057   9.569   0.310
 4282WAT      O13087   3.048   7.794   2.909
 4282WAT     H113088   2.951   7.817   2.921
 4282WAT     H213089   3.057   7.709   2.858
 4283WAT      O13090   0.426   2.984   4.110
 4283WAT     H113091   0.346   2.967   4.167
 4283WAT     H213092   0.488   2.906   4.115
 4284WAT      O13093   0.617   6.132   4.684
 4284WAT     H113094   0.707   6.091   4.694
 4284WAT     H213095   0.599   6.149   4.587
 4285WAT      O13096   3.321   9.133   8.831
 4285WAT     H113097   3.311   9.191   8.750
 4285WAT     H213098   3.231   9.115   8.871
 4286WAT      O13099   5.394   8.253   9.580
 4286WAT     H113100   5.294   8.242   9.580
 4286WAT     H213101   5.423   8.293   9.494
 4287WAT      O13102   3.019   2.323   2.246
 4287WAT     H113103   3.064   2.296   2.331
 4287WAT     H213104   2.924   2.348   2.266
 4288WAT      O13105   5.943   7.978   6.883
 4288WAT     H113106   6.033   8.020   6.869
 4288WAT     H213107   5.885   7.995   6.803
 4289WAT      O13108   7.901   3.275   0.384
 4289WAT     H113109   7.937   3.213   0.455
 4289WAT     H213110   7.929   3.368   0.404
 4290WAT      O13111   7.924   4.467   6.520
 4290WAT     H113112   7.933   4.405   6.598
 4290WAT     H213113   7.986   4.544   6.532
 4291WAT      O13114   8.529   1.395   0.898
 4291WAT     H113115   8.551   1.492   0.882
 4291WAT     H213116   8.440   1.374   0.859
 4292WAT      O13117   8.321   6.389   6.955
 4292WAT     H113118   8.232   6.381   6.999
 4292WAT     H213119   8.311   6.377   6.856
 4293WAT      O13120   1.843   2.092   7.997
 4293WAT     H113121   1.942   2.094   7.983
 4293WAT     H213122   1.822   2.028   8.072
 4294WAT      O13123   8.594   3.433   4.962
 4294WAT     H113124   8.687   3.456   4.991
 4294WAT     H213125   8.542   3.518   4.946
 4295WAT      O13126   7.540   3.490   7.013
 4295WAT     H113127   7.467   3.517   7.076
 4295WAT     H213128   7.601   3.567   6.996
 4296WAT      O13129   5.630   4.491   1.937
 4296WAT     H113130   5.629   4.585   1.970
 4296WAT     H213131   5.632   4.428   2.014
 4297WAT      O13132   9.155   1.727   9.762
 4297WAT     H113133   9.167   1.632   9.732
 4297WAT     H213134   9.245   1.770   9.772
 4298WAT      O13135   8.343   6.587   5.678
 4298WAT     H113136   8.302   6.540   5.599
 4298WAT     H213137   8.363   6.520   5.749
 4299WAT      O13138   8.452   4.485   4.574
 4299WAT     H113139   8.521   4.557   4.580
 4299WAT     H213140   8.368   4.515   4.619
 4300WAT      O13141   4.934   9.204   4.289
 4300WAT     H113142   4.988   9.236   4.367
 4300WAT     H213143   4.979   9.231   4.204
 4301WAT      O13144   4.242   2.934   5.521
 4301WAT     H113145   4.251   2.958   5.617
 4301WAT     H213146   4.146   2.938   5.494
 4302WAT      O13147   0.828   7.224   3.713
 4302WAT     H113148   0.815   7.202   3.616
 4302WAT     H213149   0.739   7.246   3.754
 4303WAT      O13150   1.468   7.843   8.791
 4303WAT     H113151   1.504   7.934   8.809
 4303WAT     H213152   1.442   7.800   8.877
 4304WAT      O13153   1.968   5.011   8.048
 4304WAT     H113154   2.052   4.977   8.005
 4304WAT     H213155   1.893   5.007   7.982
 4305WAT      O13156   6.591   0.702   9.583
 4305WAT     H113157   6.672   0.652   9.614
 4305WAT     H213158   6.586   0.700   9.483
 4306WAT      O13159   0.758   6.523   8.783
 4306WAT     H113160   0.660   6.533   8.798
 4306WAT     H213161   0.781   6.426   8.777
 4307WAT      O13162   9.882   0.791   6.617
 4307WAT     H113163   9.979   0.813   6.608
 4307WAT     H213164   9.831   0.874   6.637
 4308WAT      O13165  -0.003   1.967   2.837
 4308WAT     H113166   0.082   1.955   2.888
 4308WAT     H213167   0.015   1.961   2.739
 4309WAT      O13168   4.861   5.513   7.857
 4309WAT     H113169   4.958   5.524   7.880
 4309WAT     H213170   4.826   5.599   7.820
 4310WAT      O13171   2.307   7.015   3.267
 4310WAT     H113172   2.247   6.936   3.280
 4310WAT     H213173   2.402   6.984   3.261
 4311WAT      O13174   7.692   6.900   2.195
 4311WAT     H113175   7.786   6.875   2.220
 4311WAT     H213176   7.668   6.988   2.237
 4312WAT      O13177   1.226   7.075   2.379
 4312WAT     H113178   1.315   7.118   2.367
 4312WAT     H213179   1.190   7.098   2.469
 4313WAT      O13180   7.588   5.758   5.615
 4313WAT     H113181   7.656   5.710   5.560
 4313WAT     H213182   7.522   5.691   5.651
 4314WAT      O13183   0.748   3.972   5.471
 4314WAT     H113184   0.807   4.003   5.397
 4314WAT     H213185   0.665   4.029   5.474
 4315WAT      O13186   5.469   8.673   1.589
 4315WAT     H113187   5.504   8.756   1.632
 4315WAT     H213188   5.377   8.655   1.623
 4316WAT      O13189   0.028   1.421   5.681
 4316WAT     H113190   0.063   1.500   5.630
 4316WAT     H213191   0.105   1.364   5.711
 4317WAT      O13192   7.598   4.992   1.430
 4317WAT     H113193   7.558   5.026   1.516
 4317WAT     H213194   7.620   5.070   1.371
 4318WAT      O13195   7.950   1.748   5.521
 4318WAT     H113196   7.893   1.801   5.459
 4318WAT     H213197   7.909   1.747   5.612
 4319WAT      O13198   9.318   4.547   0.104
 4319WAT     H113199   9.287   4.559   0.009
 4319WAT     H213200   9.359   4.633   0.136
 4320WAT      O13201   9.019   2.076   9.862
 4320WAT     H113202   8.957   2.122   9.924
 4320WAT     H213203   8.999   1.978   9.861
 4321WAT      O13204   4.596   0.967   5.703
 4321WAT     H113205   4.530   0.911   5.753
 4321WAT     H213206   4.581   0.956   5.605
 4322WAT      O13207   8.031   0.714   5.407
 4322WAT     H113208   8.084   0.634   5.434
 4322WAT     H213209   7.942   0.686   5.373
 4323WAT      O13210   3.678   8.850   2.016
 4323WAT     H113211   3.709   8.811   1.929
 4323WAT     H213212   3.758   8.884   2.067
 4324WAT      O13213   8.281   5.174   7.920
 4324WAT     H113214   8.218   5.239   7.878
 4324WAT     H213215   8.304   5.206   8.013
 4325WAT      O13216   8.962   1.883   4.093
 4325WAT     H113217   8.883   1.916   4.145
 4325WAT     H213218   9.019   1.826   4.152
 4326WAT      O13219   6.425   8.535   9.850
 4326WAT     H113220   6.461   8.516   9.941
 4326WAT     H213221   6.335   8.578   9.857
 4327WAT      O13222   7.428   5.765   0.370
 4327WAT     H113223   7.429   5.792   0.274
 4327WAT     H213224   7.335   5.739   0.397
 4328WAT      O13225   0.828   2.206   9.726
 4328WAT     H113226   0.924   2.232   9.737
 4328WAT     H213227   0.815   2.111   9.755
 4329WAT      O13228   4.175   9.534   3.873
 4329WAT     H113229   4.202   9.495   3.961
 4329WAT     H213230   4.253   9.581   3.832
 4330WAT      O13231   2.004   2.078   0.163
 4330WAT     H113232   2.068   2.106   0.091
 4330WAT     H213233   2.011   1.979   0.177
 4331WAT      O13234   3.412   5.952   2.575
 4331WAT     H113235   3.330   5.961   2.518
 4331WAT     H213236   3.493   5.979   2.522
 4332WAT      O13237   0.513   4.157   9.576
 4332WAT     H113238   0.413   4.154   9.581
 4332WAT     H213239   0.541   4.183   9.484
 4333WAT      O13240   1.753   4.959   8.181
 4333WAT     H113241   1.770   4.953   8.279
 4333WAT     H213242   1.840   4.948   8.132
 4334WAT      O13243   9.427   3.600   8.353
 4334WAT     H113244   9.371   3.600   8.435
 4334WAT     H213245   9.388   3.664   8.286
 4335WAT      O13246   8.698   1.095   8.421
 4335WAT     H113247   8.648   1.028   8.366
 4335WAT     H213248   8.790   1.105   8.384
 4336WAT      O13249   4.320   0.760   1.076
 4336WAT     H113250   4.354   0.673   1.043
 4336WAT     H213251   4.315   0.825   1.001
 4337WAT      O13252   9.155   7.723   3.182
 4337WAT     H113253   9.155   7.717   3.082
 4337WAT     H213254   9.116   7.811   3.209
 4338WAT      O13255   3.078   3.885   4.686
 4338WAT     H113256   3.041   3.921   4.771
 4338WAT     H213257   3.098   3.787   4.697
 4339WAT      O13258   4.072   8.275   7.529
 4339WAT     H113259   3.988   8.250   7.577
 4339WAT     H213260   4.150   8.263   7.590
 4340WAT      O13261   2.371   1.475   8.675
 4340WAT     H113262   2.358   1.507   8.581
 4340WAT     H213263   2.301   1.408   8.698
 4341WAT      O13264   7.021   5.295   6.697
 4341WAT     H113265   6.952   5.269   6.629
 4341WAT     H213266   7.109   5.253   6.673
 4342WAT      O13267   5.803   6.253   9.868
 4342WAT     H113268   5.882   6.197   9.892
 4342WAT     H213269   5.792   6.255   9.769
 4343WAT      O13270   0.360   8.696   4.101
 4343WAT     H113271   0.293   8.744   4.158
 4343WAT     H213272   0.447   8.688   4.151
 4344WAT      O13273   4.321   8.967   9.840
 4344WAT     H113274   4.335   8.870   9.859
 4344WAT     H213275   4.242   8.978   9.779
 4345WAT      O13276   5.614   0.393   5.633
 4345WAT     H113277   5.518   0.386   5.658
 4345WAT     H213278   5.623   0.449   5.551
 4346WAT      O13279   2.897   5.461   9.386
 4346WAT     H113280   2.925   5.506   9.301
 4346WAT     H213281   2.915   5.363   9.379
 4347WAT      O13282   2.080   3.968   8.635
 4347WAT     H113283   2.155   4.030   8.614
 4347WAT     H213284   2.102   3.876   8.601
 4348WAT      O13285   3.598   6.939   8.012
 4348WAT     H113286   3.677   6.934   7.951
 4348WAT     H213287   3.568   7.034   8.019
 4349WAT      O13288   0.559   4.887   1.889
 4349WAT     H113289   0.625   4.934   1.830
 4349WAT     H213290   0.602   4.806   1.929
 4350WAT      O13291   7.756   3.392   7.821
 4350WAT     H113292   7.709   3.478   7.797
 4350WAT     H213293   7.843   3.413   7.865
 4351WAT      O13294   9.387   5.851   0.709
 4351WAT     H113295   9.287   5.853   0.700
 4351WAT     H213296   9.411   5.827   0.803
 4352WAT      O13297   4.155   9.007   7.623
 4352WAT     H113298   4.221   8.935   7.603
 4352WAT     H213299   4.145   9.065   7.542
 4353WAT      O13300   6.230   7.336   5.831
 4353WAT     H113301   6.200   7.264   5.894
 4353WAT     H213302   6.167   7.340   5.753
 4354WAT      O13303   0.799   7.049   8.277
 4354WAT     H113304   0.792   6.960   8.323
 4354WAT     H213305   0.798   7.122   8.346
 4355WAT      O13306   7.391   7.293   6.778
 4355WAT     H113307   7.400   7.272   6.681
 4355WAT     H213308   7.302   7.262   6.811
 4356WAT      O13309   5.342   9.628   3.393
 4356WAT     H113310   5.380   9.538   3.419
 4356WAT     H213311   5.268   9.652   3.456
 4357WAT      O13312   9.835   8.293   3.684
 4357WAT     H113313   9.898   8.362   3.720
 4357WAT     H213314   9.744   8.308   3.722
 4358WAT      O13315   0.314   6.855   5.859
 4358WAT     H113316   0.253   6.797   5.912
 4358WAT     H213317   0.375   6.904   5.921
 4359WAT      O13318   1.179   9.643   8.121
 4359WAT     H113319   1.206   9.563   8.069
 4359WAT     H213320   1.134   9.614   8.206
 4360WAT      O13321   3.691   2.980   1.262
 4360WAT     H113322   3.608   2.968   1.316
 4360WAT     H213323   3.758   3.033   1.314
 4361WAT      O13324   2.539   0.338   8.989
 4361WAT     H113325   2.596   0.408   8.946
 4361WAT     H213326   2.560   0.249   8.950
 4362WAT      O13327   6.672   5.966   8.562
 4362WAT     H113328   6.624   5.969   8.475
 4362WAT     H213329   6.692   5.871   8.586
 4363WAT      O13330   5.600   9.238   8.124
 4363WAT     H113331   5.685   9.187   8.113
 4363WAT     H213332   5.523   9.175   8.123
 4364WAT      O13333   7.569   8.155   6.292
 4364WAT     H113334   7.664   8.155   6.261
 4364WAT     H213335   7.515   8.217   6.236
 4365WAT      O13336   2.956   3.995   0.300
 4365WAT     H113337   3.022   3.992   0.375
 4365WAT     H213338   2.887   3.924   0.313
 4366WAT      O13339   4.524   6.397   6.372
 4366WAT     H113340   4.600   6.420   6.432
 4366WAT     H213341   4.518   6.298   6.361
 4367WAT      O13342   8.345   3.619   1.647
 4367WAT     H113343   8.335   3.537   1.703
 4367WAT     H213344   8.259   3.670   1.646
 4368WAT      O13345   4.730   9.230   4.091
 4368WAT     H113346   4.785   9.233   4.174
 4368WAT     H213347   4.774   9.170   4.024
 4369WAT      O13348   3.908   0.359   8.488
 4369WAT     H113349   3.927   0.290   8.558
 4369WAT     H213350   3.988   0.370   8.430
 4370WAT      O13351   9.408   3.553   5.532
 4370WAT     H113352   9.367   3.500   5.457
 4370WAT     H213353   9.433   3.492   5.607
 4371WAT      O13354   0.249   3.764   5.827
 4371WAT     H113355   0.235   3.805   5.737
 4371WAT     H213356   0.232   3.833   5.898
 4372WAT      O13357   2.764   0.441   3.190
 4372WAT     H113358   2.670   0.431   3.157
 4372WAT     H213359   2.828   0.412   3.119
 4373WAT      O13360   4.285   0.355   0.209
 4373WAT     H113361   4.257   0.357   0.305
 4373WAT     H213362   4.313   0.262   0.184
 4374WAT      O13363   9.544   1.021   9.485
 4374WAT     H113364   9.608   0.999   9.412
 4374WAT     H213365   9.455   0.983   9.464
 4375WAT      O13366   1.553   1.877   6.091
 4375WAT     H113367   1.536   1.800   6.153
 4375WAT     H213368   1.468   1.929   6.079
 4376WAT      O13369   4.297   5.437   7.312
 4376WAT     H113370   4.270   5.508   7.247
 4376WAT     H213371   4.393   5.449   7.337
 4377WAT      O13372   1.659   0.596   0.854
 4377WAT     H113373   1.671   0.689   0.820
 4377WAT     H213374   1.598   0.546   0.792
 4378WAT      O13375   4.464   6.132   6.426
 4378WAT     H113376   4.481   6.114   6.523
 4378WAT     H213377   4.411   6.057   6.386
 4379WAT      O13378   9.497   5.092   2.751
 4379WAT     H113379   9.480   5.028   2.826
 4379WAT     H213380   9.419   5.153   2.741
 4380WAT      O13381   4.652   9.364   3.546
 4380WAT     H113382   4.648   9.293   3.476
 4380WAT     H213383   4.717   9.435   3.518
 4381WAT      O13384   0.670   9.531   3.949
 4381WAT     H113385   0.707   9.486   3.869
 4381WAT     H213386   0.598   9.595   3.921
 4382WAT      O13387   7.250   8.629   9.087
 4382WAT     H113388   7.172   8.566   9.092
 4382WAT     H213389   7.298   8.629   9.174
 4383WAT      O13390   2.362   8.484   1.346
 4383WAT     H113391   2.418   8.436   1.278
 4383WAT     H213392   2.422   8.529   1.412
 4384WAT      O13393   8.066   5.395   4.308
 4384WAT     H113394   8.139   5.463   4.313
 4384WAT     H213395   8.103   5.304   4.324
 4385WAT      O13396   1.907   2.389   7.623
 4385WAT     H113397   1.898   2.422   7.717
 4385WAT     H213398   1.846   2.310   7.610
 4386WAT      O13399   1.882   6.696   0.530
 4386WAT     H113400   1.950   6.636   0.571
 4386WAT     H213401   1.812   6.719   0.599
 4387WAT      O13402   1.498   9.843   7.577
 4387WAT     H113403   1.444   9.774   7.530
 4387WAT     H213404   1.568   9.879   7.515
 4388WAT      O13405   5.048   8.849   0.593
 4388WAT     H113406   4.960   8.897   0.584
 4388WAT     H213407   5.032   8.750   0.595
 4389WAT      O13408   6.670   9.121   8.641
 4389WAT     H113409   6.714   9.099   8.728
 4389WAT     H213410   6.572   9.133   8.656
 4390WAT      O13411   7.499   7.722   2.464
 4390WAT     H113412   7.483   7.632   2.503
 4390WAT     H213413   7.471   7.792   2.530
 4391WAT      O13414   0.540   2.387   2.767
 4391WAT     H113415   0.450   2.426   2.786
 4391WAT     H213416   0.610   2.458   2.772
 4392WAT      O13417   9.230   4.172   5.880
 4392WAT     H113418   9.184   4.086   5.860
 4392WAT     H213419   9.254   4.175   5.977
 4393WAT      O13420   6.639   9.408   4.120
 4393WAT     H113421   6.584   9.492   4.114
 4393WAT     H213422   6.599   9.337   4.062
 4394WAT      O13423   1.099   2.214   2.530
 4394WAT     H113424   1.048   2.201   2.615
 4394WAT     H213425   1.084   2.136   2.469
 4395WAT      O13426   2.259   9.152   2.513
 4395WAT     H113427   2.345   9.187   2.550
 4395WAT     H213428   2.271   9.058   2.481
 4396WAT      O13429   1.175   7.606   4.967
 4396WAT     H113430   1.110   7.556   5.024
 4396WAT     H213431   1.268   7.584   4.996
 4397WAT      O13432   2.559   4.653   8.466
 4397WAT     H113433   2.539   4.742   8.426
 4397WAT     H213434   2.544   4.657   8.565
 4398WAT      O13435   3.730   6.267   1.832
 4398WAT     H113436   3.657   6.230   1.774
 4398WAT     H213437   3.796   6.316   1.774
 4399WAT      O13438   5.436   2.638   3.277
 4399WAT     H113439   5.409   2.554   3.325
 4399WAT     H213440   5.471   2.614   3.187
 4400WAT      O13441   4.608   4.295   2.129
 4400WAT     H113442   4.651   4.381   2.157
 4400WAT     H213443   4.667   4.247   2.064
 4401WAT      O13444   9.058   7.485   6.489
 4401WAT     H113445   9.010   7.463   6.574
 4401WAT     H213446   9.088   7.400   6.445
 4402WAT      O13447   1.296   1.407   4.008
 4402WAT     H113448   1.314   1.424   4.104
 4402WAT     H213449   1.324   1.487   3.954
 4403WAT      O13450   5.494   4.060   8.839
 4403WAT     H113451   5.434   3.980   8.846
 4403WAT     H213452   5.502   4.104   8.928
 4404WAT      O13453   3.451   4.897   5.618
 4404WAT     H113454   3.496   4.971   5.669
 4404WAT     H213455   3.384   4.852   5.677
 4405WAT      O13456   2.957   0.519   2.073
 4405WAT     H113457   2.904   0.477   2.146
 4405WAT     H213458   3.049   0.541   2.106
 4406WAT      O13459   8.660   1.127   0.251
 4406WAT     H113460   8.561   1.143   0.259
 4406WAT     H213461   8.699   1.112   0.342
 4407WAT      O13462   0.550   2.347   3.940
 4407WAT     H113463   0.551   2.447   3.941
 4407WAT     H213464   0.556   2.315   3.846
 4408WAT      O13465   1.660   1.141   0.644
 4408WAT     H113466   1.672   1.066   0.580
 4408WAT     H213467   1.575   1.190   0.623
 4409WAT      O13468   4.888   6.172   3.458
 4409WAT     H113469   4.833   6.103   3.413
 4409WAT     H213470   4.829   6.246   3.490
 4410WAT      O13471   8.768   4.555   8.816
 4410WAT     H113472   8.722   4.644   8.822
 4410WAT     H213473   8.832   4.546   8.893
 4411WAT      O13474   5.066   6.812   1.192
 4411WAT     H113475   4.970   6.784   1.190
 4411WAT     H213476   5.076   6.897   1.243
 4412WAT      O13477   1.933   0.789   3.573
 4412WAT     H113478   1.985   0.710   3.605
 4412WAT     H213479   1.850   0.757   3.527
 4413WAT      O13480   3.506   7.204   3.381
 4413WAT     H113481   3.564   7.146   3.439
 4413WAT     H213482   3.431   7.241   3.436
 4414WAT      O13483   6.626   2.937   0.248
 4414WAT     H113484   6.594   2.856   0.199
 4414WAT     H213485   6.634   2.916   0.345
 4415WAT      O13486   4.232   5.874   0.577
 4415WAT     H113487   4.272   5.913   0.494
 4415WAT     H213488   4.138   5.845   0.558
 4416WAT      O13489   2.504   1.967   1.103
 4416WAT     H113490   2.575   1.977   1.033
 4416WAT     H213491   2.414   1.962   1.060
 4417WAT      O13492   3.251   6.638   9.892
 4417WAT     H113493   3.331   6.597   9.847
 4417WAT     H213494   3.203   6.568   9.944
 4418WAT      O13495   0.357   2.798   1.531
 4418WAT     H113496   0.274   2.854   1.539
 4418WAT     H213497   0.332   2.705   1.504
 4419WAT      O13498   5.318   5.043   6.505
 4419WAT     H113499   5.377   4.981   6.556
 4419WAT     H213500   5.241   4.993   6.467
 4420WAT      O13501   0.822   3.300   3.028
 4420WAT     H113502   0.897   3.272   2.969
 4420WAT     H213503   0.833   3.259   3.118
 4421WAT      O13504   8.431   9.438   0.816
 4421WAT     H113505   8.528   9.454   0.796
 4421WAT     H213506   8.402   9.497   0.891
 4422WAT      O13507   8.299   2.429   6.412
 4422WAT     H113508   8.310   2.339   6.456
 4422WAT     H213509   8.202   2.450   6.402
 4423WAT      O13510   5.052   2.458   0.807
 4423WAT     H113511   5.119   2.521   0.845
 4423WAT     H213512   4.979   2.443   0.874
 4424WAT      O13513   3.504   4.741   0.648
 4424WAT     H113514   3.525   4.836   0.624
 4424WAT     H213515   3.435   4.706   0.584
 4425WAT      O13516   3.382   7.547   4.282
 4425WAT     H113517   3.362   7.463   4.332
 4425WAT     H213518   3.305   7.610   4.291
 4426WAT      O13519   2.066   4.604   0.605
 4426WAT     H113520   2.099   4.684   0.656
 4426WAT     H213521   2.046   4.531   0.670
 4427WAT      O13522   8.381   9.214   2.166
 4427WAT     H113523   8.401   9.125   2.208
 4427WAT     H213524   8.290   9.210   2.125
 4428WAT      O13525   0.204   3.038   8.453
 4428WAT     H113526   0.302   3.019   8.461
 4428WAT     H213527   0.152   2.963   8.493
 4429WAT      O13528   8.549   8.014   1.602
 4429WAT     H113529   8.588   8.038   1.513
 4429WAT     H213530   8.463   7.965   1.588
 4430WAT      O13531   9.674   6.929   4.896
 4430WAT     H113532   9.632   6.914   4.985
 4430WAT     H213533   9.677   7.027   4.876
 4431WAT      O13534   6.030   6.205   1.025
 4431WAT     H113535   5.948   6.174   0.976
 4431WAT     H213536   6.028   6.169   1.118
 4432WAT      O13537   0.211   8.407   6.203
 4432WAT     H113538   0.211   8.473   6.278
 4432WAT     H213539   0.177   8.319   6.237
 4433WAT      O13540   7.410   7.794   0.457
 4433WAT     H113541   7.502   7.833   0.458
 4433WAT     H213542   7.405   7.718   0.523
 4434WAT      O13543   6.028   9.424   3.670
 4434WAT     H113544   5.977   9.392   3.590
 4434WAT     H213545   6.100   9.487   3.641
 4435WAT      O13546   5.026   8.200   5.753
 4435WAT     H113547   5.061   8.214   5.845
 4435WAT     H213548   5.022   8.287   5.705
 4436WAT      O13549   5.736   3.606   6.157
 4436WAT     H113550   5.708   3.526   6.105
 4436WAT     H213551   5.659   3.638   6.213
 4437WAT      O13552   0.255   4.106   9.621
 4437WAT     H113553   0.249   4.035   9.691
 4437WAT     H213554   0.165   4.149   9.610
 4438WAT      O13555   0.839   9.415   6.016
 4438WAT     H113556   0.925   9.467   6.017
 4438WAT     H213557   0.763   9.477   6.035
 4439WAT      O13558   1.059   4.151   0.203
 4439WAT     H113559   1.116   4.115   0.277
 4439WAT     H213560   0.965   4.122   0.217
 4440WAT      O13561   3.870   2.641   2.438
 4440WAT     H113562   3.901   2.562   2.490
 4440WAT     H213563   3.884   2.625   2.341
 4441WAT      O13564   5.397   2.469   0.315
 4441WAT     H113565   5.301   2.450   0.295
 4441WAT     H213566   5.452   2.388   0.293
 4442WAT      O13567   8.139   2.596   2.191
 4442WAT     H113568   8.102   2.594   2.099
 4442WAT     H213569   8.211   2.665   2.197
 4443WAT      O13570   0.608   7.776   0.307
 4443WAT     H113571   0.703   7.762   0.333
 4443WAT     H213572   0.604   7.809   0.212
 4444WAT      O13573   7.395   4.127   5.117
 4444WAT     H113574   7.296   4.115   5.130
 4444WAT     H213575   7.421   4.221   5.138
 4445WAT      O13576   8.969   7.685   8.774
 4445WAT     H113577   9.063   7.707   8.746
 4445WAT     H213578   8.968   7.664   8.872
 4446WAT      O13579   4.949   5.612   6.548
 4446WAT     H113580   5.045   5.632   6.526
 4446WAT     H213581   4.899   5.593   6.464
 4447WAT      O13582   6.750   8.423   4.913
 4447WAT     H113583   6.665   8.471   4.933
 4447WAT     H213584   6.823   8.490   4.898
 4448WAT      O13585   1.829   3.309   3.577
 4448WAT     H113586   1.903   3.340   3.517
 4448WAT     H213587   1.758   3.379   3.580
 4449WAT      O13588   6.938   4.502   2.542
 4449WAT     H113589   6.949   4.601   2.544
 4449WAT     H213590   7.027   4.459   2.533
 4450WAT      O13591   7.501   6.281   7.798
 4450WAT     H113592   7.582   6.242   7.755
 4450WAT     H213593   7.504   6.261   7.896
 4451WAT      O13594   3.177   2.799   0.455
 4451WAT     H113595   3.157   2.862   0.380
 4451WAT     H213596   3.134   2.710   0.435
 4452WAT      O13597   7.540   2.523   5.594
 4452WAT     H113598   7.599   2.449   5.561
 4452WAT     H213599   7.451   2.486   5.620
 4453WAT      O13600   2.434   4.028   5.043
 4453WAT     H113601   2.356   4.010   4.983
 4453WAT     H213602   2.518   4.032   4.990
 4454WAT      O13603   3.218   3.705   7.876
 4454WAT     H113604   3.301   3.653   7.854
 4454WAT     H213605   3.186   3.678   7.967
 4455WAT      O13606   4.239   3.472   3.203
 4455WAT     H113607   4.260   3.374   3.204
 4455WAT     H213608   4.240   3.507   3.296
 4456WAT      O13609   5.331   8.366   5.661
 4456WAT     H113610   5.317   8.286   5.603
 4456WAT     H213611   5.372   8.439   5.606
 4457WAT      O13612   5.626   2.427   3.044
 4457WAT     H113613   5.599   2.516   3.008
 4457WAT     H213614   5.554   2.360   3.023
 4458WAT      O13615   2.761   0.436   2.299
 4458WAT     H113616   2.822   0.360   2.321
 4458WAT     H213617   2.799   0.521   2.337
 4459WAT      O13618   8.515   1.404   5.376
 4459WAT     H113619   8.594   1.359   5.418
 4459WAT     H213620   8.431   1.370   5.419
 4460WAT      O13621   2.697   6.761   2.650
 4460WAT     H113622   2.630   6.759   2.576
 4460WAT     H213623   2.726   6.855   2.668
 4461WAT      O13624   8.929   7.286   2.325
 4461WAT     H113625   9.007   7.246   2.374
 4461WAT     H213626   8.889   7.218   2.264
 4462WAT      O13627   3.389   1.764   1.186
 4462WAT     H113628   3.333   1.760   1.104
 4462WAT     H213629   3.331   1.762   1.267
 4463WAT      O13630   6.074   7.677   1.305
 4463WAT     H113631   6.057   7.749   1.238
 4463WAT     H213632   6.172   7.661   1.313
 4464WAT      O13633   9.772   2.524   8.091
 4464WAT     H113634   9.855   2.470   8.103
 4464WAT     H213635   9.788   2.617   8.123
 4465WAT      O13636   2.890   1.014   9.745
 4465WAT     H113637   2.932   0.930   9.710
 4465WAT     H213638   2.961   1.083   9.761
 4466WAT      O13639   4.986   3.118   2.024
 4466WAT     H113640   4.907   3.178   2.014
 4466WAT     H213641   4.984   3.047   1.953
 4467WAT      O13642   7.088   7.859   1.380
 4467WAT     H113643   7.023   7.807   1.436
 4467WAT     H213644   7.162   7.893   1.437
 4468WAT      O13645   8.218   4.160   9.523
 4468WAT     H113646   8.192   4.149   9.619
 4468WAT     H213647   8.204   4.255   9.496
 4469WAT      O13648   2.522   4.287   4.221
 4469WAT     H113649   2.576   4.342   4.285
 4469WAT     H213650   2.426   4.313   4.227
 4470WAT      O13651   0.419   6.389   5.688
 4470WAT     H113652   0.475   6.340   5.620
 4470WAT     H213653   0.398   6.480   5.654
 4471WAT      O13654   5.098   5.921   8.416
 4471WAT     H113655   5.014   5.924   8.363
 4471WAT     H213656   5.172   5.963   8.364
 4472WAT      O13657   6.590   4.780   2.626
 4472WAT     H113658   6.621   4.811   2.716
 4472WAT     H213659   6.514   4.837   2.596
 4473WAT      O13660   7.501   3.553   5.142
 4473WAT     H113661   7.430   3.607   5.097
 4473WAT     H213662   7.591   3.592   5.122
 4474WAT      O13663   0.396   2.215   4.633
 4474WAT     H113664   0.376   2.300   4.585
 4474WAT     H213665   0.409   2.142   4.566
 4475WAT      O13666   5.141   2.944   3.324
 4475WAT     H113667   5.110   3.027   3.278
 4475WAT     H213668   5.241   2.946   3.333
 4476WAT      O13669   6.454   8.249   3.339
 4476WAT     H113670   6.525   8.265   3.270
 4476WAT     H213671   6.494   8.199   3.416
 4477WAT      O13672   0.407   7.853   2.704
 4477WAT     H113673   0.492   7.829   2.752
 4477WAT     H213674   0.416   7.829   2.608
 4478WAT      O13675   4.706   5.886   4.584
 4478WAT     H113676   4.701   5.787   4.572
 4478WAT     H213677   4.783   5.922   4.531
 4479WAT      O13678   2.838   1.764   7.051
 4479WAT     H113679   2.920   1.723   7.091
 4479WAT     H213680   2.864   1.839   6.990
 4480WAT      O13681   6.704   5.661   6.314
 4480WAT     H113682   6.640   5.613   6.374
 4480WAT     H213683   6.678   5.757   6.309
 4481WAT      O13684   8.758   5.865   8.181
 4481WAT     H113685   8.836   5.878   8.120
 4481WAT     H213686   8.786   5.882   8.276
 4482WAT      O13687   2.384   2.818   6.128
 4482WAT     H113688   2.347   2.751   6.064
 4482WAT     H213689   2.314   2.885   6.151
 4483WAT      O13690   5.691   0.738   7.302
 4483WAT     H113691   5.750   0.816   7.320
 4483WAT     H213692   5.678   0.686   7.387
 4484WAT      O13693   2.522   7.557   9.253
 4484WAT     H113694   2.462   7.575   9.175
 4484WAT     H213695   2.589   7.487   9.228
 4485WAT      O13696   8.605   2.076   4.970
 4485WAT     H113697   8.538   2.018   5.017
 4485WAT     H213698   8.569   2.101   4.880
 4486WAT      O13699   8.334   3.720   1.066
 4486WAT     H113700   8.310   3.637   1.116
 4486WAT     H213701   8.330   3.799   1.127
 4487WAT      O13702   9.288   6.546   3.259
 4487WAT     H113703   9.286   6.447   3.273
 4487WAT     H213704   9.283   6.592   3.348
 4488WAT      O13705   8.606   8.738   1.090
 4488WAT     H113706   8.587   8.834   1.109
 4488WAT     H213707   8.542   8.681   1.142
 4489WAT      O13708   2.772   7.998   8.634
 4489WAT     H113709   2.852   7.988   8.574
 4489WAT     H213710   2.689   7.984   8.581
 4490WAT      O13711   1.768   8.708   1.776
 4490WAT     H113712   1.793   8.658   1.693
 4490WAT     H213713   1.703   8.653   1.829
 4491WAT      O13714   2.398   6.545   6.231
 4491WAT     H113715   2.349   6.460   6.247
 4491WAT     H213716   2.483   6.546   6.284
 4492WAT      O13717   6.807   8.866   4.203
 4492WAT     H113718   6.727   8.914   4.167
 4492WAT     H213719   6.833   8.793   4.140
 4493WAT      O13720   0.350   9.676   2.872
 4493WAT     H113721   0.345   9.746   2.942
 4493WAT     H213722   0.407   9.708   2.796
 4494WAT      O13723   2.876   4.794   5.920
 4494WAT     H113724   2.883   4.762   5.825
 4494WAT     H213725   2.781   4.819   5.940
 4495WAT      O13726   8.173   0.802   6.956
 4495WAT     H113727   8.264   0.803   6.998
 4495WAT     H213728   8.112   0.862   7.007
 4496WAT      O13729   0.520   1.365   9.633
 4496WAT     H113730   0.553   1.433   9.567
 4496WAT     H213731   0.585   1.358   9.708
 4497WAT      O13732   4.066   4.299   0.291
 4497WAT     H113733   4.021   4.247   0.364
 4497WAT     H213734   3.997   4.332   0.227
 4498WAT      O13735   3.655   1.987   1.125
 4498WAT     H113736   3.678   2.064   1.185
 4498WAT     H213737   3.667   1.901   1.175
 4499WAT      O13738   8.496   5.243   5.642
 4499WAT     H113739   8.470   5.248   5.545
 4499WAT     H213740   8.596   5.247   5.650
 4500WAT      O13741   5.445   5.012   2.144
 4500WAT     H113742   5.378   5.073   2.185
 4500WAT     H213743   5.526   5.065   2.117
 4501WAT      O13744   4.148   6.347   3.202
 4501WAT     H113745   4.219   6.281   3.180
 4501WAT     H213746   4.184   6.415   3.266
 4502WAT      O13747   6.978   4.005   5.360
 4502WAT     H113748   6.930   4.052   5.434
 4502WAT     H213749   6.916   3.937   5.319
 4503WAT      O13750   7.384   0.023   6.216
 4503WAT     H113751   7.332  -0.002   6.134
 4503WAT     H213752   7.324   0.073   6.278
 4504WAT      O13753   8.079   9.561   8.977
 4504WAT     H113754   8.007   9.504   8.939
 4504WAT     H213755   8.165   9.544   8.930
 4505WAT      O13756   0.949   6.421   9.707
 4505WAT     H113757   0.960   6.337   9.760
 4505WAT     H213758   1.036   6.472   9.706
 4506WAT      O13759   3.428   9.047   4.624
 4506WAT     H113760   3.417   9.084   4.717
 4506WAT     H213761   3.378   8.961   4.617
 4507WAT      O13762   3.825   2.529   9.404
 4507WAT     H113763   3.784   2.519   9.313
 4507WAT     H213764   3.763   2.582   9.462
 4508WAT      O13765   6.201   1.948   8.241
 4508WAT     H113766   6.149   1.865   8.218
 4508WAT     H213767   6.232   1.992   8.156
 4509WAT      O13768   1.185   3.422   7.501
 4509WAT     H113769   1.194   3.334   7.548
 4509WAT     H213770   1.241   3.491   7.547
 4510WAT      O13771   7.428   1.169   9.883
 4510WAT     H113772   7.478   1.203   9.963
 4510WAT     H213773   7.374   1.243   9.843
 4511WAT      O13774   6.114   9.420   8.725
 4511WAT     H113775   6.133   9.349   8.657
 4511WAT     H213776   6.175   9.407   8.803
 4512WAT      O13777   0.037   5.504   3.076
 4512WAT     H113778   0.109   5.455   3.028
 4512WAT     H213779  -0.045   5.507   3.019
 4513WAT      O13780   7.788   1.406   7.144
 4513WAT     H113781   7.801   1.491   7.092
 4513WAT     H213782   7.719   1.350   7.098
 4514WAT      O13783   2.979   8.688   0.701
 4514WAT     H113784   3.051   8.681   0.632
 4514WAT     H213785   3.001   8.762   0.765
 4515WAT      O13786   3.699   4.494   5.052
 4515WAT     H113787   3.712   4.547   4.968
 4515WAT     H213788   3.608   4.452   5.052
 4516WAT      O13789   1.976   5.946   1.342
 4516WAT     H113790   1.885   5.918   1.313
 4516WAT     H213791   2.043   5.923   1.271
 4517WAT      O13792   8.166   0.015   0.814
 4517WAT     H113793   8.121  -0.015   0.898
 4517WAT     H213794   8.098   0.033   0.743
 4518WAT      O13795   2.670   8.023   9.820
 4518WAT     H113796   2.627   8.106   9.855
 4518WAT     H213797   2.603   7.970   9.769
 4519WAT      O13798   3.501   4.987   7.610
 4519WAT     H113799   3.501   4.898   7.655
 4519WAT     H213800   3.584   4.997   7.555
 4520WAT      O13801   3.557   9.111   4.150
 4520WAT     H113802   3.493   9.038   4.171
 4520WAT     H213803   3.522   9.198   4.185
 4521WAT      O13804   2.706   6.532   3.889
 4521WAT     H113805   2.800   6.555   3.916
 4521WAT     H213806   2.670   6.603   3.829
 4522WAT      O13807   0.305   6.158   9.634
 4522WAT     H113808   0.315   6.059   9.644
 4522WAT     H213809   0.384   6.204   9.675
 4523WAT      O13810   9.138   3.261   8.571
 4523WAT     H113811   9.076   3.235   8.497
 4523WAT     H213812   9.202   3.186   8.589
 4524WAT      O13813   8.097   7.618   4.864
 4524WAT     H113814   8.004   7.652   4.882
 4524WAT     H213815   8.100   7.578   4.773
 4525WAT      O13816   0.299   0.213   2.313
 4525WAT     H113817   0.264   0.181   2.401
 4525WAT     H213818   0.228   0.264   2.265
 4526WAT      O13819   7.875   4.023   3.533
 4526WAT     H113820   7.945   4.069   3.478
 4526WAT     H213821   7.837   3.947   3.480
 4527WAT      O13822   5.322   1.206   9.837
 4527WAT     H113823   5.401   1.198   9.777
 4527WAT     H213824   5.249   1.145   9.805
 4528WAT      O13825   4.147   9.282   6.125
 4528WAT     H113826   4.163   9.381   6.132
 4528WAT     H213827   4.062   9.259   6.171
 4529WAT      O13828   3.964   5.794   9.657
 4529WAT     H113829   4.045   5.756   9.614
 4529WAT     H213830   3.931   5.873   9.604
 4530WAT      O13831   6.729   2.243   8.725
 4530WAT     H113832   6.654   2.265   8.787
 4530WAT     H213833   6.798   2.190   8.775
 4531WAT      O13834   2.585   3.397   6.449
 4531WAT     H113835   2.502   3.426   6.402
 4531WAT     H213836   2.563   3.327   6.517
 4532WAT      O13837   4.061   7.810   5.912
 4532WAT     H113838   4.006   7.818   5.828
 4532WAT     H213839   4.158   7.822   5.889
 4533WAT      O13840   2.706   2.937   6.845
 4533WAT     H113841   2.690   2.958   6.942
 4533WAT     H213842   2.801   2.910   6.832
 4534WAT      O13843   5.575   2.022   4.429
 4534WAT     H113844   5.497   1.998   4.486
 4534WAT     H213845   5.569   1.973   4.342
 4535WAT      O13846   4.322   8.529   3.798
 4535WAT     H113847   4.330   8.433   3.772
 4535WAT     H213848   4.257   8.575   3.738
 4536WAT      O13849   3.717   2.093   2.977
 4536WAT     H113850   3.723   2.047   2.888
 4536WAT     H213851   3.662   2.037   3.039
 4537WAT      O13852   4.755   7.456   9.882
 4537WAT     H113853   4.819   7.472   9.957
 4537WAT     H213854   4.794   7.489   9.796
 4538WAT      O13855   2.833   5.098   5.629
 4538WAT     H113856   2.845   5.141   5.540
 4538WAT     H213857   2.761   5.145   5.680
 4539WAT      O13858   5.488   2.032   6.814
 4539WAT     H113859   5.389   2.035   6.798
 4539WAT     H213860   5.536   2.063   6.732
 4540WAT      O13861   6.885   7.199   2.626
 4540WAT     H113862   6.977   7.236   2.633
 4540WAT     H213863   6.889   7.103   2.598
 4541WAT      O13864   2.670   1.984   8.955
 4541WAT     H113865   2.592   1.940   9.001
 4541WAT     H213866   2.746   1.920   8.952
 4542WAT      O13867   7.195   7.461   6.350
 4542WAT     H113868   7.288   7.453   6.315
 4542WAT     H213869   7.173   7.557   6.366
 4543WAT      O13870   3.328   9.731   1.025
 4543WAT     H113871   3.264   9.753   0.951
 4543WAT     H213872   3.422   9.749   0.994
 4544WAT      O13873   6.791   0.869   9.385
 4544WAT     H113874   6.844   0.848   9.468
 4544WAT     H213875   6.699   0.896   9.411
 4545WAT      O13876   6.290   8.649   6.779
 4545WAT     H113877   6.214   8.643   6.843
 4545WAT     H213878   6.299   8.563   6.730
 4546WAT      O13879   8.299   7.848   4.127
 4546WAT     H113880   8.341   7.921   4.181
 4546WAT     H213881   8.332   7.759   4.159
 4547WAT      O13882   2.144   4.683   9.805
 4547WAT     H113883   2.197   4.750   9.856
 4547WAT     H213884   2.099   4.620   9.869
 4548WAT      O13885   4.617   0.411   9.673
 4548WAT     H113886   4.596   0.324   9.716
 4548WAT     H213887   4.553   0.481   9.704
 4549WAT      O13888   2.940   8.949   4.350
 4549WAT     H113889   2.980   8.955   4.442
 4549WAT     H213890   2.920   8.853   4.329
 4550WAT      O13891   3.129   3.310   4.836
 4550WAT     H113892   3.145   3.264   4.749
 4550WAT     H213893   3.032   3.306   4.859
 4551WAT      O13894   2.661   2.992   6.113
 4551WAT     H113895   2.587   2.941   6.070
 4551WAT     H213896   2.745   2.937   6.109
 4552WAT      O13897   3.898   9.812   5.813
 4552WAT     H113898   3.832   9.811   5.888
 4552WAT     H213899   3.949   9.898   5.815
 4553WAT      O13900   6.656   8.593   2.839
 4553WAT     H113901   6.670   8.692   2.834
 4553WAT     H213902   6.571   8.569   2.792
 4554WAT      O13903   9.253   1.054   6.386
 4554WAT     H113904   9.159   1.019   6.381
 4554WAT     H213905   9.291   1.060   6.294
 4555WAT      O13906   6.437   5.361   8.655
 4555WAT     H113907   6.426   5.414   8.739
 4555WAT     H213908   6.404   5.267   8.670
 4556WAT      O13909   3.681   7.853   5.656
 4556WAT     H113910   3.674   7.940   5.607
 4556WAT     H213911   3.666   7.869   5.754
 4557WAT      O13912   1.082   8.375   6.153
 4557WAT     H113913   1.120   8.463   6.124
 4557WAT     H213914   1.145   8.332   6.218
 4558WAT      O13915   5.828   5.900   4.749
 4558WAT     H113916   5.807   5.803   4.736
 4558WAT     H213917   5.901   5.909   4.818
 4559WAT      O13918   6.611   4.895   5.254
 4559WAT     H113919   6.668   4.917   5.175
 4559WAT     H213920   6.517   4.881   5.224
 4560WAT      O13921   0.526   4.827   5.892
 4560WAT     H113922   0.529   4.802   5.989
 4560WAT     H213923   0.619   4.829   5.856
 4561WAT      O13924   6.172   3.304   1.555
 4561WAT     H113925   6.101   3.370   1.580
 4561WAT     H213926   6.144   3.212   1.583
 4562WAT      O13927   9.540   1.051   0.632
 4562WAT     H113928   9.583   0.961   0.622
 4562WAT     H213929   9.523   1.089   0.541
 4563WAT      O13930   9.581   3.960   7.124
 4563WAT     H113931   9.625   4.047   7.102
 4563WAT     H213932   9.489   3.977   7.159
 4564WAT      O13933   2.503   3.578   3.681
 4564WAT     H113934   2.523   3.660   3.736
 4564WAT     H213935   2.472   3.605   3.590
 4565WAT      O13936   8.388   7.865   5.631
 4565WAT     H113937   8.331   7.833   5.707
 4565WAT     H213938   8.444   7.942   5.661
 4566WAT      O13939   8.253   0.531   9.257
 4566WAT     H113940   8.226   0.535   9.353
 4566WAT     H213941   8.171   0.515   9.200
 4567WAT      O13942   9.762   7.057   6.695
 4567WAT     H113943   9.850   7.093   6.664
 4567WAT     H213944   9.701   7.133   6.718
 4568WAT      O13945   8.895   5.236   6.785
 4568WAT     H113946   8.884   5.308   6.716
 4568WAT     H213947   8.895   5.277   6.876
 4569WAT      O13948   9.795   2.780   3.654
 4569WAT     H113949   9.776   2.696   3.605
 4569WAT     H213950   9.727   2.850   3.628
 4570WAT      O13951   6.716   8.141   5.856
 4570WAT     H113952   6.708   8.049   5.818
 4570WAT     H213953   6.630   8.191   5.843
 4571WAT      O13954   9.110   6.160   8.990
 4571WAT     H113955   9.164   6.240   9.019
 4571WAT     H213956   9.119   6.149   8.891
 4572WAT      O13957   8.518   6.010   6.934
 4572WAT     H113958   8.572   5.925   6.930
 4572WAT     H213959   8.427   5.989   6.971
 4573WAT      O13960   6.918   5.003   9.568
 4573WAT     H113961   6.866   5.007   9.653
 4573WAT     H213962   6.855   4.998   9.491
 4574WAT      O13963   8.562   3.739   4.627
 4574WAT     H113964   8.493   3.808   4.603
 4574WAT     H213965   8.627   3.731   4.551
 4575WAT      O13966   7.960   9.416   8.011
 4575WAT     H113967   7.876   9.463   7.984
 4575WAT     H213968   8.037   9.480   8.006
 4576WAT      O13969   1.895   9.542   7.151
 4576WAT     H113970   1.803   9.574   7.173
 4576WAT     H213971   1.904   9.446   7.175
 4577WAT      O13972   0.315   0.524   7.555
 4577WAT     H113973   0.262   0.601   7.519
 4577WAT     H213974   0.285   0.504   7.649
 4578WAT      O13975   7.917   3.982   7.035
 4578WAT     H113976   7.861   4.064   7.044
 4578WAT     H213977   7.901   3.921   7.113
 4579WAT      O13978   9.880   8.613   8.459
 4579WAT     H113979   9.883   8.537   8.524
 4579WAT     H213980   9.937   8.592   8.380
 4580WAT      O13981   6.192   8.715   2.145
 4580WAT     H113982   6.175   8.677   2.236
 4580WAT     H213983   6.108   8.712   2.091
 4581WAT      O13984   2.454   2.051   3.897
 4581WAT     H113985   2.377   1.994   3.927
 4581WAT     H213986   2.445   2.070   3.799
 4582WAT      O13987   0.939   7.080   8.953
 4582WAT     H113988   1.017   7.119   8.903
 4582WAT     H213989   0.854   7.118   8.916
 4583WAT      O13990   6.024   2.923   7.736
 4583WAT     H113991   6.080   2.930   7.818
 4583WAT     H213992   6.056   2.848   7.679
 4584WAT      O13993   9.590   1.537   8.729
 4584WAT     H113994   9.503   1.520   8.684
 4584WAT     H213995   9.581   1.516   8.827
 4585WAT      O13996   7.561   4.061   1.312
 4585WAT     H113997   7.595   4.030   1.400
 4585WAT     H213998   7.623   4.030   1.240
 4586WAT      O13999   3.067   1.834   6.296
 4586WAT     H114000   3.086   1.870   6.388
 4586WAT     H214001   3.077   1.734   6.297
 4587WAT      O14002   2.850   8.277   8.697
 4587WAT     H114003   2.776   8.213   8.717
 4587WAT     H214004   2.862   8.339   8.775
 4588WAT      O14005   5.191   4.188   7.844
 4588WAT     H114006   5.229   4.266   7.894
 4588WAT     H214007   5.120   4.144   7.900
 4589WAT      O14008   4.249   9.735   4.430
 4589WAT     H114009   4.188   9.792   4.375
 4589WAT     H214010   4.197   9.690   4.502
 4590WAT      O14011   6.823   2.046   5.305
 4590WAT     H114012   6.802   2.077   5.212
 4590WAT     H214013   6.899   1.981   5.302
 4591WAT      O14014   3.147   2.851   5.905
 4591WAT     H114015   3.188   2.938   5.931
 4591WAT     H214016   3.201   2.775   5.942
 4592WAT      O14017   7.617   0.268   1.242
 4592WAT     H114018   7.546   0.238   1.306
 4592WAT     H214019   7.622   0.202   1.166
 4593WAT      O14020   9.049   1.103   9.476
 4593WAT     H114021   9.141   1.141   9.459
 4593WAT     H214022   8.988   1.177   9.506
 4594WAT      O14023   5.488   3.844   4.503
 4594WAT     H114024   5.423   3.879   4.570
 4594WAT     H214025   5.582   3.860   4.534
 4595WAT      O14026   5.659   1.411   6.351
 4595WAT     H114027   5.676   1.507   6.371
 4595WAT     H214028   5.745   1.367   6.323
 4596WAT      O14029   9.777   8.928   7.040
 4596WAT     H114030   9.809   9.001   7.099
 4596WAT     H214031   9.710   8.872   7.088
 4597WAT      O14032   3.078   2.750   7.929
 4597WAT     H114033   2.998   2.737   7.871
 4597WAT     H214034   3.134   2.824   7.891
 4598WAT      O14035   8.252   0.408   3.080
 4598WAT     H114036   8.179   0.432   3.016
 4598WAT     H214037   8.341   0.416   3.034
 4599WAT      O14038   9.062   7.658   8.384
 4599WAT     H114039   8.962   7.656   8.379
 4599WAT     H214040   9.092   7.745   8.422
 4600WAT      O14041   6.569   6.763   8.814
 4600WAT     H114042   6.500   6.787   8.882
 4600WAT     H214043   6.532   6.694   8.752
 4601WAT      O14044   6.382   2.585   0.776
 4601WAT     H114045   6.305   2.592   0.839
 4601WAT     H214046   6.382   2.496   0.732
 4602WAT      O14047   4.010   4.323   4.421
 4602WAT     H114048   4.061   4.396   4.376
 4602WAT     H214049   3.987   4.252   4.355
 4603WAT      O14050   2.529   7.310   3.779
 4603WAT     H114051   2.549   7.402   3.744
 4603WAT     H214052   2.469   7.318   3.859
 4604WAT      O14053   7.881   2.979   7.336
 4604WAT     H114054   7.792   2.976   7.383
 4604WAT     H214055   7.934   3.056   7.372
 4605WAT      O14056   2.456   9.154   1.305
 4605WAT     H114057   2.419   9.218   1.372
 4605WAT     H214058   2.474   9.066   1.349
 4606WAT      O14059   4.432   0.349   7.155
 4606WAT     H114060   4.476   0.425   7.203
 4606WAT     H214061   4.409   0.378   7.062
 4607WAT      O14062   6.668   5.717   3.630
 4607WAT     H114063   6.748   5.741   3.574
 4607WAT     H214064   6.626   5.800   3.665
 4608WAT      O14065   6.376   0.421   1.889
 4608WAT     H114066   6.321   0.396   1.809
 4608WAT     H214067   6.467   0.378   1.881
 4609WAT      O14068   7.400   0.191   1.729
 4609WAT     H114069   7.485   0.150   1.762
 4609WAT     H214070   7.398   0.288   1.753
 4610WAT      O14071   8.078   9.238   8.453
 4610WAT     H114072   8.012   9.281   8.514
 4610WAT     H214073   8.123   9.162   8.500
 4611WAT      O14074   7.985   2.822   4.152
 4611WAT     H114075   7.976   2.741   4.210
 4611WAT     H214076   7.967   2.904   4.207
 4612WAT      O14077   3.291   1.520   6.670
 4612WAT     H114078   3.344   1.585   6.724
 4612WAT     H214079   3.274   1.557   6.579
 4613WAT      O14080   7.985   8.564   9.710
 4613WAT     H114081   7.970   8.593   9.805
 4613WAT     H214082   8.077   8.591   9.682
 4614WAT      O14083   3.188   9.740   8.443
 4614WAT     H114084   3.101   9.699   8.468
 4614WAT     H214085   3.251   9.668   8.412
 4615WAT      O14086   5.443   9.569   5.470
 4615WAT     H114087   5.348   9.556   5.496
 4615WAT     H214088   5.449   9.636   5.396
 4616WAT      O14089   4.210   7.034   5.010
 4616WAT     H114090   4.265   7.108   4.970
 4616WAT     H214091   4.142   7.073   5.072
 4617WAT      O14092   2.917   2.253   0.193
 4617WAT     H114093   2.953   2.175   0.143
 4617WAT     H214094   2.949   2.338   0.151
 4618WAT      O14095   8.949   4.737   4.403
 4618WAT     H114096   8.988   4.655   4.362
 4618WAT     H214097   8.859   4.755   4.363
 4619WAT      O14098   4.375   3.249   4.914
 4619WAT     H114099   4.455   3.292   4.870
 4619WAT     H214100   4.394   3.236   5.011
 4620WAT      O14101   0.513   0.897   4.420
 4620WAT     H114102   0.485   0.967   4.354
 4620WAT     H214103   0.611   0.906   4.438
 4621WAT      O14104   6.486   0.592   3.028
 4621WAT     H114105   6.560   0.634   3.081
 4621WAT     H214106   6.420   0.662   3.001
 4622WAT      O14107   9.185   7.607   5.065
 4622WAT     H114108   9.220   7.696   5.038
 4622WAT     H214109   9.227   7.579   5.151
 4623WAT      O14110   6.676   9.584   6.003
 4623WAT     H114111   6.756   9.623   5.956
 4623WAT     H214112   6.631   9.519   5.942
 4624WAT      O14113   4.107   0.010   5.462
 4624WAT     H114114   4.118   0.010   5.363
 4624WAT     H214115   4.053   0.090   5.490
 4625WAT      O14116   6.768   3.198   7.333
 4625WAT     H114117   6.791   3.295   7.339
 4625WAT     H214118   6.807   3.150   7.412
 4626WAT      O14119   4.565   0.606   2.468
 4626WAT     H114120   4.511   0.587   2.386
 4626WAT     H214121   4.589   0.519   2.512
 4627WAT      O14122   6.115   0.534   8.044
 4627WAT     H114123   6.087   0.443   8.014
 4627WAT     H214124   6.213   0.535   8.063
 4628WAT      O14125   9.871   8.514   6.961
 4628WAT     H114126   9.911   8.524   6.870
 4628WAT     H214127   9.880   8.600   7.011
 4629WAT      O14128   8.550   4.827   5.475
 4629WAT     H114129   8.458   4.864   5.465
 4629WAT     H214130   8.592   4.864   5.559
 4630WAT      O14131   3.719   4.268   6.959
 4630WAT     H114132   3.702   4.341   6.892
 4630WAT     H214133   3.743   4.309   7.047
 4631WAT      O14134   7.492   3.583   2.274
 4631WAT     H114135   7.479   3.495   2.318
 4631WAT     H214136   7.412   3.604   2.217
 4632WAT      O14137   2.901   8.484   5.903
 4632WAT     H114138   2.819   8.435   5.932
 4632WAT     H214139   2.956   8.425   5.844
 4633WAT      O14140   4.726   7.884   5.662
 4633WAT     H114141   4.703   7.949   5.590
 4633WAT     H214142   4.742   7.932   5.748
 4634WAT      O14143   6.985   0.140   9.421
 4634WAT     H114144   7.084   0.147   9.425
 4634WAT     H214145   6.956   0.117   9.329
 4635WAT      O14146   2.566   4.470   1.421
 4635WAT     H114147   2.643   4.533   1.429
 4635WAT     H214148   2.501   4.487   1.495
 4636WAT      O14149   4.543   2.291   5.402
 4636WAT     H114150   4.573   2.367   5.344
 4636WAT     H214151   4.551   2.318   5.498
 4637WAT      O14152   6.592   5.510   6.537
 4637WAT     H114153   6.588   5.429   6.478
 4637WAT     H214154   6.579   5.482   6.632
 4638WAT      O14155   6.521   8.990   9.050
 4638WAT     H114156   6.585   9.059   9.017
 4638WAT     H214157   6.516   8.995   9.150
 4639WAT      O14158   0.381   4.289   4.832
 4639WAT     H114159   0.367   4.344   4.749
 4639WAT     H214160   0.445   4.216   4.813
 4640WAT      O14161   1.532   9.095   0.814
 4640WAT     H114162   1.584   9.033   0.755
 4640WAT     H214163   1.530   9.058   0.907
 4641WAT      O14164   9.175   8.534   5.189
 4641WAT     H114165   9.118   8.505   5.113
 4641WAT     H214166   9.127   8.605   5.241
 4642WAT      O14167   3.277   9.585   0.667
 4642WAT     H114168   3.240   9.647   0.737
 4642WAT     H214169   3.217   9.585   0.587
 4643WAT      O14170   3.934   4.691   4.366
 4643WAT     H114171   3.882   4.753   4.308
 4643WAT     H214172   3.877   4.613   4.392
 4644WAT      O14173   2.157   6.938   7.955
 4644WAT     H114174   2.151   6.867   7.886
 4644WAT     H214175   2.121   7.024   7.918
 4645WAT      O14176   3.064   5.559   7.601
 4645WAT     H114177   3.026   5.473   7.566
 4645WAT     H214178   2.995   5.606   7.654
 4646WAT      O14179   0.121   0.735   5.026
 4646WAT     H114180   0.073   0.791   4.959
 4646WAT     H214181   0.140   0.790   5.108
 4647WAT      O14182   9.075   2.813   0.717
 4647WAT     H114183   9.152   2.793   0.655
 4647WAT     H214184   9.051   2.909   0.709
 4648WAT      O14185   3.254   5.319   0.955
 4648WAT     H114186   3.218   5.305   0.863
 4648WAT     H214187   3.314   5.242   0.979
 4649WAT      O14188   0.941   6.666   5.708
 4649WAT     H114189   1.011   6.670   5.779
 4649WAT     H214190   0.884   6.585   5.722
 4650WAT      O14191   1.725   2.485   9.111
 4650WAT     H114192   1.706   2.579   9.082
 4650WAT     H214193   1.723   2.480   9.211
 4651WAT      O14194   6.561   2.607   9.121
 4651WAT     H114195   6.478   2.550   9.119
 4651WAT     H214196   6.608   2.594   9.208
 4652WAT      O14197   2.988   4.993   8.718
 4652WAT     H114198   2.927   4.944   8.656
 4652WAT     H214199   3.003   4.938   8.800
 4653WAT      O14200   5.692   0.393   2.113
 4653WAT     H114201   5.625   0.415   2.184
 4653WAT     H214202   5.711   0.475   2.059
 4654WAT      O14203   0.927   9.096   8.016
 4654WAT     H114204   1.004   9.088   8.080
 4654WAT     H214205   0.958   9.068   7.925
 4655WAT      O14206   7.549   1.368   0.634
 4655WAT     H114207   7.550   1.328   0.726
 4655WAT     H214208   7.484   1.445   0.632
 4656WAT      O14209   5.333   5.483   8.569
 4656WAT     H114210   5.347   5.460   8.665
 4656WAT     H214211   5.241   5.520   8.556
 4657WAT      O14212   2.911   1.633   9.698
 4657WAT     H114213   2.851   1.687   9.757
 4657WAT     H214214   2.916   1.677   9.608
 4658WAT      O14215   4.977   9.311   7.933
 4658WAT     H114216   5.029   9.302   7.848
 4658WAT     H214217   4.954   9.221   7.968
 4659WAT      O14218   5.382   3.049   6.169
 4659WAT     H114219   5.468   3.029   6.122
 4659WAT     H214220   5.398   3.117   6.240
 4660WAT      O14221   4.482   1.379   9.210
 4660WAT     H114222   4.426   1.396   9.129
 4660WAT     H214223   4.474   1.456   9.273
 4661WAT      O14224   3.064   1.216   1.717
 4661WAT     H114225   3.088   1.308   1.685
 4661WAT     H214226   3.130   1.185   1.785
 4662WAT      O14227   4.173   3.489   5.054
 4662WAT     H114228   4.075   3.510   5.055
 4662WAT     H214229   4.191   3.418   4.985
 4663WAT      O14230   9.001   4.201   8.234
 4663WAT     H114231   8.970   4.159   8.149
 4663WAT     H214232   9.012   4.299   8.221
 4664WAT      O14233   0.100   4.394   5.738
 4664WAT     H114234   0.167   4.383   5.811
 4664WAT     H214235   0.105   4.315   5.677
 4665WAT      O14236   4.422   3.219   5.200
 4665WAT     H114237   4.380   3.133   5.229
 4665WAT     H214238   4.413   3.287   5.273
 4666WAT      O14239   9.124   4.120   1.872
 4666WAT     H114240   9.078   4.160   1.951
 4666WAT     H214241   9.064   4.126   1.792
 4667WAT      O14242   4.326   4.574   1.040
 4667WAT     H114243   4.244   4.577   1.097
 4667WAT     H214244   4.345   4.665   1.003
 4668WAT      O14245   4.790   3.491   4.968
 4668WAT     H114246   4.759   3.438   5.046
 4668WAT     H214247   4.807   3.585   4.995
 4669WAT      O14248   5.886   5.161   9.316
 4669WAT     H114249   5.799   5.204   9.296
 4669WAT     H214250   5.952   5.183   9.244
 4670WAT      O14251   8.772   9.239   4.429
 4670WAT     H114252   8.722   9.312   4.383
 4670WAT     H214253   8.773   9.256   4.528
 4671WAT      O14254   2.416   1.169   7.393
 4671WAT     H114255   2.340   1.122   7.348
 4671WAT     H214256   2.383   1.214   7.476
 4672WAT      O14257   4.687   1.018   4.960
 4672WAT     H114258   4.672   0.920   4.949
 4672WAT     H214259   4.773   1.044   4.915
 4673WAT      O14260   3.954   2.202   6.850
 4673WAT     H114261   3.863   2.198   6.891
 4673WAT     H214262   4.005   2.120   6.874
 4674WAT      O14263   6.407   2.392   6.192
 4674WAT     H114264   6.423   2.491   6.201
 4674WAT     H214265   6.469   2.343   6.252
 4675WAT      O14266   9.700   3.915   2.327
 4675WAT     H114267   9.733   3.979   2.258
 4675WAT     H214268   9.711   3.821   2.295
 4676WAT      O14269   5.066   4.136   9.763
 4676WAT     H114270   5.045   4.039   9.750
 4676WAT     H214271   5.165   4.149   9.765
 4677WAT      O14272   4.486   7.511   7.933
 4677WAT     H114273   4.469   7.472   7.843
 4677WAT     H214274   4.409   7.569   7.959
 4678WAT      O14275   3.527   4.612   4.687
 4678WAT     H114276   3.448   4.551   4.686
 4678WAT     H214277   3.497   4.705   4.707
 4679WAT      O14278   5.631   3.365   2.144
 4679WAT     H114279   5.658   3.451   2.186
 4679WAT     H214280   5.536   3.371   2.113
 4680WAT      O14281   8.391   3.484   4.586
 4680WAT     H114282   8.388   3.460   4.489
 4680WAT     H214283   8.437   3.572   4.597
 4681WAT      O14284   2.904   3.225   6.782
 4681WAT     H114285   2.895   3.191   6.689
 4681WAT     H214286   2.824   3.197   6.836
 4682WAT      O14287   8.186   3.770   2.456
 4682WAT     H114288   8.160   3.749   2.362
 4682WAT     H214289   8.236   3.693   2.495
 4683WAT      O14290   6.577   3.648   0.609
 4683WAT     H114291   6.495   3.658   0.553
 4683WAT     H214292   6.608   3.552   0.606
 4684WAT      O14293   8.711   6.396   4.861
 4684WAT     H114294   8.700   6.438   4.951
 4684WAT     H214295   8.796   6.343   4.859
 4685WAT      O14296   6.832   2.677   6.209
 4685WAT     H114297   6.828   2.772   6.242
 4685WAT     H214298   6.883   2.675   6.122
 4686WAT      O14299   8.734   2.113   8.994
 4686WAT     H114300   8.689   2.140   8.908
 4686WAT     H214301   8.826   2.081   8.974
 4687WAT      O14302   0.753   8.872   9.775
 4687WAT     H114303   0.795   8.919   9.853
 4687WAT     H214304   0.671   8.922   9.748
 4688WAT      O14305   0.288   6.083   7.973
 4688WAT     H114306   0.269   6.049   7.881
 4688WAT     H214307   0.342   6.167   7.968
 4689WAT      O14308   1.948   8.749   8.730
 4689WAT     H114309   1.868   8.802   8.758
 4689WAT     H214310   1.975   8.688   8.804
 4690WAT      O14311   3.251   7.752   0.029
 4690WAT     H114312   3.230   7.815  -0.046
 4690WAT     H214313   3.206   7.664   0.013
 4691WAT      O14314   1.951   6.164   6.751
 4691WAT     H114315   1.941   6.084   6.811
 4691WAT     H214316   2.040   6.161   6.705
 4692WAT      O14317   6.560   4.330   8.479
 4692WAT     H114318   6.524   4.260   8.418
 4692WAT     H214319   6.487   4.393   8.504
 4693WAT      O14320   2.425   2.527   5.021
 4693WAT     H114321   2.454   2.557   4.931
 4693WAT     H214322   2.448   2.430   5.034
 4694WAT      O14323   8.086   5.460   4.757
 4694WAT     H114324   8.037   5.435   4.673
 4694WAT     H214325   8.160   5.523   4.734
 4695WAT      O14326   8.736   9.762   8.531
 4695WAT     H114327   8.827   9.728   8.555
 4695WAT     H214328   8.744   9.832   8.460
 4696WAT      O14329   2.000   2.973   0.240
 4696WAT     H114330   1.979   3.067   0.267
 4696WAT     H214331   2.077   2.939   0.294
 4697WAT      O14332   0.709   5.846   5.753
 4697WAT     H114333   0.682   5.936   5.788
 4697WAT     H214334   0.724   5.852   5.654
 4698WAT      O14335   1.097   3.807   2.116
 4698WAT     H114336   1.157   3.856   2.053
 4698WAT     H214337   1.081   3.715   2.083
 4699WAT      O14338   7.021   2.961   4.132
 4699WAT     H114339   6.934   2.965   4.084
 4699WAT     H214340   7.005   2.946   4.230
 4700WAT      O14341   3.904   7.908   4.073
 4700WAT     H114342   3.854   7.889   3.988
 4700WAT     H214343   3.884   7.836   4.140
 4701WAT      O14344   4.058   1.953   3.262
 4701WAT     H114345   4.084   1.993   3.350
 4701WAT     H214346   4.105   1.866   3.250
 4702WAT      O14347   7.834   5.207   1.553
 4702WAT     H114348   7.778   5.280   1.593
 4702WAT     H214349   7.839   5.130   1.616
 4703WAT      O14350   8.802   7.835   2.658
 4703WAT     H114351   8.849   7.892   2.725
 4703WAT     H214352   8.703   7.852   2.663
 4704WAT      O14353   3.104   6.892   6.605
 4704WAT     H114354   3.178   6.922   6.545
 4704WAT     H214355   3.040   6.968   6.620
 4705WAT      O14356   3.657   6.766   2.894
 4705WAT     H114357   3.746   6.809   2.882
 4705WAT     H214358   3.668   6.666   2.889
 4706WAT      O14359   2.703   3.524   2.736
 4706WAT     H114360   2.652   3.453   2.786
 4706WAT     H214361   2.645   3.561   2.663
 4707WAT      O14362   5.324   9.263   3.657
 4707WAT     H114363   5.243   9.206   3.647
 4707WAT     H214364   5.388   9.220   3.721
 4708WAT      O14365   6.614   4.642   9.523
 4708WAT     H114366   6.700   4.617   9.568
 4708WAT     H214367   6.588   4.570   9.459
 4709WAT      O14368   3.480   2.374   1.203
 4709WAT     H114369   3.449   2.443   1.267
 4709WAT     H214370   3.418   2.296   1.205
 4710WAT      O14371   2.023   8.709   6.555
 4710WAT     H114372   2.105   8.701   6.612
 4710WAT     H214373   2.048   8.747   6.466
 4711WAT      O14374   1.255   9.148   1.762
 4711WAT     H114375   1.180   9.156   1.828
 4711WAT     H214376   1.219   9.117   1.674
 4712WAT      O14377   9.115   2.073   2.452
 4712WAT     H114378   9.082   2.032   2.367
 4712WAT     H214379   9.042   2.072   2.520
 4713WAT      O14380   5.461   3.832   0.070
 4713WAT     H114381   5.408   3.911   0.099
 4713WAT     H214382   5.399   3.756   0.050
 4714WAT      O14383   6.142   9.000   1.061
 4714WAT     H114384   6.238   8.987   1.087
 4714WAT     H214385   6.110   9.089   1.094
 4715WAT      O14386   8.382   8.277   4.711
 4715WAT     H114387   8.359   8.225   4.793
 4715WAT     H214388   8.477   8.307   4.716
 4716WAT      O14389   3.976   0.994   2.236
 4716WAT     H114390   3.943   1.088   2.244
 4716WAT     H214391   3.975   0.966   2.140
 4717WAT      O14392   4.693   5.482   2.365
 4717WAT     H114393   4.699   5.390   2.326
 4717WAT     H214394   4.781   5.528   2.353
 4718WAT      O14395   3.233   3.122   0.496
 4718WAT     H114396   3.270   3.048   0.552
 4718WAT     H214397   3.169   3.083   0.429
 4719WAT      O14398   4.902   6.324   5.833
 4719WAT     H114399   4.872   6.263   5.906
 4719WAT     H214400   4.908   6.274   5.747
 4720WAT      O14401   9.646   1.186   8.491
 4720WAT     H114402   9.618   1.167   8.585
 4720WAT     H214403   9.741   1.219   8.491
 4721WAT      O14404   6.088   8.300   6.809
 4721WAT     H114405   6.094   8.344   6.719
 4721WAT     H214406   5.993   8.270   6.824
 4722WAT      O14407   3.778   0.027   3.376
 4722WAT     H114408   3.837  -0.037   3.326
 4722WAT     H214409   3.754   0.104   3.316
 4723WAT      O14410   1.509   4.402   0.139
 4723WAT     H114411   1.496   4.392   0.238
 4723WAT     H214412   1.427   4.371   0.091
 4724WAT      O14413   8.588   5.368   0.056
 4724WAT     H114414   8.596   5.464   0.081
 4724WAT     H214415   8.607   5.311   0.136
 4725WAT      O14416   0.243   9.266   3.764
 4725WAT     H114417   0.341   9.247   3.756
 4725WAT     H214418   0.221   9.285   3.860
 4726WAT      O14419   7.661   3.711   8.642
 4726WAT     H114420   7.757   3.684   8.645
 4726WAT     H214421   7.653   3.809   8.661
 4727WAT      O14422   6.315   2.682   0.022
 4727WAT     H114423   6.281   2.716  -0.066
 4727WAT     H214424   6.303   2.583   0.026
 4728WAT      O14425   7.450   5.408   4.089
 4728WAT     H114426   7.380   5.396   4.159
 4728WAT     H214427   7.538   5.378   4.124
 4729WAT      O14428   1.180   6.413   3.964
 4729WAT     H114429   1.260   6.372   3.921
 4729WAT     H214430   1.113   6.342   3.986
 4730WAT      O14431   5.137   0.622   9.561
 4730WAT     H114432   5.166   0.701   9.616
 4730WAT     H214433   5.041   0.601   9.580
 4731WAT      O14434   2.159   6.152   3.795
 4731WAT     H114435   2.236   6.114   3.745
 4731WAT     H214436   2.180   6.247   3.820
 4732WAT      O14437   8.300   9.661   3.995
 4732WAT     H114438   8.334   9.667   3.901
 4732WAT     H214439   8.201   9.643   3.994
 4733WAT      O14440   9.415   0.485   0.335
 4733WAT     H114441   9.335   0.427   0.353
 4733WAT     H214442   9.498   0.439   0.366
 4734WAT      O14443   5.385   2.470   7.904
 4734WAT     H114444   5.408   2.567   7.895
 4734WAT     H214445   5.467   2.414   7.891
 4735WAT      O14446   4.007   0.697   6.981
 4735WAT     H114447   4.071   0.628   7.016
 4735WAT     H214448   4.036   0.726   6.889
 4736WAT      O14449   8.865   3.543   7.773
 4736WAT     H114450   8.774   3.501   7.772
 4736WAT     H214451   8.863   3.630   7.725
 4737WAT      O14452   3.377   5.818   6.619
 4737WAT     H114453   3.360   5.768   6.534
 4737WAT     H214454   3.376   5.916   6.600
 4738WAT      O14455   4.967   6.759   9.587
 4738WAT     H114456   4.965   6.842   9.531
 4738WAT     H214457   4.912   6.773   9.669
 4739WAT      O14458   7.079   5.011   4.232
 4739WAT     H114459   6.992   5.041   4.192
 4739WAT     H214460   7.136   4.970   4.161
 4740WAT      O14461   3.639   7.799   9.747
 4740WAT     H114462   3.593   7.872   9.797
 4740WAT     H214463   3.575   7.755   9.685
 4741WAT      O14464   0.505   7.547   6.320
 4741WAT     H114465   0.482   7.639   6.290
 4741WAT     H214466   0.521   7.489   6.239
 4742WAT      O14467   2.127   9.716   2.099
 4742WAT     H114468   2.217   9.729   2.056
 4742WAT     H214469   2.109   9.618   2.110
 4743WAT      O14470   8.740   8.385   1.666
 4743WAT     H114471   8.770   8.466   1.716
 4743WAT     H214472   8.643   8.369   1.683
 4744WAT      O14473   9.581   6.828   5.452
 4744WAT     H114474   9.503   6.768   5.430
 4744WAT     H214475   9.562   6.877   5.536
 4745WAT      O14476   1.621   6.261   5.811
 4745WAT     H114477   1.708   6.225   5.777
 4745WAT     H214478   1.574   6.311   5.738
 4746WAT      O14479   8.689   9.163   1.477
 4746WAT     H114480   8.748   9.116   1.543
 4746WAT     H214481   8.726   9.151   1.385
 4747WAT      O14482   0.669   1.703   1.123
 4747WAT     H114483   0.731   1.625   1.121
 4747WAT     H214484   0.585   1.678   1.171
 4748WAT      O14485   9.825   7.381   1.471
 4748WAT     H114486   9.837   7.318   1.548
 4748WAT     H214487   9.912   7.428   1.453
 4749WAT      O14488   5.975   4.031   1.675
 4749WAT     H114489   6.052   3.970   1.695
 4749WAT     H214490   5.934   4.062   1.761
 4750WAT      O14491   4.070   0.824   4.793
 4750WAT     H114492   4.113   0.912   4.813
 4750WAT     H214493   4.140   0.754   4.778
 4751WAT      O14494   4.593   7.467   0.347
 4751WAT     H114495   4.647   7.386   0.369
 4751WAT     H214496   4.584   7.524   0.429
 4752WAT      O14497   1.057   1.330   4.474
 4752WAT     H114498   1.087   1.423   4.450
 4752WAT     H214499   0.958   1.329   4.485
 4753WAT      O14500   6.313   4.499   5.969
 4753WAT     H114501   6.228   4.539   6.004
 4753WAT     H214502   6.390   4.557   5.994
 4754WAT      O14503   4.208   5.751   9.539
 4754WAT     H114504   4.217   5.844   9.576
 4754WAT     H214505   4.227   5.752   9.441
 4755WAT      O14506   7.276   8.964   3.755
 4755WAT     H114507   7.295   8.866   3.748
 4755WAT     H214508   7.314   9.012   3.676
 4756WAT      O14509   0.564   3.233   9.740
 4756WAT     H114510   0.597   3.244   9.833
 4756WAT     H214511   0.606   3.151   9.699
 4757WAT      O14512   5.990   0.990   4.650
 4757WAT     H114513   5.969   0.955   4.558
 4757WAT     H214514   6.062   1.059   4.644
 4758WAT      O14515   7.799   6.993   0.064
 4758WAT     H114516   7.784   6.974   0.162
 4758WAT     H214517   7.779   6.910   0.011
 4759WAT      O14518   2.741   3.633   8.135
 4759WAT     H114519   2.675   3.569   8.174
 4759WAT     H214520   2.719   3.649   8.038
 4760WAT      O14521   2.667   3.800   2.180
 4760WAT     H114522   2.572   3.830   2.180
 4760WAT     H214523   2.674   3.713   2.130
 4761WAT      O14524   9.060   9.253   8.819
 4761WAT     H114525   9.009   9.320   8.764
 4761WAT     H214526   9.128   9.300   8.874
 4762WAT      O14527   0.925   2.267   6.959
 4762WAT     H114528   0.939   2.335   7.031
 4762WAT     H214529   0.851   2.205   6.986
 4763WAT      O14530   8.506   8.274   1.735
 4763WAT     H114531   8.545   8.187   1.704
 4763WAT     H214532   8.475   8.265   1.830
 4764WAT      O14533   2.555   3.480   4.967
 4764WAT     H114534   2.602   3.435   4.891
 4764WAT     H214535   2.552   3.578   4.951
 4765WAT      O14536   3.371   7.333   7.450
 4765WAT     H114537   3.387   7.400   7.377
 4765WAT     H214538   3.337   7.380   7.531
 4766WAT      O14539   4.414   7.497   4.685
 4766WAT     H114540   4.459   7.408   4.678
 4766WAT     H214541   4.472   7.560   4.738
 4767WAT      O14542   0.803   7.092   2.888
 4767WAT     H114543   0.862   7.141   2.952
 4767WAT     H214544   0.858   7.033   2.830
 4768WAT      O14545   9.053   3.268   6.180
 4768WAT     H114546   9.041   3.251   6.278
 4768WAT     H214547   8.987   3.336   6.150
 4769WAT      O14548   6.988   2.839   1.705
 4769WAT     H114549   7.033   2.901   1.769
 4769WAT     H214550   6.918   2.889   1.654
 4770WAT      O14551   6.672   8.060   0.629
 4770WAT     H114552   6.641   8.022   0.716
 4770WAT     H214553   6.753   8.117   0.645
 4771WAT      O14554   7.061   5.188   0.799
 4771WAT     H114555   7.025   5.104   0.839
 4771WAT     H214556   7.033   5.267   0.853
 4772WAT      O14557   6.219   3.470   0.270
 4772WAT     H114558   6.201   3.479   0.172
 4772WAT     H214559   6.134   3.446   0.317
 4773WAT      O14560   4.914   7.147   1.777
 4773WAT     H114561   4.900   7.237   1.735
 4773WAT     H214562   4.992   7.102   1.735
 4774WAT      O14563   9.087   2.820   1.789
 4774WAT     H114564   9.115   2.752   1.857
 4774WAT     H214565   9.157   2.827   1.718
 4775WAT      O14566   0.245   8.796   7.347
 4775WAT     H114567   0.329   8.741   7.352
 4775WAT     H214568   0.269   8.893   7.337
 4776WAT      O14569   4.440   2.134   3.476
 4776WAT     H114570   4.378   2.090   3.411
 4776WAT     H214571   4.447   2.232   3.454
 4777WAT      O14572   5.603   0.024   5.714
 4777WAT     H114573   5.597  -0.075   5.726
 4777WAT     H214574   5.661   0.044   5.635
 4778WAT      O14575   8.072   0.797   7.924
 4778WAT     H114576   8.000   0.740   7.884
 4778WAT     H214577   8.032   0.856   7.994
 4779WAT      O14578   0.450   2.741   9.127
 4779WAT     H114579   0.393   2.801   9.182
 4779WAT     H214580   0.499   2.677   9.187
 4780WAT      O14581   6.814   7.176   9.722
 4780WAT     H114582   6.757   7.101   9.689
 4780WAT     H214583   6.756   7.246   9.764
 4781WAT      O14584   2.214   9.175   3.409
 4781WAT     H114585   2.197   9.192   3.506
 4781WAT     H214586   2.298   9.122   3.399
 4782WAT      O14587   2.136   9.680   9.504
 4782WAT     H114588   2.092   9.766   9.479
 4782WAT     H214589   2.224   9.698   9.547
 4783WAT      O14590   4.247   8.408   9.187
 4783WAT     H114591   4.252   8.507   9.200
 4783WAT     H214592   4.162   8.374   9.227
 4784WAT      O14593   5.709   0.143   5.506
 4784WAT     H114594   5.701   0.236   5.542
 4784WAT     H214595   5.656   0.135   5.421
 4785WAT      O14596   2.845   6.296   8.311
 4785WAT     H114597   2.748   6.299   8.333
 4785WAT     H214598   2.872   6.382   8.268
 4786WAT      O14599   9.346   2.432   5.762
 4786WAT     H114600   9.322   2.382   5.678
 4786WAT     H214601   9.414   2.379   5.814
 4787WAT      O14602   5.610   2.019   1.360
 4787WAT     H114603   5.692   1.963   1.352
 4787WAT     H214604   5.547   1.997   1.286
 4788WAT      O14605   7.075   9.715   4.732
 4788WAT     H114606   6.981   9.710   4.698
 4788WAT     H214607   7.095   9.808   4.763
 4789WAT      O14608   1.087   0.219   4.445
 4789WAT     H114609   1.010   0.235   4.507
 4789WAT     H214610   1.102   0.121   4.435
 4790WAT      O14611   4.955   0.534   2.725
 4790WAT     H114612   4.907   0.615   2.690
 4790WAT     H214613   5.009   0.494   2.651
 4791WAT      O14614   1.192   6.423   7.539
 4791WAT     H114615   1.181   6.328   7.569
 4791WAT     H214616   1.211   6.481   7.618
 4792WAT      O14617   4.091   7.218   8.128
 4792WAT     H114618   4.021   7.256   8.188
 4792WAT     H214619   4.181   7.237   8.166
 4793WAT      O14620   5.789   2.213   0.893
 4793WAT     H114621   5.820   2.218   0.988
 4793WAT     H214622   5.690   2.199   0.891
 4794WAT      O14623   7.800   0.702   6.047
 4794WAT     H114624   7.749   0.781   6.011
 4794WAT     H214625   7.746   0.658   6.118
 4795WAT      O14626   5.720   4.853   2.277
 4795WAT     H114627   5.691   4.901   2.360
 4795WAT     H214628   5.698   4.756   2.285
 4796WAT      O14629   6.164   2.360   6.793
 4796WAT     H114630   6.108   2.292   6.747
 4796WAT     H214631   6.234   2.394   6.730
 4797WAT      O14632   5.921   3.917   9.712
 4797WAT     H114633   5.830   3.957   9.718
 4797WAT     H214634   5.989   3.990   9.722
 4798WAT      O14635   7.647   2.392   1.465
 4798WAT     H114636   7.693   2.397   1.554
 4798WAT     H214637   7.645   2.483   1.424
 4799WAT      O14638   9.607   6.952   7.789
 4799WAT     H114639   9.693   6.903   7.804
 4799WAT     H214640   9.589   6.960   7.691
 4800WAT      O14641   6.908   9.248   3.914
 4800WAT     H114642   7.004   9.222   3.925
 4800WAT     H214643   6.890   9.331   3.966
 4801WAT      O14644   8.128   3.429   7.665
 4801WAT     H114645   8.091   3.451   7.755
 4801WAT     H214646   8.098   3.497   7.599
 4802WAT      O14647   5.339   4.763   8.990
 4802WAT     H114648   5.307   4.833   9.053
 4802WAT     H214649   5.268   4.742   8.924
 4803WAT      O14650   9.417   1.471   4.545
 4803WAT     H114651   9.445   1.377   4.562
 4803WAT     H214652   9.488   1.533   4.580
 4804WAT      O14653   2.372   4.849   1.723
 4804WAT     H114654   2.355   4.923   1.657
 4804WAT     H214655   2.434   4.782   1.682
 4805WAT      O14656   2.489   1.848   9.160
 4805WAT     H114657   2.452   1.939   9.181
 4805WAT     H214658   2.555   1.822   9.230
 4806WAT      O14659   0.696   8.905   7.329
 4806WAT     H114660   0.656   8.906   7.237
 4806WAT     H214661   0.793   8.879   7.322
 4807WAT      O14662   4.518   5.941   9.356
 4807WAT     H114663   4.500   5.854   9.402
 4807WAT     H214664   4.556   5.924   9.265
 4808WAT      O14665   7.322   7.873   3.163
 4808WAT     H114666   7.290   7.821   3.242
 4808WAT     H214667   7.348   7.966   3.192
 4809WAT      O14668   4.096   1.883   1.356
 4809WAT     H114669   4.090   1.879   1.256
 4809WAT     H214670   4.131   1.973   1.383
 4810WAT      O14671   2.231   8.467   3.452
 4810WAT     H114672   2.255   8.468   3.550
 4810WAT     H214673   2.314   8.456   3.398
 4811WAT      O14674   3.672   3.707   2.573
 4811WAT     H114675   3.672   3.786   2.635
 4811WAT     H214676   3.728   3.727   2.493
 4812WAT      O14677   6.159   5.857   9.509
 4812WAT     H114678   6.237   5.904   9.467
 4812WAT     H214679   6.181   5.832   9.603
 4813WAT      O14680   2.040   6.968   2.375
 4813WAT     H114681   2.056   7.029   2.452
 4813WAT     H214682   1.972   6.899   2.401
 4814WAT      O14683   8.223   3.463   9.150
 4814WAT     H114684   8.200   3.558   9.171
 4814WAT     H214685   8.146   3.404   9.172
 4815WAT      O14686   1.045   1.362   3.486
 4815WAT     H114687   0.950   1.350   3.457
 4815WAT     H214688   1.103   1.297   3.437
 4816WAT      O14689   4.820   6.210   7.782
 4816WAT     H114690   4.858   6.250   7.865
 4816WAT     H214691   4.753   6.272   7.742
 4817WAT      O14692   3.578   1.100   9.610
 4817WAT     H114693   3.554   1.005   9.588
 4817WAT     H214694   3.670   1.119   9.575
 4818WAT      O14695   1.249   5.624   6.522
 4818WAT     H114696   1.313   5.547   6.511
 4818WAT     H214697   1.249   5.680   6.439
 4819WAT      O14698   3.451   1.410   0.028
 4819WAT     H114699   3.368   1.455   0.060
 4819WAT     H214700   3.427   1.330  -0.026
 4820WAT      O14701   7.507   2.015   9.644
 4820WAT     H114702   7.435   2.025   9.574
 4820WAT     H214703   7.594   2.048   9.607
 4821WAT      O14704   4.478   3.527   1.420
 4821WAT     H114705   4.400   3.508   1.479
 4821WAT     H214706   4.450   3.526   1.324
 4822WAT      O14707   1.763   3.460   3.339
 4822WAT     H114708   1.824   3.537   3.319
 4822WAT     H214709   1.811   3.374   3.320
 4823WAT      O14710   4.602   3.695   0.816
 4823WAT     H114711   4.537   3.698   0.740
 4823WAT     H214712   4.686   3.742   0.790
 4824WAT      O14713   3.769   1.768   3.302
 4824WAT     H114714   3.728   1.687   3.343
 4824WAT     H214715   3.813   1.823   3.373
 4825WAT      O14716   0.773   4.482   8.340
 4825WAT     H114717   0.707   4.543   8.383
 4825WAT     H214718   0.804   4.522   8.253
 4826WAT      O14719   3.500   2.665   9.062
 4826WAT     H114720   3.512   2.706   9.153
 4826WAT     H214721   3.497   2.737   8.993
 4827WAT      O14722   0.472   6.485   8.755
 4827WAT     H114723   0.431   6.405   8.800
 4827WAT     H214724   0.421   6.567   8.781
 4828WAT      O14725   8.068   3.712   7.960
 4828WAT     H114726   7.992   3.747   7.904
 4828WAT     H214727   8.046   3.619   7.990
 4829WAT      O14728   7.721   0.875   6.476
 4829WAT     H114729   7.743   0.778   6.477
 4829WAT     H214730   7.796   0.927   6.518
 4830WAT      O14731   7.111   1.333   0.846
 4830WAT     H114732   7.148   1.425   0.850
 4830WAT     H214733   7.026   1.333   0.793
 4831WAT      O14734   7.712   9.685   9.613
 4831WAT     H114735   7.698   9.586   9.621
 4831WAT     H214736   7.740   9.707   9.520
 4832WAT      O14737   2.050   3.032   2.556
 4832WAT     H114738   2.077   2.936   2.543
 4832WAT     H214739   2.132   3.089   2.564
 4833WAT      O14740   7.009   6.744   0.891
 4833WAT     H114741   6.919   6.749   0.934
 4833WAT     H214742   7.010   6.805   0.811
 4834WAT      O14743   6.170   8.247   0.149
 4834WAT     H114744   6.226   8.278   0.225
 4834WAT     H214745   6.074   8.270   0.166
 4835WAT      O14746   0.098   0.965   7.798
 4835WAT     H114747   0.117   0.926   7.708
 4835WAT     H214748   0.088   0.891   7.865
 4836WAT      O14749   8.159   5.977   9.197
 4836WAT     H114750   8.083   6.042   9.203
 4836WAT     H214751   8.123   5.884   9.198
 4837WAT      O14752   0.013   0.901   2.530
 4837WAT     H114753  -0.061   0.839   2.559
 4837WAT     H214754  -0.015   0.949   2.447
 4838WAT      O14755   5.639   3.913   2.928
 4838WAT     H114756   5.642   3.832   2.870
 4838WAT     H214757   5.709   3.905   2.999
 4839WAT      O14758   1.604   6.862   1.146
 4839WAT     H114759   1.562   6.890   1.232
 4839WAT     H214760   1.548   6.793   1.101
 4840WAT      O14761   8.114   7.068   9.381
 4840WAT     H114762   8.065   6.981   9.376
 4840WAT     H214763   8.210   7.053   9.358
 4841WAT      O14764   3.495   4.417   2.704
 4841WAT     H114765   3.447   4.493   2.660
 4841WAT     H214766   3.555   4.373   2.637
 4842WAT      O14767   0.534   3.577   9.187
 4842WAT     H114768   0.542   3.478   9.195
 4842WAT     H214769   0.462   3.600   9.122
 4843WAT      O14770   4.570   6.080   0.400
 4843WAT     H114771   4.537   5.986   0.393
 4843WAT     H214772   4.492   6.142   0.405
 4844WAT      O14773   9.404   6.452   2.018
 4844WAT     H114774   9.304   6.452   2.023
 4844WAT     H214775   9.442   6.430   2.108
 4845WAT      O14776   2.459   8.769   6.633
 4845WAT     H114777   2.459   8.745   6.536
 4845WAT     H214778   2.544   8.736   6.675
 4846WAT      O14779   6.110   2.994   2.721
 4846WAT     H114780   6.107   2.928   2.795
 4846WAT     H214781   6.019   3.003   2.681
 4847WAT      O14782   2.533   6.505   6.733
 4847WAT     H114783   2.508   6.572   6.663
 4847WAT     H214784   2.631   6.511   6.752
 4848WAT      O14785   5.007   8.302   4.666
 4848WAT     H114786   4.920   8.312   4.715
 4848WAT     H214787   5.004   8.221   4.608
 4849WAT      O14788   2.404   4.208   1.063
 4849WAT     H114789   2.320   4.256   1.037
 4849WAT     H214790   2.460   4.268   1.120
 4850WAT      O14791   1.814   1.874   9.825
 4850WAT     H114792   1.906   1.900   9.794
 4850WAT     H214793   1.821   1.800   9.891
 4851WAT      O14794   7.493   9.637   7.761
 4851WAT     H114795   7.535   9.644   7.670
 4851WAT     H214796   7.479   9.728   7.799
 4852WAT      O14797   3.019   8.905   9.578
 4852WAT     H114798   3.113   8.938   9.578
 4852WAT     H214799   2.973   8.934   9.493
 4853WAT      O14800   0.253   9.281   2.768
 4853WAT     H114801   0.171   9.273   2.710
 4853WAT     H214802   0.316   9.207   2.746
 4854WAT      O14803   0.838   1.121   1.889
 4854WAT     H114804   0.847   1.022   1.900
 4854WAT     H214805   0.811   1.162   1.976
 4855WAT      O14806   3.127   7.145   2.486
 4855WAT     H114807   3.221   7.179   2.484
 4855WAT     H214808   3.125   7.056   2.531
 4856WAT      O14809   3.268   4.619   4.116
 4856WAT     H114810   3.270   4.529   4.159
 4856WAT     H214811   3.230   4.611   4.024
 4857WAT      O14812   1.089   7.057   8.626
 4857WAT     H114813   1.064   7.150   8.652
 4857WAT     H214814   1.155   7.021   8.692
 4858WAT      O14815   8.674   1.842   2.063
 4858WAT     H114816   8.616   1.807   2.137
 4858WAT     H214817   8.734   1.913   2.099
 4859WAT      O14818   4.584   1.793   3.747
 4859WAT     H114819   4.521   1.818   3.821
 4859WAT     H214820   4.673   1.768   3.786
 4860WAT      O14821   8.353   2.121   0.153
 4860WAT     H114822   8.444   2.119   0.194
 4860WAT     H214823   8.343   2.203   0.097
 4861WAT      O14824   4.880   4.876   0.427
 4861WAT     H114825   4.838   4.798   0.380
 4861WAT     H214826   4.853   4.961   0.382
 4862WAT      O14827   0.773   1.016   9.070
 4862WAT     H114828   0.800   0.971   8.985
 4862WAT     H214829   0.806   0.962   9.148
 4863WAT      O14830   7.072   2.125   2.972
 4863WAT     H114831   6.997   2.158   2.915
 4863WAT     H214832   7.154   2.178   2.953
 4864WAT      O14833   4.378   7.064   8.957
 4864WAT     H114834   4.413   7.111   8.876
 4864WAT     H214835   4.281   7.043   8.943
 4865WAT      O14836   7.135   0.968   0.700
 4865WAT     H114837   7.092   0.921   0.777
 4865WAT     H214838   7.210   1.026   0.734
 4866WAT      O14839   8.171   5.140   4.250
 4866WAT     H114840   8.143   5.112   4.158
 4866WAT     H214841   8.116   5.093   4.318
 4867WAT      O14842   9.377   4.125   1.299
 4867WAT     H114843   9.441   4.199   1.319
 4867WAT     H214844   9.389   4.052   1.366
 4868WAT      O14845   3.617   2.725   0.060
 4868WAT     H114846   3.630   2.626   0.054
 4868WAT     H214847   3.681   2.771  -0.002
 4869WAT      O14848   7.089   8.656   5.536
 4869WAT     H114849   7.053   8.564   5.550
 4869WAT     H214850   7.144   8.683   5.615
 4870WAT      O14851   0.389   6.018   0.832
 4870WAT     H114852   0.434   6.003   0.744
 4870WAT     H214853   0.456   6.046   0.901
 4871WAT      O14854   2.169   8.382   8.257
 4871WAT     H114855   2.091   8.320   8.241
 4871WAT     H214856   2.177   8.399   8.356
 4872WAT      O14857   9.201   3.586   4.688
 4872WAT     H114858   9.291   3.630   4.688
 4872WAT     H214859   9.163   3.588   4.780
 4873WAT      O14860   5.439   0.074   0.608
 4873WAT     H114861   5.416   0.092   0.703
 4873WAT     H214862   5.536   0.052   0.600
 4874WAT      O14863   8.182   2.360   4.617
 4874WAT     H114864   8.238   2.335   4.696
 4874WAT     H214865   8.137   2.279   4.580
 4875WAT      O14866   6.639   9.035   6.232
 4875WAT     H114867   6.637   9.077   6.141
 4875WAT     H214868   6.734   9.028   6.263
 4876WAT      O14869   5.841   9.791   7.669
 4876WAT     H114870   5.751   9.749   7.682
 4876WAT     H214871   5.856   9.806   7.571
 4877WAT      O14872   8.213   8.704   3.503
 4877WAT     H114873   8.154   8.746   3.571
 4877WAT     H214874   8.295   8.760   3.490
 4878WAT      O14875   7.672   2.434   0.922
 4878WAT     H114876   7.664   2.510   0.985
 4878WAT     H214877   7.685   2.349   0.973
 4879WAT      O14878   7.173   7.131   0.230
 4879WAT     H114879   7.165   7.150   0.133
 4879WAT     H214880   7.220   7.043   0.243
 4880WAT      O14881   5.968   5.469   2.942
 4880WAT     H114882   5.966   5.569   2.932
 4880WAT     H214883   6.048   5.433   2.894
 4881WAT      O14884   0.349   9.602   4.286
 4881WAT     H114885   0.393   9.608   4.376
 4881WAT     H214886   0.381   9.520   4.239
 4882WAT      O14887   1.440   2.783   0.067
 4882WAT     H114888   1.522   2.746   0.024
 4882WAT     H214889   1.457   2.799   0.164
 4883WAT      O14890   5.150   1.737   6.217
 4883WAT     H114891   5.157   1.691   6.305
 4883WAT     H214892   5.054   1.749   6.193
 4884WAT      O14893   9.474   6.761   4.760
 4884WAT     H114894   9.547   6.796   4.818
 4884WAT     H214895   9.471   6.814   4.675
 4885WAT      O14896   0.163   2.959   2.545
 4885WAT     H114897   0.228   3.034   2.555
 4885WAT     H214898   0.156   2.935   2.448
 4886WAT      O14899   5.166   7.090   0.049
 4886WAT     H114900   5.120   7.155   0.109
 4886WAT     H214901   5.103   7.061  -0.023
 4887WAT      O14902   6.301   4.374   1.288
 4887WAT     H114903   6.264   4.403   1.199
 4887WAT     H214904   6.394   4.410   1.298
 4888WAT      O14905   3.685   8.172   5.080
 4888WAT     H114906   3.714   8.082   5.046
 4888WAT     H214907   3.748   8.202   5.152
 4889WAT      O14908   1.120   5.788   3.730
 4889WAT     H114909   1.150   5.847   3.805
 4889WAT     H214910   1.152   5.695   3.745
 4890WAT      O14911   4.108   6.845   8.554
 4890WAT     H114912   4.088   6.902   8.474
 4890WAT     H214913   4.037   6.858   8.623
 4891WAT      O14914   0.612   5.615   5.544
 4891WAT     H114915   0.601   5.670   5.626
 4891WAT     H214916   0.637   5.674   5.467
 4892WAT      O14917   3.594   2.066   6.704
 4892WAT     H114918   3.626   1.973   6.717
 4892WAT     H214919   3.642   2.107   6.627
 4893WAT      O14920   8.729   4.469   7.479
 4893WAT     H114921   8.665   4.421   7.419
 4893WAT     H214922   8.703   4.565   7.486
 4894WAT      O14923   8.754   7.448   2.470
 4894WAT     H114924   8.680   7.475   2.408
 4894WAT     H214925   8.820   7.391   2.420
 4895WAT      O14926   3.916   6.642   4.282
 4895WAT     H114927   4.007   6.601   4.287
 4895WAT     H214928   3.847   6.575   4.309
 4896WAT      O14929   2.919   5.540   0.754
 4896WAT     H114930   2.976   5.555   0.835
 4896WAT     H214931   2.944   5.605   0.683
 4897WAT      O14932   3.726   0.262   0.928
 4897WAT     H114933   3.664   0.340   0.932
 4897WAT     H214934   3.750   0.243   0.833
 4898WAT      O14935   8.412   8.935   2.262
 4898WAT     H114936   8.401   8.982   2.350
 4898WAT     H214937   8.348   8.859   2.256
 4899WAT      O14938   7.178   1.220   2.897
 4899WAT     H114939   7.267   1.176   2.907
 4899WAT     H214940   7.133   1.187   2.814
 4900WAT      O14941   3.983   8.146   8.145
 4900WAT     H114942   3.992   8.217   8.075
 4900WAT     H214943   3.893   8.102   8.137
 4901WAT      O14944   4.450   7.692   4.365
 4901WAT     H114945   4.449   7.619   4.434
 4901WAT     H214946   4.440   7.781   4.411
 4902WAT      O14947   8.680   1.293   6.864
 4902WAT     H114948   8.589   1.256   6.883
 4902WAT     H214949   8.747   1.251   6.925
 4903WAT      O14950   6.406   8.752   4.871
 4903WAT     H114951   6.474   8.722   4.804
 4903WAT     H214952   6.415   8.850   4.886
 4904WAT      O14953   1.485   0.133   5.529
 4904WAT     H114954   1.425   0.131   5.449
 4904WAT     H214955   1.435   0.098   5.609
 4905WAT      O14956   5.776   1.082   5.123
 4905WAT     H114957   5.785   1.024   5.204
 4905WAT     H214958   5.689   1.063   5.077
 4906WAT      O14959   0.443   9.147   7.231
 4906WAT     H114960   0.461   9.066   7.175
 4906WAT     H214961   0.528   9.176   7.276
 4907WAT      O14962   6.686   2.567   6.755
 4907WAT     H114963   6.720   2.520   6.674
 4907WAT     H214964   6.599   2.528   6.782
 4908WAT      O14965   6.214   2.092   2.509
 4908WAT     H114966   6.140   2.141   2.463
 4908WAT     H214967   6.205   2.103   2.608
 4909WAT      O14968   5.761   3.172   0.754
 4909WAT     H114969   5.773   3.271   0.758
 4909WAT     H214970   5.676   3.150   0.705
 4910WAT      O14971   6.923   9.357   3.303
 4910WAT     H114972   6.990   9.396   3.240
 4910WAT     H214973   6.833   9.357   3.260
 4911WAT      O14974   0.356   1.707   9.145
 4911WAT     H114975   0.357   1.631   9.210
 4911WAT     H214976   0.285   1.690   9.076
 4912WAT      O14977   3.563   3.571   2.221
 4912WAT     H114978   3.529   3.661   2.192
 4912WAT     H214979   3.663   3.571   2.218
 4913WAT      O14980   2.861   1.022   3.019
 4913WAT     H114981   2.778   1.007   2.965
 4913WAT     H214982   2.906   0.934   3.037
 4914WAT      O14983   1.612   2.430   9.594
 4914WAT     H114984   1.556   2.421   9.511
 4914WAT     H214985   1.674   2.353   9.601
 4915WAT      O14986   2.315   1.252   8.219
 4915WAT     H114987   2.224   1.211   8.228
 4915WAT     H214988   2.384   1.181   8.233
 4916WAT      O14989   1.133   1.933   1.130
 4916WAT     H114990   1.229   1.955   1.146
 4916WAT     H214991   1.125   1.837   1.103
 4917WAT      O14992   7.447   2.750   0.754
 4917WAT     H114993   7.401   2.663   0.738
 4917WAT     H214994   7.431   2.779   0.848
 4918WAT      O14995   9.830   2.411   9.553
 4918WAT     H114996   9.739   2.383   9.584
 4918WAT     H214997   9.841   2.387   9.457
 4919WAT      O14998   9.440   7.948   7.163
 4919WAT     H114999   9.517   8.011   7.151
 4919WAT     H215000   9.453   7.894   7.246
 4920WAT      O15001   4.032   5.161   2.352
 4920WAT     H115002   3.987   5.199   2.432
 4920WAT     H215003   4.053   5.064   2.368
 4921WAT      O15004   1.532   0.047   2.165
 4921WAT     H115005   1.455   0.027   2.227
 4921WAT     H215006   1.615   0.061   2.219
 4922WAT      O15007   2.471   2.600   2.683
 4922WAT     H115008   2.445   2.516   2.729
 4922WAT     H215009   2.402   2.670   2.698
 4923WAT      O15010   6.867   6.389   6.856
 4923WAT     H115011   6.895   6.324   6.927
 4923WAT     H215012   6.872   6.345   6.767
 4924WAT      O15013   1.457   5.610   6.055
 4924WAT     H115014   1.402   5.554   5.993
 4924WAT     H215015   1.533   5.652   6.004
 4925WAT      O15016   8.287   7.064   1.645
 4925WAT     H115017   8.383   7.078   1.669
 4925WAT     H215018   8.239   7.022   1.721
 4926WAT      O15019   0.974   8.836   2.991
 4926WAT     H115020   1.059   8.784   2.998
 4926WAT     H215021   0.897   8.778   3.018
 4927WAT      O15022   2.362   1.093   5.610
 4927WAT     H115023   2.336   1.135   5.523
 4927WAT     H215024   2.462   1.095   5.619
 4928WAT      O15025   7.044   9.174   9.707
 4928WAT     H115026   7.083   9.265   9.722
 4928WAT     H215027   7.032   9.158   9.609
 4929WAT      O15028   9.117   1.158   8.439
 4929WAT     H115029   9.088   1.075   8.392
 4929WAT     H215030   9.149   1.136   8.531
 4930WAT      O15031   0.365   9.069   0.695
 4930WAT     H115032   0.288   9.084   0.757
 4930WAT     H215033   0.331   9.053   0.603
 4931WAT      O15034   9.254   8.797   5.483
 4931WAT     H115035   9.303   8.866   5.429
 4931WAT     H215036   9.174   8.766   5.432
 4932WAT      O15037   2.507   1.260   9.401
 4932WAT     H115038   2.596   1.273   9.444
 4932WAT     H215039   2.477   1.166   9.416
 4933WAT      O15040   8.449   4.016   5.558
 4933WAT     H115041   8.546   4.028   5.580
 4933WAT     H215042   8.440   3.958   5.477
 4934WAT      O15043   7.249   0.827   3.396
 4934WAT     H115044   7.267   0.731   3.418
 4934WAT     H215045   7.183   0.865   3.461
 4935WAT      O15046   3.979   9.706   0.423
 4935WAT     H115047   3.921   9.687   0.501
 4935WAT     H215048   3.926   9.749   0.351
 4936WAT      O15049   2.489   9.550   1.202
 4936WAT     H115050   2.395   9.556   1.168
 4936WAT     H215051   2.510   9.634   1.253
 4937WAT      O15052   9.461   9.793   3.299
 4937WAT     H115053   9.501   9.745   3.221
 4937WAT     H215054   9.404   9.730   3.351
 4938WAT      O15055   7.847   7.965   4.888
 4938WAT     H115056   7.857   7.891   4.954
 4938WAT     H215057   7.774   7.942   4.823
 4939WAT      O15058   3.500   8.112   2.740
 4939WAT     H115059   3.405   8.084   2.750
 4939WAT     H215060   3.542   8.060   2.665
 4940WAT      O15061   0.041   8.258   5.472
 4940WAT     H115062   0.046   8.198   5.392
 4940WAT     H215063   0.088   8.215   5.549
 4941WAT      O15064   7.189   1.893   6.660
 4941WAT     H115065   7.281   1.894   6.623
 4941WAT     H215066   7.177   1.812   6.718
 4942WAT      O15067   7.208   6.691   5.086
 4942WAT     H115068   7.272   6.749   5.035
 4942WAT     H215069   7.188   6.609   5.033
 4943WAT      O15070   2.681   0.552   8.875
 4943WAT     H115071   2.700   0.590   8.784
 4943WAT     H215072   2.749   0.587   8.939
 4944WAT      O15073   8.487   7.385   9.293
 4944WAT     H115074   8.555   7.367   9.222
 4944WAT     H215075   8.518   7.460   9.351
 4945WAT      O15076   0.635   4.022   5.107
 4945WAT     H115077   0.681   4.009   5.019
 4945WAT     H215078   0.581   3.941   5.128
 4946WAT      O15079   6.489   0.418   9.425
 4946WAT     H115080   6.421   0.461   9.365
 4946WAT     H215081   6.573   0.472   9.423
 4947WAT      O15082   1.823   6.185   5.618
 4947WAT     H115083   1.860   6.273   5.592
 4947WAT     H215084   1.897   6.120   5.635
 4948WAT      O15085   4.732   4.211   5.001
 4948WAT     H115086   4.831   4.197   4.999
 4948WAT     H215087   4.687   4.122   5.009
 4949WAT      O15088   9.345   3.782   0.303
 4949WAT     H115089   9.434   3.776   0.349
 4949WAT     H215090   9.329   3.698   0.251
 4950WAT      O15091   9.571   9.792   1.981
 4950WAT     H115092   9.571   9.788   1.881
 4950WAT     H215093   9.575   9.887   2.010
 4951WAT      O15094   0.834   1.120   9.808
 4951WAT     H115095   0.779   1.204   9.812
 4951WAT     H215096   0.783   1.049   9.759
 4952WAT      O15097   9.205   1.738   0.631
 4952WAT     H115098   9.225   1.691   0.545
 4952WAT     H215099   9.132   1.805   0.616
 4953WAT      O15100   0.340   2.193   9.177
 4953WAT     H115101   0.327   2.096   9.198
 4953WAT     H215102   0.414   2.229   9.233
 4954WAT      O15103   8.045   2.586   0.979
 4954WAT     H115104   8.024   2.606   1.075
 4954WAT     H215105   8.138   2.617   0.958
 4955WAT      O15106   5.638   7.331   0.047
 4955WAT     H115107   5.705   7.405   0.051
 4955WAT     H215108   5.685   7.245   0.024
 4956WAT      O15109   0.693   4.480   9.652
 4956WAT     H115110   0.707   4.579   9.645
 4956WAT     H215111   0.740   4.434   9.577
 4957WAT      O15112   3.539   5.508   6.941
 4957WAT     H115113   3.466   5.443   6.960
 4957WAT     H215114   3.628   5.463   6.954
 4958WAT      O15115   3.263   6.213   8.651
 4958WAT     H115116   3.338   6.214   8.586
 4958WAT     H215117   3.251   6.120   8.687
 4959WAT      O15118   7.648   6.266   0.120
 4959WAT     H115119   7.558   6.263   0.077
 4959WAT     H215120   7.656   6.192   0.187
 4960WAT      O15121   7.229   2.921   9.818
 4960WAT     H115122   7.149   2.900   9.874
 4960WAT     H215123   7.237   3.020   9.806
 4961WAT      O15124   9.816   9.192   2.832
 4961WAT     H115125   9.804   9.115   2.769
 4961WAT     H215126   9.848   9.272   2.780
 4962WAT      O15127   3.154   9.604   7.562
 4962WAT     H115128   3.119   9.684   7.513
 4962WAT     H215129   3.122   9.606   7.657
 4963WAT      O15130   4.472   7.435   7.642
 4963WAT     H115131   4.482   7.512   7.579
 4963WAT     H215132   4.396   7.377   7.611
 4964WAT      O15133   8.202   3.465   1.126
 4964WAT     H115134   8.175   3.402   1.198
 4964WAT     H215135   8.286   3.432   1.082
 4965WAT      O15136   1.166   7.254   6.065
 4965WAT     H115137   1.214   7.261   6.152
 4965WAT     H215138   1.218   7.196   6.003
 4966WAT      O15139   0.313   6.326   0.089
 4966WAT     H115140   0.409   6.298   0.097
 4966WAT     H215141   0.308   6.423   0.066
 4967WAT      O15142   2.748   3.740   3.903
 4967WAT     H115143   2.677   3.670   3.900
 4967WAT     H215144   2.728   3.806   3.975
 4968WAT      O15145   1.722   6.750   2.097
 4968WAT     H115146   1.818   6.731   2.121
 4968WAT     H215147   1.664   6.676   2.131
 4969WAT      O15148   8.588   5.544   2.957
 4969WAT     H115149   8.657   5.472   2.963
 4969WAT     H215150   8.534   5.546   3.041
 4970WAT      O15151   5.202   1.514   4.633
 4970WAT     H115152   5.154   1.596   4.664
 4970WAT     H215153   5.301   1.530   4.637
 4971WAT      O15154   8.706   2.414   6.863
 4971WAT     H115155   8.685   2.330   6.813
 4971WAT     H215156   8.774   2.394   6.934
 4972WAT      O15157   1.756   2.307   2.547
 4972WAT     H115158   1.672   2.295   2.600
 4972WAT     H215159   1.737   2.286   2.451
 4973WAT      O15160   1.163   8.520   5.337
 4973WAT     H115161   1.257   8.494   5.314
 4973WAT     H215162   1.126   8.455   5.404
 4974WAT      O15163   3.404   9.671   4.510
 4974WAT     H115164   3.409   9.742   4.581
 4974WAT     H215165   3.316   9.626   4.515
 4975WAT      O15166   0.964   0.415   8.622
 4975WAT     H115167   0.960   0.397   8.523
 4975WAT     H215168   0.938   0.333   8.672
 4976WAT      O15169   5.887   4.951   6.992
 4976WAT     H115170   5.895   4.930   7.089
 4976WAT     H215171   5.791   4.947   6.965
 4977WAT      O15172   3.283   7.301   0.057
 4977WAT     H115173   3.336   7.300   0.142
 4977WAT     H215174   3.224   7.382   0.056
 4978WAT      O15175   2.274   5.227   9.841
 4978WAT     H115176   2.253   5.300   9.907
 4978WAT     H215177   2.203   5.157   9.847
 4979WAT      O15178   8.594   8.651   0.142
 4979WAT     H115179   8.496   8.648   0.120
 4979WAT     H215180   8.633   8.560   0.130
 4980WAT      O15181   8.160   2.291   3.036
 4980WAT     H115182   8.234   2.250   3.089
 4980WAT     H215183   8.172   2.266   2.939
 4981WAT      O15184   3.408   4.301   0.304
 4981WAT     H115185   3.358   4.280   0.387
 4981WAT     H215186   3.345   4.303   0.226
 4982WAT      O15187   6.365   1.889   9.796
 4982WAT     H115188   6.357   1.914   9.893
 4982WAT     H215189   6.409   1.964   9.746
 4983WAT      O15190   8.563   7.950   4.918
 4983WAT     H115191   8.652   7.988   4.890
 4983WAT     H215192   8.558   7.854   4.890
 4984WAT      O15193   6.864   6.283   5.360
 4984WAT     H115194   6.849   6.248   5.452
 4984WAT     H215195   6.835   6.214   5.293
 4985WAT      O15196   4.835   5.354   6.255
 4985WAT     H115197   4.823   5.284   6.325
 4985WAT     H215198   4.899   5.322   6.185
 4986WAT      O15199   7.449   0.963   8.344
 4986WAT     H115200   7.487   0.871   8.358
 4986WAT     H215201   7.367   0.973   8.401
 4987WAT      O15202   8.358   6.985   3.716
 4987WAT     H115203   8.360   7.037   3.631
 4987WAT     H215204   8.351   6.887   3.695
 4988WAT      O15205   4.254   4.693   3.469
 4988WAT     H115206   4.284   4.740   3.385
 4988WAT     H215207   4.218   4.760   3.534
 4989WAT      O15208   4.482   3.692   0.166
 4989WAT     H115209   4.399   3.706   0.112
 4989WAT     H215210   4.554   3.657   0.106
 4990WAT      O15211   8.648   8.085   6.486
 4990WAT     H115212   8.549   8.097   6.486
 4990WAT     H215213   8.681   8.073   6.579
 4991WAT      O15214   7.236   9.301   5.974
 4991WAT     H115215   7.288   9.249   5.906
 4991WAT     H215216   7.165   9.242   6.013
 4992WAT      O15217   8.336   8.322   3.971
 4992WAT     H115218   8.413   8.318   3.907
 4992WAT     H215219   8.274   8.395   3.944
 4993WAT      O15220   2.450   9.672   3.774
 4993WAT     H115221   2.535   9.629   3.744
 4993WAT     H215222   2.453   9.687   3.873
 4994WAT      O15223   9.761   9.568   5.219
 4994WAT     H115224   9.772   9.615   5.132
 4994WAT     H215225   9.720   9.630   5.286
 4995WAT      O15226   1.435   1.783   4.154
 4995WAT     H115227   1.483   1.743   4.076
 4995WAT     H215228   1.357   1.836   4.121
 4996WAT      O15229   3.860   0.936   6.981
 4996WAT     H115230   3.871   0.945   7.080
 4996WAT     H215231   3.927   0.872   6.945
 4997WAT      O15232   6.756   1.588   4.141
 4997WAT     H115233   6.815   1.561   4.066
 4997WAT     H215234   6.707   1.508   4.176
 4998WAT      O15235   4.967   0.227   0.494
 4998WAT     H115236   5.048   0.196   0.444
 4998WAT     H215237   4.971   0.326   0.506
 4999WAT      O15238   5.165   2.533   4.046
 4999WAT     H115239   5.158   2.577   4.136
 4999WAT     H215240   5.113   2.584   3.979
 5000WAT      O15241   7.670   2.163   2.927
 5000WAT     H115242   7.598   2.115   2.976
 5000WAT     H215243   7.736   2.200   2.992
 5001WAT      O15244   3.512   2.999   7.673
 5001WAT     H115245   3.513   2.907   7.714
 5001WAT     H215246   3.437   3.005   7.607
 5002WAT      O15247   4.837   2.309   8.690
 5002WAT     H115248   4.743   2.294   8.660
 5002WAT     H215249   4.853   2.258   8.775
 5003WAT      O15250   2.402   6.566   7.833
 5003WAT     H115251   2.350   6.510   7.897
 5003WAT     H215252   2.416   6.657   7.871
 5004WAT      O15253   1.159   3.550   8.519
 5004WAT     H115254   1.159   3.462   8.568
 5004WAT     H215255   1.206   3.619   8.575
 5005WAT      O15256   2.533   8.391   5.065
 5005WAT     H115257   2.502   8.483   5.038
 5005WAT     H215258   2.604   8.399   5.134
 5006WAT      O15259   7.253   3.005   6.366
 5006WAT     H115260   7.308   3.074   6.413
 5006WAT     H215261   7.186   3.050   6.308
 5007WAT      O15262   6.563   1.130   2.224
 5007WAT     H115263   6.654   1.115   2.186
 5007WAT     H215264   6.502   1.056   2.195
 5008WAT      O15265   5.116   3.917   9.241
 5008WAT     H115266   5.140   3.941   9.147
 5008WAT     H215267   5.074   3.826   9.242
 5009WAT      O15268   4.343   3.530   5.243
 5009WAT     H115269   4.311   3.475   5.166
 5009WAT     H215270   4.267   3.585   5.278
 5010WAT      O15271   9.822   1.544   4.463
 5010WAT     H115272   9.891   1.606   4.500
 5010WAT     H215273   9.822   1.458   4.514
 5011WAT      O15274   5.943   3.645   5.513
 5011WAT     H115275   5.866   3.693   5.553
 5011WAT     H215276   5.911   3.565   5.462
 5012WAT      O15277   1.093   1.156   3.294
 5012WAT     H115278   1.191   1.140   3.281
 5012WAT     H215279   1.041   1.097   3.232
 5013WAT      O15280   4.658   1.249   6.504
 5013WAT     H115281   4.659   1.335   6.554
 5013WAT     H215282   4.640   1.266   6.407
 5014WAT      O15283   6.754   8.403   7.521
 5014WAT     H115284   6.776   8.437   7.429
 5014WAT     H215285   6.655   8.397   7.532
 5015WAT      O15286   9.746   5.469   2.076
 5015WAT     H115287   9.745   5.429   1.984
 5015WAT     H215288   9.814   5.543   2.079
 5016WAT      O15289   0.031   9.208   6.926
 5016WAT     H115290   0.055   9.279   6.861
 5016WAT     H215291  -0.061   9.174   6.906
 5017WAT      O15292   0.256   0.545   9.463
 5017WAT     H115293   0.235   0.622   9.523
 5017WAT     H215294   0.181   0.480   9.464
 5018WAT      O15295   2.891   8.075   7.742
 5018WAT     H115296   2.824   8.107   7.810
 5018WAT     H215297   2.844   8.016   7.676
 5019WAT      O15298   7.015   3.930   1.151
 5019WAT     H115299   7.020   3.904   1.247
 5019WAT     H215300   6.930   3.894   1.111
 5020WAT      O15301   6.222   7.478   7.023
 5020WAT     H115302   6.321   7.481   7.017
 5020WAT     H215303   6.193   7.391   7.064
 5021WAT      O15304   7.998   0.132   3.679
 5021WAT     H115305   8.002   0.033   3.665
 5021WAT     H215306   8.003   0.178   3.590
 5022WAT      O15307   2.234   5.209   1.824
 5022WAT     H115308   2.173   5.287   1.840
 5022WAT     H215309   2.223   5.177   1.729
 5023WAT      O15310   2.104   0.278   0.117
 5023WAT     H115311   2.074   0.245   0.207
 5023WAT     H215312   2.030   0.264   0.051
 5024WAT      O15313   5.657   8.988   0.551
 5024WAT     H115314   5.660   8.904   0.498
 5024WAT     H215315   5.592   8.977   0.627
 5025WAT      O15316   4.157   4.657   7.282
 5025WAT     H115317   4.197   4.687   7.196
 5025WAT     H215318   4.219   4.678   7.357
 5026WAT      O15319   8.157   0.387   7.876
 5026WAT     H115320   8.077   0.427   7.921
 5026WAT     H215321   8.186   0.306   7.927
 5027WAT      O15322   1.934   1.879   1.121
 5027WAT     H115323   1.874   1.819   1.174
 5027WAT     H215324   1.895   1.970   1.117
 5028WAT      O15325   4.943   7.140   1.218
 5028WAT     H115326   4.882   7.110   1.291
 5028WAT     H215327   5.037   7.148   1.254
 5029WAT      O15328   3.470   8.568   6.852
 5029WAT     H115329   3.477   8.630   6.774
 5029WAT     H215330   3.561   8.536   6.878
 5030WAT      O15331   4.796   3.725   4.571
 5030WAT     H115332   4.707   3.748   4.533
 5030WAT     H215333   4.797   3.628   4.598
 5031WAT      O15334   9.663   4.290   0.749
 5031WAT     H115335   9.618   4.215   0.699
 5031WAT     H215336   9.748   4.315   0.702
 5032WAT      O15337   8.581   1.958   4.530
 5032WAT     H115338   8.617   1.942   4.438
 5032WAT     H215339   8.613   1.885   4.591
 5033WAT      O15340   0.521   3.024   5.772
 5033WAT     H115341   0.461   3.051   5.697
 5033WAT     H215342   0.538   3.103   5.832
 5034WAT      O15343   4.961   9.792   0.104
 5034WAT     H115344   4.888   9.837   0.155
 5034WAT     H215345   4.984   9.705   0.148
 5035WAT      O15346   0.773   6.780   8.421
 5035WAT     H115347   0.780   6.682   8.402
 5035WAT     H215348   0.855   6.810   8.470
 5036WAT      O15349   3.058   4.254   7.248
 5036WAT     H115350   3.016   4.343   7.235
 5036WAT     H215351   3.039   4.222   7.341
 5037WAT      O15352   1.353   4.253   3.724
 5037WAT     H115353   1.261   4.235   3.758
 5037WAT     H215354   1.352   4.254   3.624
 5038WAT      O15355   3.342   5.099   0.374
 5038WAT     H115356   3.341   5.054   0.284
 5038WAT     H215357   3.435   5.098   0.410
 5039WAT      O15358   4.194   6.256   1.328
 5039WAT     H115359   4.271   6.279   1.387
 5039WAT     H215360   4.194   6.316   1.248
 5040WAT      O15361   5.999   9.048   5.323
 5040WAT     H115362   5.989   8.964   5.270
 5040WAT     H215363   6.040   9.027   5.411
 5041WAT      O15364   6.936   2.322   6.795
 5041WAT     H115365   6.969   2.370   6.877
 5041WAT     H215366   6.918   2.388   6.723
 5042WAT      O15367   2.814   5.803   3.273
 5042WAT     H115368   2.731   5.806   3.328
 5042WAT     H215369   2.893   5.822   3.331
 5043WAT      O15370   3.597   1.989   3.205
 5043WAT     H115371   3.666   1.928   3.243
 5043WAT     H215372   3.509   1.971   3.250
 5044WAT      O15373   7.929   6.113   6.853
 5044WAT     H115374   7.988   6.133   6.931
 5044WAT     H215375   7.834   6.131   6.879
 5045WAT      O15376   8.565   8.448   7.633
 5045WAT     H115377   8.511   8.523   7.596
 5045WAT     H215378   8.547   8.439   7.731
 5046WAT      O15379   7.043   3.708   1.732
 5046WAT     H115380   6.991   3.739   1.653
 5046WAT     H215381   7.005   3.622   1.766
 5047WAT      O15382   5.879   2.071   8.175
 5047WAT     H115383   5.919   2.002   8.235
 5047WAT     H215384   5.894   2.162   8.214
 5048WAT      O15385   2.568   6.286   0.451
 5048WAT     H115386   2.665   6.311   0.454
 5048WAT     H215387   2.515   6.353   0.502
 5049WAT      O15388   3.326   8.299   5.522
 5049WAT     H115389   3.249   8.236   5.533
 5049WAT     H215390   3.399   8.254   5.471
 5050WAT      O15391   4.388   4.918   8.987
 5050WAT     H115392   4.299   4.944   9.024
 5050WAT     H215393   4.460   4.939   9.053
 5051WAT      O15394   7.077   9.688   9.569
 5051WAT     H115395   7.098   9.732   9.657
 5051WAT     H215396   6.984   9.713   9.541
 5052WAT      O15397   1.392   3.094   0.664
 5052WAT     H115398   1.324   3.085   0.591
 5052WAT     H215399   1.439   3.007   0.677
 5053WAT      O15400   3.605   7.675   0.766
 5053WAT     H115401   3.675   7.739   0.732
 5053WAT     H215402   3.638   7.631   0.849
 5054WAT      O15403   8.432   0.972   3.125
 5054WAT     H115404   8.510   1.025   3.091
 5054WAT     H215405   8.444   0.876   3.100
 5055WAT      O15406   5.002   0.051   8.646
 5055WAT     H115407   5.051  -0.035   8.664
 5055WAT     H215408   4.999   0.068   8.548
 5056WAT      O15409   8.843   5.738   3.866
 5056WAT     H115410   8.886   5.654   3.898
 5056WAT     H215411   8.852   5.745   3.767
 5057WAT      O15412   2.277   0.954   4.768
 5057WAT     H115413   2.305   1.038   4.721
 5057WAT     H215414   2.302   0.875   4.713
 5058WAT      O15415   9.370   7.956   3.048
 5058WAT     H115416   9.440   8.023   3.023
 5058WAT     H215417   9.294   7.962   2.985
 5059WAT      O15418   7.859   2.153   5.220
 5059WAT     H115419   7.828   2.068   5.177
 5059WAT     H215420   7.786   2.222   5.213
 5060WAT      O15421   1.057   0.736   1.325
 5060WAT     H115422   1.014   0.646   1.335
 5060WAT     H215423   1.148   0.726   1.285
 5061WAT      O15424   8.056   1.563   6.739
 5061WAT     H115425   8.062   1.468   6.767
 5061WAT     H215426   7.994   1.572   6.661
 5062WAT      O15427   5.179   5.630   7.037
 5062WAT     H115428   5.186   5.540   7.079
 5062WAT     H215429   5.140   5.695   7.102
 5063WAT      O15430   8.956   0.466   9.137
 5063WAT     H115431   8.875   0.524   9.130
 5063WAT     H215432   8.994   0.450   9.046
 5064WAT      O15433   6.308   4.306   6.925
 5064WAT     H115434   6.220   4.308   6.971
 5064WAT     H215435   6.382   4.303   6.993
 5065WAT      O15436   5.818   8.476   5.497
 5065WAT     H115437   5.842   8.488   5.401
 5065WAT     H215438   5.771   8.558   5.529
 5066WAT      O15439   2.709   0.407   6.688
 5066WAT     H115440   2.688   0.313   6.713
 5066WAT     H215441   2.704   0.418   6.589
 5067WAT      O15442   7.952   9.381   4.024
 5067WAT     H115443   7.898   9.341   4.098
 5067WAT     H215444   7.919   9.347   3.936
 5068WAT      O15445   6.479   2.343   3.349
 5068WAT     H115446   6.543   2.370   3.277
 5068WAT     H215447   6.473   2.243   3.352
 5069WAT      O15448   0.669   2.000   3.598
 5069WAT     H115449   0.764   2.015   3.628
 5069WAT     H215450   0.641   1.907   3.624
 5070WAT      O15451   6.008   5.245   5.109
 5070WAT     H115452   5.946   5.173   5.076
 5070WAT     H215453   5.994   5.328   5.054
 5071WAT      O15454   7.993   8.997   0.719
 5071WAT     H115455   8.087   9.031   0.724
 5071WAT     H215456   7.992   8.905   0.681
 5072WAT      O15457   7.354   4.050   6.463
 5072WAT     H115458   7.262   4.027   6.431
 5072WAT     H215459   7.372   4.147   6.444
 5073WAT      O15460   0.909   3.335   9.071
 5073WAT     H115461   0.865   3.247   9.059
 5073WAT     H215462   0.856   3.391   9.135
 5074WAT      O15463   4.277   4.838   1.200
 5074WAT     H115464   4.287   4.888   1.286
 5074WAT     H215465   4.196   4.779   1.205
 5075WAT      O15466   8.431   6.390   8.928
 5075WAT     H115467   8.475   6.424   8.844
 5075WAT     H215468   8.445   6.292   8.935
 5076WAT      O15469   7.416   3.003   2.930
 5076WAT     H115470   7.495   2.941   2.924
 5076WAT     H215471   7.447   3.097   2.912
 5077WAT      O15472   7.748   4.504   1.959
 5077WAT     H115473   7.756   4.538   2.053
 5077WAT     H215474   7.835   4.514   1.912
 5078WAT      O15475   5.350   8.800   0.450
 5078WAT     H115476   5.449   8.791   0.439
 5078WAT     H215477   5.330   8.867   0.522
 5079WAT      O15478   0.625   8.707   5.958
 5079WAT     H115479   0.667   8.672   6.042
 5079WAT     H215480   0.683   8.778   5.919
 5080WAT      O15481   9.099   3.492   4.444
 5080WAT     H115482   9.163   3.537   4.507
 5080WAT     H215483   9.150   3.440   4.376
 5081WAT      O15484   8.241   5.633   2.140
 5081WAT     H115485   8.313   5.701   2.151
 5081WAT     H215486   8.280   5.541   2.142
 5082WAT      O15487   9.447   4.741   3.578
 5082WAT     H115488   9.419   4.810   3.644
 5082WAT     H215489   9.384   4.663   3.584
 5083WAT      O15490   6.777   2.686   2.329
 5083WAT     H115491   6.702   2.729   2.379
 5083WAT     H215492   6.786   2.591   2.357
 5084WAT      O15493   9.174   8.905   0.760
 5084WAT     H115494   9.185   8.997   0.796
 5084WAT     H215495   9.262   8.857   0.764
 5085WAT      O15496   1.926   8.221   4.811
 5085WAT     H115497   1.930   8.320   4.824
 5085WAT     H215498   1.937   8.200   4.714
 5086WAT      O15499   7.430   1.666   2.088
 5086WAT     H115500   7.504   1.599   2.085
 5086WAT     H215501   7.463   1.749   2.134
 5087WAT      O15502   9.216   9.149   9.429
 5087WAT     H115503   9.235   9.073   9.367
 5087WAT     H215504   9.135   9.198   9.399
 5088WAT      O15505   9.844   2.081   6.820
 5088WAT     H115506   9.930   2.118   6.785
 5088WAT     H215507   9.772   2.095   6.752
 5089WAT      O15508   9.340   5.466   4.415
 5089WAT     H115509   9.271   5.477   4.344
 5089WAT     H215510   9.325   5.533   4.488
 5090WAT      O15511   7.093   8.644   4.279
 5090WAT     H115512   7.061   8.550   4.288
 5090WAT     H215513   7.104   8.684   4.370
 5091WAT      O15514   2.636   3.856   1.243
 5091WAT     H115515   2.633   3.761   1.273
 5091WAT     H215516   2.545   3.885   1.213
 5092WAT      O15517   6.418   8.465   2.681
 5092WAT     H115518   6.348   8.535   2.668
 5092WAT     H215519   6.389   8.403   2.754
 5093WAT      O15520   0.142   5.438   3.477
 5093WAT     H115521   0.191   5.519   3.509
 5093WAT     H215522   0.157   5.428   3.378
 5094WAT      O15523   5.118   0.686   6.242
 5094WAT     H115524   5.047   0.655   6.179
 5094WAT     H215525   5.169   0.762   6.200
 5095WAT      O15526   2.380   0.504   9.156
 5095WAT     H115527   2.440   0.430   9.127
 5095WAT     H215528   2.291   0.495   9.110
 5096WAT      O15529   6.210   7.130   0.518
 5096WAT     H115530   6.140   7.157   0.453
 5096WAT     H215531   6.223   7.031   0.515
 5097WAT      O15532   3.609   3.725   1.274
 5097WAT     H115533   3.584   3.658   1.344
 5097WAT     H215534   3.703   3.755   1.289
 5098WAT      O15535   8.525   9.725   2.881
 5098WAT     H115536   8.532   9.639   2.932
 5098WAT     H215537   8.431   9.758   2.885
 5099WAT      O15538   4.672   4.852   9.782
 5099WAT     H115539   4.633   4.848   9.874
 5099WAT     H215540   4.611   4.807   9.717
 5100WAT      O15541   1.517   1.654   3.913
 5100WAT     H115542   1.609   1.623   3.937
 5100WAT     H215543   1.511   1.663   3.814
 5101WAT      O15544   3.547   6.665   7.509
 5101WAT     H115545   3.510   6.739   7.564
 5101WAT     H215546   3.497   6.660   7.422
 5102WAT      O15547   4.251   2.205   3.718
 5102WAT     H115548   4.247   2.247   3.627
 5102WAT     H215549   4.343   2.215   3.755
 5103WAT      O15550   1.840   1.240   3.994
 5103WAT     H115551   1.896   1.311   3.951
 5103WAT     H215552   1.746   1.247   3.962
 5104WAT      O15553   1.776   1.854   9.524
 5104WAT     H115554   1.710   1.922   9.558
 5104WAT     H215555   1.740   1.762   9.539
 5105WAT      O15556   4.975   1.799   5.733
 5105WAT     H115557   4.981   1.887   5.687
 5105WAT     H215558   4.960   1.727   5.664
 5106WAT      O15559   2.283   9.314   3.178
 5106WAT     H115560   2.247   9.256   3.251
 5106WAT     H215561   2.363   9.364   3.211
 5107WAT      O15562   2.135   0.435   8.412
 5107WAT     H115563   2.225   0.399   8.389
 5107WAT     H215564   2.114   0.514   8.355
 5108WAT      O15565   4.754   3.374   6.020
 5108WAT     H115566   4.706   3.460   6.007
 5108WAT     H215567   4.794   3.344   5.934
 5109WAT      O15568   0.731   2.295   0.886
 5109WAT     H115569   0.762   2.208   0.846
 5109WAT     H215570   0.797   2.325   0.955
 5110WAT      O15571   1.897   5.200   5.055
 5110WAT     H115572   1.845   5.236   5.133
 5110WAT     H215573   1.986   5.168   5.087
 5111WAT      O15574   3.464   6.909   7.599
 5111WAT     H115575   3.488   6.998   7.561
 5111WAT     H215576   3.455   6.916   7.698
 5112WAT      O15577   5.885   2.741   7.956
 5112WAT     H115578   5.906   2.802   7.880
 5112WAT     H215579   5.969   2.723   8.008
 5113WAT      O15580   7.388   3.211   8.595
 5113WAT     H115581   7.310   3.263   8.630
 5113WAT     H215582   7.413   3.246   8.504
 5114WAT      O15583   1.709   8.689   2.352
 5114WAT     H115584   1.667   8.778   2.336
 5114WAT     H215585   1.805   8.701   2.376
 5115WAT      O15586   4.794   7.493   7.843
 5115WAT     H115587   4.716   7.526   7.895
 5115WAT     H215588   4.797   7.539   7.754
 5116WAT      O15589   9.624   7.251   9.672
 5116WAT     H115590   9.545   7.283   9.725
 5116WAT     H215591   9.680   7.330   9.646
 5117WAT      O15592   7.253   8.493   3.043
 5117WAT     H115593   7.242   8.423   2.971
 5117WAT     H215594   7.295   8.575   3.003
 5118WAT      O15595   7.662   2.893   0.465
 5118WAT     H115596   7.715   2.837   0.529
 5118WAT     H215597   7.693   2.875   0.372
 5119WAT      O15598   6.239   6.414   9.324
 5119WAT     H115599   6.139   6.419   9.321
 5119WAT     H215600   6.278   6.504   9.303
 5120WAT      O15601   1.928   0.995   7.096
 5120WAT     H115602   1.866   0.960   7.026
 5120WAT     H215603   1.930   0.932   7.174
 5121WAT      O15604   5.313   7.306   6.081
 5121WAT     H115605   5.397   7.252   6.078
 5121WAT     H215606   5.277   7.307   6.174
 5122WAT      O15607   4.849   7.382   3.528
 5122WAT     H115608   4.946   7.380   3.503
 5122WAT     H215609   4.808   7.293   3.507
 5123WAT      O15610   2.897   6.792   5.133
 5123WAT     H115611   2.971   6.858   5.145
 5123WAT     H215612   2.894   6.763   5.038
 5124WAT      O15613   3.296   4.721   7.084
 5124WAT     H115614   3.261   4.768   7.004
 5124WAT     H215615   3.279   4.622   7.075
 5125WAT      O15616   6.788   8.159   8.451
 5125WAT     H115617   6.824   8.211   8.373
 5125WAT     H215618   6.820   8.200   8.536
 5126WAT      O15619   5.999   8.620   6.701
 5126WAT     H115620   6.084   8.576   6.675
 5126WAT     H215621   6.010   8.664   6.790
 5127WAT      O15622   0.456   6.803   3.542
 5127WAT     H115623   0.555   6.812   3.555
 5127WAT     H215624   0.412   6.796   3.632
 5128WAT      O15625   5.173   9.445   3.755
 5128WAT     H115626   5.232   9.365   3.740
 5128WAT     H215627   5.078   9.417   3.747
 5129WAT      O15628   3.441   8.589   4.975
 5129WAT     H115629   3.460   8.492   4.964
 5129WAT     H215630   3.494   8.641   4.908
 5130WAT      O15631   0.876   8.056   9.456
 5130WAT     H115632   0.912   7.964   9.476
 5130WAT     H215633   0.781   8.049   9.424
 5131WAT      O15634   7.870   0.921   3.445
 5131WAT     H115635   7.915   0.847   3.495
 5131WAT     H215636   7.874   1.005   3.498
 5132WAT      O15637   6.826   8.559   6.704
 5132WAT     H115638   6.900   8.599   6.649
 5132WAT     H215639   6.865   8.507   6.780
 5133WAT      O15640   0.750   5.717   2.821
 5133WAT     H115641   0.817   5.739   2.750
 5133WAT     H215642   0.798   5.694   2.906
 5134WAT      O15643   6.137   4.818   0.441
 5134WAT     H115644   6.137   4.751   0.516
 5134WAT     H215645   6.048   4.863   0.438
 5135WAT      O15646   8.099   5.818   4.771
 5135WAT     H115647   8.033   5.830   4.696
 5135WAT     H215648   8.089   5.726   4.809
 5136WAT      O15649   5.061   0.839   3.606
 5136WAT     H115650   5.109   0.752   3.596
 5136WAT     H215651   5.127   0.914   3.602
 5137WAT      O15652   2.276   6.654   8.788
 5137WAT     H115653   2.365   6.608   8.787
 5137WAT     H215654   2.213   6.605   8.727
 5138WAT      O15655   9.328   1.157   1.351
 5138WAT     H115656   9.354   1.139   1.256
 5138WAT     H215657   9.254   1.224   1.354
 5139WAT      O15658   4.545   3.203   7.177
 5139WAT     H115659   4.586   3.290   7.206
 5139WAT     H215660   4.459   3.221   7.129
 5140WAT      O15661   2.396   6.099   0.330
 5140WAT     H115662   2.425   6.163   0.401
 5140WAT     H215663   2.323   6.040   0.365
 5141WAT      O15664   9.492   7.777   0.105
 5141WAT     H115665   9.492   7.869   0.066
 5141WAT     H215666   9.483   7.710   0.031
 5142WAT      O15667   6.364   5.853   0.876
 5142WAT     H115668   6.360   5.789   0.952
 5142WAT     H215669   6.308   5.934   0.896
 5143WAT      O15670   6.842   2.232   2.749
 5143WAT     H115671   6.897   2.181   2.682
 5143WAT     H215672   6.781   2.295   2.701
 5144WAT      O15673   9.249   4.418   4.882
 5144WAT     H115674   9.181   4.390   4.814
 5144WAT     H215675   9.207   4.422   4.972
 5145WAT      O15676   9.846   0.351   6.681
 5145WAT     H115677   9.765   0.401   6.651
 5145WAT     H215678   9.830   0.253   6.672
 5146WAT      O15679   2.694   8.839   8.033
 5146WAT     H115680   2.638   8.790   8.100
 5146WAT     H215681   2.665   8.812   7.940
 5147WAT      O15682   8.393   8.088   2.322
 5147WAT     H115683   8.369   8.126   2.412
 5147WAT     H215684   8.310   8.078   2.267
 5148WAT      O15685   2.890   9.638   3.330
 5148WAT     H115686   2.883   9.725   3.280
 5148WAT     H215687   2.957   9.647   3.404
 5149WAT      O15688   7.050   5.352   8.918
 5149WAT     H115689   7.057   5.351   8.818
 5149WAT     H215690   7.137   5.383   8.957
 5150WAT      O15691   4.174   8.685   1.844
 5150WAT     H115692   4.182   8.616   1.773
 5150WAT     H215693   4.081   8.724   1.844
 5151WAT      O15694   5.949   7.507   2.489
 5151WAT     H115695   5.901   7.455   2.419
 5151WAT     H215696   5.930   7.605   2.479
 5152WAT      O15697   9.663   2.427   7.194
 5152WAT     H115698   9.694   2.355   7.131
 5152WAT     H215699   9.740   2.461   7.246
 5153WAT      O15700   6.444   1.195   3.202
 5153WAT     H115701   6.380   1.232   3.134
 5153WAT     H215702   6.398   1.190   3.291
 5154WAT      O15703   3.363   8.080   4.541
 5154WAT     H115704   3.459   8.065   4.566
 5154WAT     H215705   3.328   8.159   4.592
 5155WAT      O15706   5.092   2.137   9.605
 5155WAT     H115707   5.169   2.147   9.542
 5155WAT     H215708   5.072   2.040   9.618
 5156WAT      O15709   6.528   1.943   2.728
 5156WAT     H115710   6.433   1.940   2.757
 5156WAT     H215711   6.584   1.980   2.803
 5157WAT      O15712   8.465   4.074   4.484
 5157WAT     H115713   8.376   4.118   4.470
 5157WAT     H215714   8.534   4.143   4.506
 5158WAT      O15715   7.026   1.475   7.121
 5158WAT     H115716   6.965   1.547   7.091
 5158WAT     H215717   7.068   1.501   7.208
 5159WAT      O15718   4.902   1.037   9.258
 5159WAT     H115719   4.869   0.982   9.182
 5159WAT     H215720   4.850   1.123   9.262
 5160WAT      O15721   3.095   2.439   9.260
 5160WAT     H115722   3.020   2.433   9.195
 5160WAT     H215723   3.142   2.351   9.267
 5161WAT      O15724   9.600   8.791   2.745
 5161WAT     H115725   9.620   8.693   2.754
 5161WAT     H215726   9.512   8.811   2.787
 5162WAT      O15727   7.538   4.350   5.380
 5162WAT     H115728   7.628   4.390   5.396
 5162WAT     H215729   7.499   4.388   5.296
 5163WAT      O15730   9.799   2.339   5.316
 5163WAT     H115731   9.770   2.402   5.388
 5163WAT     H215732   9.850   2.388   5.246
 5164WAT      O15733   2.300   0.230   5.415
 5164WAT     H115734   2.384   0.252   5.366
 5164WAT     H215735   2.280   0.303   5.481
 5165WAT      O15736   3.834   4.061   7.707
 5165WAT     H115737   3.897   4.126   7.749
 5165WAT     H215738   3.883   3.976   7.687
 5166WAT      O15739   6.914   7.157   8.173
 5166WAT     H115740   6.872   7.178   8.261
 5166WAT     H215741   6.973   7.077   8.183
 5167WAT      O15742   1.655   6.023   1.962
 5167WAT     H115743   1.557   6.040   1.972
 5167WAT     H215744   1.680   6.028   1.865
 5168WAT      O15745   8.802   6.005   1.891
 5168WAT     H115746   8.788   6.104   1.882
 5168WAT     H215747   8.866   5.974   1.821
 5169WAT      O15748   7.152   8.875   5.386
 5169WAT     H115749   7.194   8.947   5.442
 5169WAT     H215750   7.136   8.794   5.443
 5170WAT      O15751   5.545   3.901   1.172
 5170WAT     H115752   5.510   3.989   1.203
 5170WAT     H215753   5.508   3.829   1.231
 5171WAT      O15754   1.661   0.763   0.036
 5171WAT     H115755   1.671   0.784  -0.061
 5171WAT     H215756   1.695   0.670   0.054
 5172WAT      O15757   3.447   9.821   1.355
 5172WAT     H115758   3.457   9.878   1.273
 5172WAT     H215759   3.350   9.801   1.370
 5173WAT      O15760   4.899   6.253   6.236
 5173WAT     H115761   4.995   6.239   6.259
 5173WAT     H215762   4.847   6.170   6.254
 5174WAT      O15763   9.507   2.689   0.800
 5174WAT     H115764   9.491   2.656   0.893
 5174WAT     H215765   9.525   2.611   0.740
 5175WAT      O15766   5.390   6.781   6.889
 5175WAT     H115767   5.489   6.772   6.879
 5175WAT     H215768   5.345   6.738   6.811
 5176WAT      O15769   0.164   8.763   6.757
 5176WAT     H115770   0.091   8.805   6.702
 5176WAT     H215771   0.150   8.664   6.759
 5177WAT      O15772   9.837   7.512   0.075
 5177WAT     H115773   9.800   7.421   0.058
 5177WAT     H215774   9.933   7.515   0.048
 5178WAT      O15775   3.936   1.773   2.325
 5178WAT     H115776   4.018   1.764   2.382
 5178WAT     H215777   3.952   1.842   2.255
 5179WAT      O15778   2.381   5.934   8.902
 5179WAT     H115779   2.420   5.964   8.990
 5179WAT     H215780   2.445   5.872   8.857
 5180WAT      O15781   5.279   7.295   0.546
 5180WAT     H115782   5.378   7.289   0.554
 5180WAT     H215783   5.255   7.362   0.475
 5181WAT      O15784   4.713   9.523   2.668
 5181WAT     H115785   4.747   9.458   2.735
 5181WAT     H215786   4.650   9.588   2.712
 5182WAT      O15787   2.160   8.121   5.553
 5182WAT     H115788   2.100   8.194   5.586
 5182WAT     H215789   2.174   8.054   5.626
 5183WAT      O15790   2.470   7.131   5.883
 5183WAT     H115791   2.385   7.104   5.837
 5183WAT     H215792   2.496   7.060   5.949
 5184WAT      O15793   8.488   7.494   1.707
 5184WAT     H115794   8.506   7.552   1.786
 5184WAT     H215795   8.554   7.514   1.634
 5185WAT      O15796   2.044   2.364   5.235
 5185WAT     H115797   1.956   2.340   5.194
 5185WAT     H215798   2.033   2.374   5.334
 5186WAT      O15799   7.055   4.382   5.135
 5186WAT     H115800   6.998   4.423   5.064
 5186WAT     H215801   7.127   4.446   5.161
 5187WAT      O15802   3.381   5.341   0.509
 5187WAT     H115803   3.394   5.426   0.458
 5187WAT     H215804   3.350   5.269   0.447
 5188WAT      O15805   7.462   0.913   1.077
 5188WAT     H115806   7.539   0.950   1.025
 5188WAT     H215807   7.401   0.987   1.104
 5189WAT      O15808   2.501   3.133   0.725
 5189WAT     H115809   2.444   3.174   0.654
 5189WAT     H215810   2.470   3.039   0.743
 5190WAT      O15811   6.234   6.160   6.878
 5190WAT     H115812   6.165   6.225   6.847
 5190WAT     H215813   6.191   6.070   6.891
 5191WAT      O15814   7.927   1.147   6.067
 5191WAT     H115815   8.001   1.203   6.103
 5191WAT     H215816   7.959   1.053   6.054
 5192WAT      O15817   5.442   4.856   2.936
 5192WAT     H115818   5.441   4.935   2.997
 5192WAT     H215819   5.349   4.821   2.924
 5193WAT      O15820   9.728   2.186   2.518
 5193WAT     H115821   9.757   2.223   2.607
 5193WAT     H215822   9.742   2.256   2.448
 5194WAT      O15823   7.063   8.700   0.220
 5194WAT     H115824   7.046   8.798   0.217
 5194WAT     H215825   7.084   8.667   0.127
 5195WAT      O15826   2.498   8.967   8.379
 5195WAT     H115827   2.474   9.038   8.312
 5195WAT     H215828   2.415   8.922   8.411
 5196WAT      O15829   9.508   8.334   4.371
 5196WAT     H115830   9.468   8.424   4.352
 5196WAT     H215831   9.608   8.342   4.373
 5197WAT      O15832   9.075   1.514   4.882
 5197WAT     H115833   9.144   1.528   4.953
 5197WAT     H215834   9.090   1.425   4.838
 5198WAT      O15835   9.115   3.645   8.875
 5198WAT     H115836   9.030   3.644   8.928
 5198WAT     H215837   9.174   3.570   8.905
 5199WAT      O15838   0.615   1.696   4.604
 5199WAT     H115839   0.664   1.615   4.570
 5199WAT     H215840   0.523   1.697   4.566
 5200WAT      O15841   4.018   4.251   7.827
 5200WAT     H115842   4.111   4.240   7.863
 5200WAT     H215843   3.979   4.335   7.863
 5201WAT      O15844   4.004   2.474   4.154
 5201WAT     H115845   3.955   2.410   4.095
 5201WAT     H215846   4.048   2.544   4.098
 5202WAT      O15847   1.370   7.757   9.076
 5202WAT     H115848   1.384   7.806   9.161
 5202WAT     H215849   1.455   7.709   9.050
 5203WAT      O15850   2.417   7.287   6.464
 5203WAT     H115851   2.362   7.300   6.382
 5203WAT     H215852   2.408   7.193   6.496
 5204WAT      O15853   6.519   3.190   2.335
 5204WAT     H115854   6.571   3.243   2.402
 5204WAT     H215855   6.572   3.110   2.308
 5205WAT      O15856   3.566   7.772   1.827
 5205WAT     H115857   3.538   7.735   1.738
 5205WAT     H215858   3.576   7.872   1.819
 5206WAT      O15859   0.517   9.196   7.760
 5206WAT     H115860   0.477   9.273   7.711
 5206WAT     H215861   0.578   9.145   7.699
 5207WAT      O15862   0.524   9.528   7.613
 5207WAT     H115863   0.518   9.477   7.528
 5207WAT     H215864   0.434   9.563   7.638
 5208WAT      O15865   4.457   8.863   0.247
 5208WAT     H115866   4.526   8.801   0.285
 5208WAT     H215867   4.463   8.951   0.294
 5209WAT      O15868   3.897   9.065   5.716
 5209WAT     H115869   3.855   9.070   5.626
 5209WAT     H215870   3.893   9.156   5.759
 5210WAT      O15871   9.217   6.800   2.107
 5210WAT     H115872   9.224   6.750   2.193
 5210WAT     H215873   9.157   6.879   2.120
 5211WAT      O15874   9.814   8.260   0.253
 5211WAT     H115875   9.783   8.260   0.348
 5211WAT     H215876   9.834   8.353   0.224
 5212WAT      O15877   9.132   6.310   1.469
 5212WAT     H115878   9.160   6.356   1.385
 5212WAT     H215879   9.065   6.238   1.448
 5213WAT      O15880   2.379   9.767   6.694
 5213WAT     H115881   2.329   9.852   6.709
 5213WAT     H215882   2.372   9.741   6.598
 5214WAT      O15883   2.461   4.382   2.134
 5214WAT     H115884   2.365   4.409   2.141
 5214WAT     H215885   2.513   4.457   2.092
 5215WAT      O15886   3.535   1.460   0.756
 5215WAT     H115887   3.611   1.396   0.766
 5215WAT     H215888   3.571   1.554   0.753
 5216WAT      O15889   1.204   9.693   8.543
 5216WAT     H115890   1.301   9.706   8.522
 5216WAT     H215891   1.155   9.779   8.532
 5217WAT      O15892   5.855   4.369   7.312
 5217WAT     H115893   5.860   4.465   7.287
 5217WAT     H215894   5.786   4.323   7.256
 5218WAT      O15895   9.445   6.330   9.700
 5218WAT     H115896   9.500   6.414   9.702
 5218WAT     H215897   9.359   6.346   9.747
 5219WAT      O15898   1.061   1.416   5.259
 5219WAT     H115899   1.050   1.515   5.259
 5219WAT     H215900   1.104   1.387   5.344
 5220WAT      O15901   3.922   7.913   2.237
 5220WAT     H115902   3.952   7.981   2.305
 5220WAT     H215903   3.994   7.900   2.169
 5221WAT      O15904   5.392   5.610   1.936
 5221WAT     H115905   5.320   5.665   1.893
 5221WAT     H215906   5.463   5.589   1.869
 5222WAT      O15907   2.487   0.982   9.416
 5222WAT     H115908   2.503   0.936   9.504
 5222WAT     H215909   2.434   0.922   9.357
 5223WAT      O15910   4.709   5.755   6.926
 5223WAT     H115911   4.704   5.761   6.826
 5223WAT     H215912   4.768   5.679   6.952
 5224WAT      O15913   0.122   7.378   3.710
 5224WAT     H115914   0.023   7.392   3.707
 5224WAT     H215915   0.156   7.402   3.801
 5225WAT      O15916   9.180   4.601   2.558
 5225WAT     H115917   9.275   4.570   2.559
 5225WAT     H215918   9.122   4.532   2.514
 5226WAT      O15919   0.302   9.578   1.793
 5226WAT     H115920   0.326   9.645   1.723
 5226WAT     H215921   0.218   9.531   1.767
 5227WAT      O15922   9.571   0.417   1.715
 5227WAT     H115923   9.573   0.458   1.807
 5227WAT     H215924   9.664   0.413   1.679
 5228WAT      O15925   7.272   2.536   0.544
 5228WAT     H115926   7.211   2.488   0.607
 5228WAT     H215927   7.367   2.512   0.566
 5229WAT      O15928   8.622   1.249   3.797
 5229WAT     H115929   8.664   1.174   3.848
 5229WAT     H215930   8.563   1.212   3.726
 5230WAT      O15931   5.479   1.647   6.330
 5230WAT     H115932   5.405   1.713   6.343
 5230WAT     H215933   5.531   1.637   6.415
 5231WAT      O15934   1.313   0.094   8.691
 5231WAT     H115935   1.221   0.057   8.678
 5231WAT     H215936   1.378   0.044   8.633
 5232WAT      O15937   8.531   7.947   4.573
 5232WAT     H115938   8.623   7.919   4.545
 5232WAT     H215939   8.531   8.044   4.597
 5233WAT      O15940   9.841   4.912   0.649
 5233WAT     H115941   9.773   4.887   0.718
 5233WAT     H215942   9.865   4.830   0.596
 5234WAT      O15943   2.740   8.760   1.345
 5234WAT     H115944   2.691   8.672   1.346
 5234WAT     H215945   2.778   8.776   1.254
 5235WAT      O15946   8.074   0.998   5.525
 5235WAT     H115947   8.052   0.902   5.506
 5235WAT     H215948   8.033   1.024   5.613
 5236WAT      O15949   8.775   8.816   0.658
 5236WAT     H115950   8.783   8.864   0.745
 5236WAT     H215951   8.859   8.830   0.605
 5237WAT      O15952   2.762   2.402   2.320
 5237WAT     H115953   2.720   2.320   2.358
 5237WAT     H215954   2.756   2.477   2.386
 5238WAT      O15955   1.352   7.800   6.179
 5238WAT     H115956   1.361   7.761   6.087
 5238WAT     H215957   1.260   7.836   6.191
 5239WAT      O15958   5.437   9.157   8.360
 5239WAT     H115959   5.399   9.106   8.283
 5239WAT     H215960   5.535   9.136   8.369
 5240WAT      O15961   6.403   7.494   1.037
 5240WAT     H115962   6.476   7.445   1.084
 5240WAT     H215963   6.418   7.490   0.939
 5241WAT      O15964   3.503   1.383   6.437
 5241WAT     H115965   3.599   1.374   6.409
 5241WAT     H215966   3.464   1.465   6.395
 5242WAT      O15967   4.628   8.527   6.201
 5242WAT     H115968   4.657   8.538   6.106
 5242WAT     H215969   4.680   8.589   6.260
 5243WAT      O15970   8.784   3.215   2.570
 5243WAT     H115971   8.798   3.308   2.535
 5243WAT     H215972   8.692   3.207   2.608
 5244WAT      O15973   0.234   4.142   8.721
 5244WAT     H115974   0.192   4.060   8.758
 5244WAT     H215975   0.268   4.199   8.796
 5245WAT      O15976   1.607   5.231   9.190
 5245WAT     H115977   1.637   5.135   9.188
 5245WAT     H215978   1.519   5.238   9.237
 5246WAT      O15979   2.581   7.581   4.744
 5246WAT     H115980   2.524   7.606   4.666
 5246WAT     H215981   2.665   7.537   4.711
 5247WAT      O15982   4.227   3.187   6.801
 5247WAT     H115983   4.226   3.154   6.895
 5247WAT     H215984   4.197   3.113   6.740
 5248WAT      O15985   4.840   4.195   2.535
 5248WAT     H115986   4.865   4.114   2.587
 5248WAT     H215987   4.750   4.228   2.565
 5249WAT      O15988   1.972   0.443   9.255
 5249WAT     H115989   2.028   0.423   9.175
 5249WAT     H215990   1.895   0.501   9.229
 5250WAT      O15991   6.104   0.934   5.139
 5250WAT     H115992   6.156   0.986   5.070
 5250WAT     H215993   6.136   0.958   5.230
 5251WAT      O15994   3.311   1.559   2.766
 5251WAT     H115995   3.349   1.575   2.857
 5251WAT     H215996   3.350   1.624   2.701
 5252WAT      O15997   3.101   4.962   3.138
 5252WAT     H115998   3.160   5.018   3.080
 5252WAT     H215999   3.025   5.017   3.173
 5253WAT      O16000   0.133   4.141   1.502
 5253WAT     H116001   0.136   4.213   1.433
 5253WAT     H216002   0.048   4.088   1.491
 5254WAT      O16003   1.139   5.797   0.119
 5254WAT     H116004   1.127   5.723   0.186
 5254WAT     H216005   1.061   5.860   0.125
 5255WAT      O16006   5.173   8.724   3.617
 5255WAT     H116007   5.175   8.637   3.666
 5255WAT     H216008   5.266   8.748   3.588
 5256WAT      O16009   0.013   1.986   0.589
 5256WAT     H116010  -0.053   1.911   0.582
 5256WAT     H216011   0.080   1.980   0.516
 5257WAT      O16012   0.529   5.828   9.551
 5257WAT     H116013   0.530   5.842   9.452
 5257WAT     H216014   0.438   5.849   9.587
 5258WAT      O16015   5.466   1.510   4.680
 5258WAT     H116016   5.532   1.561   4.625
 5258WAT     H216017   5.491   1.413   4.680
 5259WAT      O16018   3.847   0.713   9.342
 5259WAT     H116019   3.756   0.672   9.352
 5259WAT     H216020   3.839   0.797   9.289
 5260WAT      O16021   7.024   6.507   1.131
 5260WAT     H116022   7.076   6.502   1.217
 5260WAT     H216023   7.087   6.502   1.054
 5261WAT      O16024   9.465   2.414   7.349
 5261WAT     H116025   9.535   2.422   7.278
 5261WAT     H216026   9.426   2.504   7.367
 5262WAT      O16027   9.407   4.796   2.594
 5262WAT     H116028   9.334   4.732   2.615
 5262WAT     H216029   9.468   4.804   2.673
 5263WAT      O16030   1.267   6.634   1.643
 5263WAT     H116031   1.316   6.679   1.717
 5263WAT     H216032   1.268   6.535   1.658
 5264WAT      O16033   9.871   7.396   4.255
 5264WAT     H116034   9.856   7.471   4.191
 5264WAT     H216035   9.852   7.309   4.210
 5265WAT      O16036   3.437   6.255   1.312
 5265WAT     H116037   3.514   6.293   1.363
 5265WAT     H216038   3.400   6.326   1.251
 5266WAT      O16039   3.361   2.110   0.885
 5266WAT     H116040   3.321   2.124   0.795
 5266WAT     H216041   3.420   2.029   0.884
 5267WAT      O16042   0.700   8.887   1.603
 5267WAT     H116043   0.691   8.820   1.529
 5267WAT     H216044   0.609   8.918   1.631
 5268WAT      O16045   5.315   3.612   0.510
 5268WAT     H116046   5.274   3.534   0.557
 5268WAT     H216047   5.254   3.691   0.518
 5269WAT      O16048   4.611   5.280   0.572
 5269WAT     H116049   4.575   5.288   0.665
 5269WAT     H216050   4.557   5.336   0.510
 5270WAT      O16051   4.537   4.134   5.659
 5270WAT     H116052   4.578   4.211   5.708
 5270WAT     H216053   4.475   4.168   5.588
 5271WAT      O16054   2.032   1.907   8.439
 5271WAT     H116055   2.049   1.998   8.476
 5271WAT     H216056   1.956   1.865   8.488
 5272WAT      O16057   2.444   4.538   7.283
 5272WAT     H116058   2.407   4.624   7.248
 5272WAT     H216059   2.510   4.558   7.356
 5273WAT      O16060   3.589   1.882   9.075
 5273WAT     H116061   3.541   1.931   9.148
 5273WAT     H216062   3.617   1.948   9.005
 5274WAT      O16063   2.436   7.034   8.794
 5274WAT     H116064   2.489   7.026   8.879
 5274WAT     H216065   2.348   7.076   8.813
 5275WAT      O16066   1.860   1.271   1.789
 5275WAT     H116067   1.906   1.211   1.724
 5275WAT     H216068   1.762   1.252   1.790
 5276WAT      O16069   6.319   2.372   0.629
 5276WAT     H116070   6.264   2.299   0.667
 5276WAT     H216071   6.268   2.419   0.558
 5277WAT      O16072   6.791   4.859   1.336
 5277WAT     H116073   6.798   4.956   1.310
 5277WAT     H216074   6.776   4.804   1.254
 5278WAT      O16075   1.084   7.506   7.309
 5278WAT     H116076   1.074   7.467   7.400
 5278WAT     H216077   1.019   7.581   7.298
 5279WAT      O16078   1.715   2.396   5.969
 5279WAT     H116079   1.714   2.296   5.979
 5279WAT     H216080   1.764   2.436   6.046
 5280WAT      O16081   8.912   9.180   3.962
 5280WAT     H116082   8.962   9.095   3.947
 5280WAT     H216083   8.916   9.237   3.880
 5281WAT      O16084   2.542   4.708   8.735
 5281WAT     H116085   2.570   4.791   8.783
 5281WAT     H216086   2.591   4.629   8.773
 5282WAT      O16087   2.599   3.216   1.959
 5282WAT     H116088   2.675   3.263   1.913
 5282WAT     H216089   2.519   3.216   1.900
 5283WAT      O16090   6.328   8.336   7.307
 5283WAT     H116091   6.342   8.238   7.320
 5283WAT     H216092   6.397   8.371   7.243
 5284WAT      O16093   4.063   9.391   8.064
 5284WAT     H116094   4.057   9.490   8.078
 5284WAT     H216095   4.119   9.372   7.983
 5285WAT      O16096   4.797   5.190   6.769
 5285WAT     H116097   4.836   5.281   6.757
 5285WAT     H216098   4.737   5.189   6.848
 5286WAT      O16099   3.668   7.406   3.024
 5286WAT     H116100   3.661   7.492   3.074
 5286WAT     H216101   3.599   7.342   3.057
 5287WAT      O16102   9.118   7.475   3.244
 5287WAT     H116103   9.121   7.434   3.153
 5287WAT     H216104   9.121   7.575   3.236
 5288WAT      O16105   7.873   7.526   9.218
 5288WAT     H116106   7.862   7.604   9.155
 5288WAT     H216107   7.786   7.476   9.224
 5289WAT      O16108   9.738   7.197   0.100
 5289WAT     H116109   9.684   7.126   0.054
 5289WAT     H216110   9.779   7.158   0.183
 5290WAT      O16111   6.169   0.019   7.721
 5290WAT     H116112   6.086   0.013   7.667
 5290WAT     H216113   6.151   0.073   7.804
 5291WAT      O16114   1.237   0.935   0.717
 5291WAT     H116115   1.167   0.902   0.781
 5291WAT     H216116   1.238   1.035   0.718
 5292WAT      O16117   4.440   3.393   5.989
 5292WAT     H116118   4.467   3.471   6.045
 5292WAT     H216119   4.441   3.310   6.044
 5293WAT      O16120   3.810   0.908   9.164
 5293WAT     H116121   3.887   0.930   9.103
 5293WAT     H216122   3.764   0.992   9.191
 5294WAT      O16123   4.784   2.015   9.590
 5294WAT     H116124   4.854   1.946   9.608
 5294WAT     H216125   4.695   1.971   9.579
 5295WAT      O16126   4.769   3.793   5.476
 5295WAT     H116127   4.678   3.811   5.513
 5295WAT     H216128   4.791   3.863   5.408
 5296WAT      O16129   8.825   9.583   5.135
 5296WAT     H116130   8.796   9.651   5.203
 5296WAT     H216131   8.923   9.594   5.117
 5297WAT      O16132   0.516   9.204   3.732
 5297WAT     H116133   0.513   9.110   3.696
 5297WAT     H216134   0.609   9.226   3.761
 5298WAT      O16135   1.052   9.733   7.349
 5298WAT     H116136   0.975   9.672   7.333
 5298WAT     H216137   1.021   9.815   7.396
 5299WAT      O16138   6.603   4.383   3.747
 5299WAT     H116139   6.506   4.390   3.725
 5299WAT     H216140   6.634   4.289   3.733
 5300WAT      O16141   6.781   2.365   9.287
 5300WAT     H116142   6.694   2.404   9.317
 5300WAT     H216143   6.807   2.404   9.199
 5301WAT      O16144   4.982   8.498   5.931
 5301WAT     H116145   5.018   8.409   5.958
 5301WAT     H216146   5.044   8.542   5.866
 5302WAT      O16147   0.975   6.799   9.083
 5302WAT     H116148   0.972   6.789   9.182
 5302WAT     H216149   0.937   6.888   9.057
 5303WAT      O16150   0.378   2.858   7.525
 5303WAT     H116151   0.372   2.933   7.591
 5303WAT     H216152   0.473   2.832   7.512
 5304WAT      O16153   1.299   1.321   7.942
 5304WAT     H116154   1.255   1.359   8.023
 5304WAT     H216155   1.230   1.307   7.871
 5305WAT      O16156   0.979   7.257   2.283
 5305WAT     H116157   1.022   7.172   2.313
 5305WAT     H216158   1.011   7.280   2.191
 5306WAT      O16159   5.420   5.975   7.591
 5306WAT     H116160   5.476   5.987   7.673
 5306WAT     H216161   5.340   5.920   7.614
 5307WAT      O16162   3.244   8.706   1.501
 5307WAT     H116163   3.302   8.706   1.582
 5307WAT     H216164   3.177   8.779   1.508
 5308WAT      O16165   1.993   0.511   5.052
 5308WAT     H116166   1.951   0.587   5.002
 5308WAT     H216167   2.034   0.447   4.988
 5309WAT      O16168   0.537   7.398   6.106
 5309WAT     H116169   0.622   7.349   6.123
 5309WAT     H216170   0.528   7.419   6.009
 5310WAT      O16171   4.459   9.428   9.839
 5310WAT     H116172   4.422   9.512   9.800
 5310WAT     H216173   4.558   9.427   9.826
 5311WAT      O16174   5.206   3.096   5.943
 5311WAT     H116175   5.258   3.080   6.027
 5311WAT     H216176   5.242   3.038   5.870
 5312WAT      O16177   9.273   3.736   8.163
 5312WAT     H116178   9.250   3.751   8.067
 5312WAT     H216179   9.197   3.689   8.208
 5313WAT      O16180   9.302   3.120   3.248
 5313WAT     H116181   9.320   3.217   3.233
 5313WAT     H216182   9.293   3.102   3.346
 5314WAT      O16183   9.874   8.771   4.396
 5314WAT     H116184   9.846   8.764   4.492
 5314WAT     H216185   9.949   8.837   4.388
 5315WAT      O16186   5.838   0.712   5.512
 5315WAT     H116187   5.848   0.722   5.611
 5315WAT     H216188   5.770   0.641   5.492
 5316WAT      O16189   7.866   3.236   1.567
 5316WAT     H116190   7.793   3.247   1.500
 5316WAT     H216191   7.883   3.138   1.582
 5317WAT      O16192   5.578   4.307   6.176
 5317WAT     H116193   5.523   4.230   6.143
 5317WAT     H216194   5.659   4.317   6.118
 5318WAT      O16195   6.709   9.364   1.034
 5318WAT     H116196   6.675   9.347   1.127
 5318WAT     H216197   6.806   9.388   1.038
 5319WAT      O16198   7.438   8.492   5.002
 5319WAT     H116199   7.420   8.406   5.050
 5319WAT     H216200   7.472   8.560   5.066
 5320WAT      O16201   5.776   3.005   0.399
 5320WAT     H116202   5.826   3.043   0.321
 5320WAT     H216203   5.698   2.952   0.365
 5321WAT      O16204   1.145   9.073   3.508
 5321WAT     H116205   1.053   9.093   3.474
 5321WAT     H216206   1.139   9.037   3.601
 5322WAT      O16207   7.711   0.660   4.894
 5322WAT     H116208   7.729   0.751   4.932
 5322WAT     H216209   7.730   0.591   4.964
 5323WAT      O16210   4.181   7.423   3.742
 5323WAT     H116211   4.201   7.437   3.645
 5323WAT     H216212   4.110   7.353   3.753
 5324WAT      O16213   3.334   3.186   7.823
 5324WAT     H116214   3.286   3.261   7.778
 5324WAT     H216215   3.384   3.133   7.755
 5325WAT      O16216   1.989   1.546   9.230
 5325WAT     H116217   2.021   1.543   9.325
 5325WAT     H216218   1.974   1.641   9.203
 5326WAT      O16219   5.869   1.101   3.252
 5326WAT     H116220   5.852   1.198   3.236
 5326WAT     H216221   5.960   1.077   3.216
 5327WAT      O16222   7.026   9.284   8.666
 5327WAT     H116223   7.117   9.247   8.650
 5327WAT     H216224   6.992   9.252   8.755
 5328WAT      O16225   0.936   4.798   7.292
 5328WAT     H116226   0.898   4.842   7.374
 5328WAT     H216227   0.996   4.723   7.319
 5329WAT      O16228   5.166   0.588   0.383
 5329WAT     H116229   5.229   0.646   0.434
 5329WAT     H216230   5.168   0.613   0.287
 5330WAT      O16231   8.070   9.759   2.366
 5330WAT     H116232   8.147   9.817   2.396
 5330WAT     H216233   8.006   9.748   2.441
 5331WAT      O16234   7.478   2.078   0.688
 5331WAT     H116235   7.430   2.155   0.730
 5331WAT     H216236   7.434   2.053   0.602
 5332WAT      O16237   1.198   8.114   2.032
 5332WAT     H116238   1.152   8.115   2.121
 5332WAT     H216239   1.144   8.060   1.968
 5333WAT      O16240   8.009   2.327   3.665
 5333WAT     H116241   8.073   2.403   3.666
 5333WAT     H216242   8.058   2.241   3.679
 5334WAT      O16243   8.898   6.747   4.449
 5334WAT     H116244   8.844   6.801   4.385
 5334WAT     H216245   8.943   6.672   4.401
 5335WAT      O16246   0.238   4.046   3.591
 5335WAT     H116247   0.323   4.031   3.640
 5335WAT     H216248   0.250   4.021   3.495
 5336WAT      O16249   3.520   1.457   1.871
 5336WAT     H116250   3.577   1.514   1.812
 5336WAT     H216251   3.439   1.508   1.899
 5337WAT      O16252   2.859   0.467   7.423
 5337WAT     H116253   2.949   0.451   7.464
 5337WAT     H216254   2.804   0.525   7.485
 5338WAT      O16255   5.364   6.242   3.443
 5338WAT     H116256   5.428   6.305   3.401
 5338WAT     H216257   5.396   6.218   3.535
 5339WAT      O16258   4.480   7.796   6.557
 5339WAT     H116259   4.515   7.720   6.612
 5339WAT     H216260   4.518   7.882   6.590
 5340WAT      O16261   2.404   4.508   9.808
 5340WAT     H116262   2.398   4.584   9.744
 5340WAT     H216263   2.371   4.424   9.764
 5341WAT      O16264   8.765   4.379   2.463
 5341WAT     H116265   8.698   4.362   2.390
 5341WAT     H216266   8.752   4.472   2.497
 5342WAT      O16267   7.757   7.225   5.569
 5342WAT     H116268   7.847   7.183   5.557
 5342WAT     H216269   7.733   7.226   5.666
 5343WAT      O16270   2.884   1.238   8.253
 5343WAT     H116271   2.801   1.264   8.302
 5343WAT     H216272   2.959   1.227   8.317
 5344WAT      O16273   0.851   7.030   6.855
 5344WAT     H116274   0.770   6.974   6.836
 5344WAT     H216275   0.823   7.120   6.887
 5345WAT      O16276   0.743   6.987   5.153
 5345WAT     H116277   0.797   6.937   5.221
 5345WAT     H216278   0.684   7.053   5.200
 5346WAT      O16279   6.081   9.168   1.392
 5346WAT     H116280   6.127   9.233   1.452
 5346WAT     H216281   6.064   9.210   1.303
 5347WAT      O16282   1.541   1.609   5.887
 5347WAT     H116283   1.535   1.708   5.894
 5347WAT     H216284   1.621   1.576   5.937
 5348WAT      O16285   6.691   1.365   8.664
 5348WAT     H116286   6.694   1.296   8.736
 5348WAT     H216287   6.609   1.421   8.676
 5349WAT      O16288   9.049   0.394   1.838
 5349WAT     H116289   8.972   0.456   1.824
 5349WAT     H216290   9.023   0.301   1.812
 5350WAT      O16291   4.314   1.722   1.399
 5350WAT     H116292   4.267   1.637   1.373
 5350WAT     H216293   4.247   1.796   1.405
 5351WAT      O16294   5.239   8.841   5.385
 5351WAT     H116295   5.231   8.744   5.362
 5351WAT     H216296   5.229   8.852   5.484
 5352WAT      O16297   7.940   9.129   7.093
 5352WAT     H116298   7.951   9.155   7.189
 5352WAT     H216299   7.905   9.207   7.041
 5353WAT      O16300   9.354   1.166   4.337
 5353WAT     H116301   9.431   1.159   4.273
 5353WAT     H216302   9.331   1.075   4.371
 5354WAT      O16303   4.783   5.113   0.683
 5354WAT     H116304   4.738   5.026   0.702
 5354WAT     H216305   4.723   5.171   0.629
 5355WAT      O16306   9.130   8.738   6.000
 5355WAT     H116307   9.072   8.702   5.927
 5355WAT     H216308   9.226   8.737   5.970
 5356WAT      O16309   9.249   2.645   4.309
 5356WAT     H116310   9.321   2.666   4.375
 5356WAT     H216311   9.160   2.672   4.347
 5357WAT      O16312   2.123   4.294   1.702
 5357WAT     H116313   2.060   4.369   1.721
 5357WAT     H216314   2.186   4.284   1.778
 5358WAT      O16315   4.437   5.183   9.789
 5358WAT     H116316   4.447   5.270   9.837
 5358WAT     H216317   4.360   5.133   9.828
 5359WAT      O16318   2.260   6.246   5.501
 5359WAT     H116319   2.313   6.308   5.558
 5359WAT     H216320   2.165   6.276   5.498
 5360WAT      O16321   0.941   8.663   8.429
 5360WAT     H116322   1.025   8.715   8.410
 5360WAT     H216323   0.946   8.575   8.383
 5361WAT      O16324   3.778   0.355   4.151
 5361WAT     H116325   3.877   0.366   4.155
 5361WAT     H216326   3.746   0.378   4.058
 5362WAT      O16327   3.444   2.213   4.885
 5362WAT     H116328   3.421   2.174   4.796
 5362WAT     H216329   3.498   2.296   4.872
 5363WAT      O16330   3.704   6.593   3.746
 5363WAT     H116331   3.670   6.569   3.837
 5363WAT     H216332   3.635   6.646   3.697
 5364WAT      O16333   0.707   2.470   1.497
 5364WAT     H116334   0.712   2.379   1.539
 5364WAT     H216335   0.765   2.472   1.416
 5365WAT      O16336   9.435   4.427   8.479
 5365WAT     H116337   9.527   4.388   8.473
 5365WAT     H216338   9.419   4.459   8.572
 5366WAT      O16339   0.871   9.603   8.704
 5366WAT     H116340   0.789   9.634   8.751
 5366WAT     H216341   0.853   9.598   8.606
 5367WAT      O16342   1.114   1.025   2.168
 5367WAT     H116343   1.141   1.121   2.163
 5367WAT     H216344   1.186   0.967   2.130
 5368WAT      O16345   2.303   5.541   9.476
 5368WAT     H116346   2.399   5.558   9.456
 5368WAT     H216347   2.248   5.621   9.453
 5369WAT      O16348   1.241   6.533   7.774
 5369WAT     H116349   1.174   6.480   7.825
 5369WAT     H216350   1.309   6.570   7.838
 5370WAT      O16351   5.393   1.021   0.250
 5370WAT     H116352   5.419   1.087   0.181
 5370WAT     H216353   5.305   0.980   0.227
 5371WAT      O16354   1.268   9.140   7.093
 5371WAT     H116355   1.301   9.189   7.012
 5371WAT     H216356   1.346   9.122   7.154
 5372WAT      O16357   8.293   9.282   5.505
 5372WAT     H116358   8.344   9.240   5.430
 5372WAT     H216359   8.308   9.229   5.588
 5373WAT      O16360   7.780   3.327   8.667
 5373WAT     H116361   7.802   3.311   8.763
 5373WAT     H216362   7.767   3.240   8.621
 5374WAT      O16363   7.773   8.124   4.076
 5374WAT     H116364   7.675   8.145   4.083
 5374WAT     H216365   7.787   8.025   4.078
 5375WAT      O16366   5.311   7.832   1.023
 5375WAT     H116367   5.303   7.892   0.944
 5375WAT     H216368   5.224   7.785   1.039
 5376WAT      O16369   8.174   9.717   3.366
 5376WAT     H116370   8.095   9.715   3.428
 5376WAT     H216371   8.240   9.784   3.399
 5377WAT      O16372   9.137   6.319   8.044
 5377WAT     H116373   9.186   6.325   7.957
 5377WAT     H216374   9.094   6.407   8.064
 5378WAT      O16375   1.417   6.126   2.527
 5378WAT     H116376   1.336   6.160   2.479
 5378WAT     H216377   1.406   6.141   2.626
 5379WAT      O16378   4.895   6.015   6.543
 5379WAT     H116379   4.992   5.993   6.538
 5379WAT     H216380   4.878   6.075   6.621
 5380WAT      O16381   1.338   3.418   5.397
 5380WAT     H116382   1.287   3.475   5.461
 5380WAT     H216383   1.306   3.435   5.304
 5381WAT      O16384   0.696   3.218   5.345
 5381WAT     H116385   0.737   3.136   5.384
 5381WAT     H216386   0.628   3.192   5.276
 5382WAT      O16387   7.397   5.256   7.842
 5382WAT     H116388   7.412   5.158   7.853
 5382WAT     H216389   7.486   5.302   7.835
 5383WAT      O16390   8.617   8.172   3.646
 5383WAT     H116391   8.703   8.128   3.619
 5383WAT     H216392   8.626   8.211   3.738
 5384WAT      O16393   0.711   0.184   1.491
 5384WAT     H116394   0.663   0.111   1.442
 5384WAT     H216395   0.765   0.145   1.565
 5385WAT      O16396   6.285   8.353   4.356
 5385WAT     H116397   6.341   8.312   4.428
 5385WAT     H216398   6.201   8.390   4.395
 5386WAT      O16399   4.447   2.220   7.211
 5386WAT     H116400   4.355   2.183   7.226
 5386WAT     H216401   4.445   2.320   7.223
 5387WAT      O16402   4.398   3.833   6.033
 5387WAT     H116403   4.305   3.869   6.024
 5387WAT     H216404   4.428   3.794   5.946
 5388WAT      O16405   8.326   1.671   9.549
 5388WAT     H116406   8.347   1.740   9.481
 5388WAT     H216407   8.271   1.712   9.623
 5389WAT      O16408   5.260   7.137   7.207
 5389WAT     H116409   5.268   7.237   7.199
 5389WAT     H216410   5.277   7.096   7.117
 5390WAT      O16411   6.877   8.800   1.904
 5390WAT     H116412   6.908   8.713   1.866
 5390WAT     H216413   6.952   8.866   1.903
 5391WAT      O16414   8.434   2.219   1.802
 5391WAT     H116415   8.407   2.315   1.794
 5391WAT     H216416   8.355   2.160   1.787
 5392WAT      O16417   4.712   5.091   4.247
 5392WAT     H116418   4.714   5.111   4.345
 5392WAT     H216419   4.717   4.992   4.233
 5393WAT      O16420   0.285   6.482   2.527
 5393WAT     H116421   0.343   6.553   2.485
 5393WAT     H216422   0.325   6.392   2.510
 5394WAT      O16423   3.831   5.370   9.415
 5394WAT     H116424   3.912   5.407   9.460
 5394WAT     H216425   3.791   5.298   9.471
 5395WAT      O16426   0.347   5.480   7.445
 5395WAT     H116427   0.341   5.533   7.361
 5395WAT     H216428   0.295   5.395   7.434
 5396WAT      O16429   0.779   2.909   0.977
 5396WAT     H116430   0.734   2.982   1.030
 5396WAT     H216431   0.730   2.823   0.990
 5397WAT      O16432   9.818   4.465   6.223
 5397WAT     H116433   9.734   4.442   6.173
 5397WAT     H216434   9.877   4.384   6.227
 5398WAT      O16435   5.400   7.049   6.522
 5398WAT     H116436   5.384   6.951   6.507
 5398WAT     H216437   5.321   7.101   6.491
 5399WAT      O16438   4.491   8.090   7.719
 5399WAT     H116439   4.573   8.083   7.663
 5399WAT     H216440   4.497   8.026   7.796
 5400WAT      O16441   4.869   4.846   8.863
 5400WAT     H116442   4.769   4.841   8.853
 5400WAT     H216443   4.906   4.908   8.795
 5401WAT      O16444   6.675   3.214   8.001
 5401WAT     H116445   6.612   3.285   8.030
 5401WAT     H216446   6.627   3.127   7.995
 5402WAT      O16447   6.510   5.452   9.451
 5402WAT     H116448   6.599   5.442   9.497
 5402WAT     H216449   6.449   5.379   9.481
 5403WAT      O16450   8.147   4.903   0.024
 5403WAT     H116451   8.080   4.860  -0.036
 5403WAT     H216452   8.194   4.976  -0.026
 5404WAT      O16453   2.599   4.826   1.199
 5404WAT     H116454   2.650   4.782   1.273
 5404WAT     H216455   2.504   4.796   1.201
 5405WAT      O16456   1.518   7.094   1.063
 5405WAT     H116457   1.423   7.090   1.093
 5405WAT     H216458   1.561   7.004   1.077
 5406WAT      O16459   5.381   4.284   9.316
 5406WAT     H116460   5.294   4.307   9.358
 5406WAT     H216461   5.455   4.326   9.369
 5407WAT      O16462   8.989   6.411   5.535
 5407WAT     H116463   9.020   6.330   5.485
 5407WAT     H216464   9.044   6.422   5.618
 5408WAT      O16465   5.300   1.561   8.812
 5408WAT     H116466   5.357   1.490   8.770
 5408WAT     H216467   5.248   1.608   8.741
 5409WAT      O16468   9.245   2.448   4.727
 5409WAT     H116469   9.291   2.391   4.659
 5409WAT     H216470   9.293   2.535   4.735
 5410WAT      O16471   9.219   7.069   4.671
 5410WAT     H116472   9.164   6.985   4.663
 5410WAT     H216473   9.192   7.133   4.600
 5411WAT      O16474   0.625   4.052   0.705
 5411WAT     H116475   0.582   4.055   0.615
 5411WAT     H216476   0.721   4.025   0.696
 5412WAT      O16477   6.074   6.331   1.387
 5412WAT     H116478   6.125   6.383   1.319
 5412WAT     H216479   6.063   6.237   1.355
 5413WAT      O16480   0.159   7.366   1.967
 5413WAT     H116481   0.168   7.267   1.953
 5413WAT     H216482   0.201   7.391   2.054
 5414WAT      O16483   5.781   3.447   7.120
 5414WAT     H116484   5.838   3.405   7.049
 5414WAT     H216485   5.818   3.537   7.143
 5415WAT      O16486   9.222   3.374   6.555
 5415WAT     H116487   9.231   3.473   6.560
 5415WAT     H216488   9.272   3.340   6.476
 5416WAT      O16489   8.236   2.839   2.971
 5416WAT     H116490   8.194   2.858   3.060
 5416WAT     H216491   8.188   2.763   2.927
 5417WAT      O16492   3.864   7.715   4.279
 5417WAT     H116493   3.943   7.672   4.324
 5417WAT     H216494   3.782   7.663   4.301
 5418WAT      O16495   6.194   6.579   8.002
 5418WAT     H116496   6.284   6.535   8.007
 5418WAT     H216497   6.150   6.574   8.092
 5419WAT      O16498   9.808   7.826   3.236
 5419WAT     H116499   9.894   7.805   3.190
 5419WAT     H216500   9.734   7.773   3.195
 5420WAT      O16501   9.812   8.923   2.666
 5420WAT     H116502   9.728   8.881   2.701
 5420WAT     H216503   9.803   8.942   2.569
 5421WAT      O16504   0.698   1.951   6.792
 5421WAT     H116505   0.798   1.947   6.780
 5421WAT     H216506   0.675   1.925   6.886
 5422WAT      O16507   2.212   8.897   4.177
 5422WAT     H116508   2.134   8.912   4.239
 5422WAT     H216509   2.185   8.830   4.107
 5423WAT      O16510   4.388   9.701   3.830
 5423WAT     H116511   4.478   9.677   3.794
 5423WAT     H216512   4.397   9.736   3.923
 5424WAT      O16513   7.131   1.851   8.924
 5424WAT     H116514   7.122   1.766   8.872
 5424WAT     H216515   7.191   1.914   8.875
 5425WAT      O16516   7.931   2.610   9.019
 5425WAT     H116517   7.835   2.615   8.989
 5425WAT     H216518   7.991   2.612   8.939
 5426WAT      O16519   7.008   7.151   6.539
 5426WAT     H116520   6.923   7.161   6.487
 5426WAT     H216521   6.990   7.170   6.636
 5427WAT      O16522   7.050   1.822   2.689
 5427WAT     H116523   7.011   1.788   2.774
 5427WAT     H216524   7.097   1.748   2.641
 5428WAT      O16525   5.062   1.205   0.696
 5428WAT     H116526   5.028   1.113   0.717
 5428WAT     H216527   4.986   1.261   0.661
 5429WAT      O16528   3.471   8.060   6.134
 5429WAT     H116529   3.525   8.059   6.219
 5429WAT     H216530   3.522   8.108   6.063
 5430WAT      O16531   8.849   9.615   4.282
 5430WAT     H116532   8.797   9.699   4.294
 5430WAT     H216533   8.926   9.632   4.221
 5431WAT      O16534   4.097   2.369   5.476
 5431WAT     H116535   4.123   2.336   5.567
 5431WAT     H216536   4.164   2.338   5.409
 5432WAT      O16537   3.392   9.788   2.415
 5432WAT     H116538   3.465   9.720   2.404
 5432WAT     H216539   3.308   9.742   2.443
 5433WAT      O16540   7.551   5.843   2.976
 5433WAT     H116541   7.458   5.878   2.991
 5433WAT     H216542   7.554   5.796   2.888
 5434WAT      O16543   0.265   3.877   0.458
 5434WAT     H116544   0.181   3.928   0.477
 5434WAT     H216545   0.340   3.914   0.514
 5435WAT      O16546   6.772   8.191   0.914
 5435WAT     H116547   6.819   8.186   0.825
 5435WAT     H216548   6.787   8.281   0.955
 5436WAT      O16549   0.055   5.793   3.059
 5436WAT     H116550   0.139   5.743   3.079
 5436WAT     H216551   0.035   5.788   2.961
 5437WAT      O16552   9.654   1.021   3.679
 5437WAT     H116553   9.711   0.940   3.697
 5437WAT     H216554   9.700   1.081   3.614
 5438WAT      O16555   1.223   2.944   7.528
 5438WAT     H116556   1.234   2.996   7.613
 5438WAT     H216557   1.236   3.005   7.450
 5439WAT      O16558   2.923   0.744   2.600
 5439WAT     H116559   2.872   0.814   2.649
 5439WAT     H216560   2.908   0.655   2.643
 5440WAT      O16561   5.302   7.920   2.301
 5440WAT     H116562   5.297   7.978   2.383
 5440WAT     H216563   5.258   7.967   2.224
 5441WAT      O16564   5.949   8.608   1.944
 5441WAT     H116565   5.894   8.564   1.873
 5441WAT     H216566   6.021   8.661   1.901
 5442WAT      O16567   6.363   4.858   3.547
 5442WAT     H116568   6.409   4.853   3.636
 5442WAT     H216569   6.314   4.945   3.541
 5443WAT      O16570   5.249   9.592   6.737
 5443WAT     H116571   5.277   9.590   6.641
 5443WAT     H216572   5.218   9.683   6.761
 5444WAT      O16573   0.234   5.132   2.573
 5444WAT     H116574   0.258   5.036   2.562
 5444WAT     H216575   0.318   5.187   2.583
 5445WAT      O16576   7.079   5.986   0.846
 5445WAT     H116577   7.054   6.062   0.906
 5445WAT     H216578   7.158   6.012   0.790
 5446WAT      O16579   9.767   2.387   2.327
 5446WAT     H116580   9.815   2.469   2.359
 5446WAT     H216581   9.783   2.376   2.229
 5447WAT      O16582   6.075   0.576   0.235
 5447WAT     H116583   6.090   0.488   0.280
 5447WAT     H216584   6.021   0.562   0.152
 5448WAT      O16585   3.462   3.372   4.390
 5448WAT     H116586   3.468   3.393   4.488
 5448WAT     H216587   3.549   3.395   4.346
 5449WAT      O16588   6.076   6.633   2.042
 5449WAT     H116589   6.017   6.706   2.076
 5449WAT     H216590   6.077   6.558   2.108
 5450WAT      O16591   7.409   2.304   3.240
 5450WAT     H116592   7.462   2.222   3.260
 5450WAT     H216593   7.469   2.375   3.204
 5451WAT      O16594   6.793   5.341   1.418
 5451WAT     H116595   6.848   5.424   1.410
 5451WAT     H216596   6.705   5.363   1.460
 5452WAT      O16597   5.241   4.658   6.306
 5452WAT     H116598   5.268   4.593   6.235
 5452WAT     H216599   5.147   4.639   6.335
 5453WAT      O16600   5.168   6.731   0.314
 5453WAT     H116601   5.192   6.707   0.408
 5453WAT     H216602   5.226   6.679   0.251
 5454WAT      O16603   1.618   4.426   5.204
 5454WAT     H116604   1.528   4.430   5.248
 5454WAT     H216605   1.605   4.425   5.104
 5455WAT      O16606   9.425   8.256   0.828
 5455WAT     H116607   9.505   8.197   0.829
 5455WAT     H216608   9.416   8.300   0.739
 5456WAT      O16609   5.797   0.002   1.441
 5456WAT     H116610   5.850   0.027   1.523
 5456WAT     H216611   5.702   0.029   1.453
 5457WAT      O16612   6.038   1.022   4.337
 5457WAT     H116613   6.007   0.971   4.257
 5457WAT     H216614   6.044   1.119   4.315
 5458WAT      O16615   4.271   5.518   3.417
 5458WAT     H116616   4.227   5.559   3.497
 5458WAT     H216617   4.217   5.442   3.383
 5459WAT      O16618   9.231   1.729   6.383
 5459WAT     H116619   9.173   1.701   6.306
 5459WAT     H216620   9.327   1.721   6.356
 5460WAT      O16621   4.687   9.246   6.511
 5460WAT     H116622   4.672   9.246   6.413
 5460WAT     H216623   4.611   9.199   6.556
 5461WAT      O16624   6.534   1.839   3.297
 5461WAT     H116625   6.560   1.780   3.373
 5461WAT     H216626   6.608   1.904   3.279
 5462WAT      O16627   4.865   1.669   4.713
 5462WAT     H116628   4.961   1.697   4.718
 5462WAT     H216629   4.854   1.580   4.756
 5463WAT      O16630   4.740   0.890   8.114
 5463WAT     H116631   4.810   0.856   8.177
 5463WAT     H216632   4.649   0.874   8.153
 5464WAT      O16633   8.307   2.467   7.011
 5464WAT     H116634   8.382   2.494   7.071
 5464WAT     H216635   8.332   2.486   6.916
 5465WAT      O16636   9.024   9.296   1.598
 5465WAT     H116637   9.117   9.283   1.633
 5465WAT     H216638   8.968   9.216   1.623
 5466WAT      O16639   6.512   8.999   3.836
 5466WAT     H116640   6.475   9.091   3.844
 5466WAT     H216641   6.444   8.933   3.868
 5467WAT      O16642   5.691   0.564   9.789
 5467WAT     H116643   5.666   0.468   9.803
 5467WAT     H216644   5.708   0.580   9.692
 5468WAT      O16645   1.900   9.637   5.649
 5468WAT     H116646   1.994   9.636   5.614
 5468WAT     H216647   1.836   9.623   5.574
 5469WAT      O16648   3.349   2.313   6.911
 5469WAT     H116649   3.257   2.350   6.925
 5469WAT     H216650   3.343   2.231   6.854
 5470WAT      O16651   2.685   1.294   9.182
 5470WAT     H116652   2.684   1.393   9.166
 5470WAT     H216653   2.615   1.271   9.249
 5471WAT      O16654   0.409   6.382   2.077
 5471WAT     H116655   0.325   6.353   2.122
 5471WAT     H216656   0.388   6.417   1.985
 5472WAT      O16657   6.721   7.421   4.442
 5472WAT     H116658   6.791   7.375   4.497
 5472WAT     H216659   6.700   7.365   4.362
 5473WAT      O16660   4.310   4.330   7.148
 5473WAT     H116661   4.335   4.261   7.215
 5473WAT     H216662   4.376   4.406   7.152
 5474WAT      O16663   5.538   0.965   7.928
 5474WAT     H116664   5.482   0.927   8.002
 5474WAT     H216665   5.529   1.065   7.928
 5475WAT      O16666   6.448   8.961   0.161
 5475WAT     H116667   6.409   8.919   0.243
 5475WAT     H216668   6.547   8.969   0.171
 5476WAT      O16669   8.757   9.251   2.450
 5476WAT     H116670   8.741   9.273   2.353
 5476WAT     H216671   8.747   9.153   2.464
 5477WAT      O16672   5.242   9.771   2.266
 5477WAT     H116673   5.256   9.749   2.170
 5477WAT     H216674   5.231   9.686   2.319
 5478WAT      O16675   3.002   6.614   4.715
 5478WAT     H116676   3.089   6.580   4.752
 5478WAT     H216677   3.014   6.637   4.618
 5479WAT      O16678   0.694   7.368   5.155
 5479WAT     H116679   0.692   7.292   5.219
 5479WAT     H216680   0.696   7.455   5.205
 5480WAT      O16681   3.598   2.343   5.414
 5480WAT     H116682   3.609   2.246   5.434
 5480WAT     H216683   3.561   2.354   5.321
 5481WAT      O16684   1.363   3.365   4.191
 5481WAT     H116685   1.390   3.425   4.265
 5481WAT     H216686   1.274   3.393   4.156
 5482WAT      O16687   7.055   8.882   8.742
 5482WAT     H116688   7.091   8.873   8.835
 5482WAT     H216689   6.955   8.887   8.745
 5483WAT      O16690   4.082   8.785   9.586
 5483WAT     H116691   4.043   8.832   9.665
 5483WAT     H216692   4.010   8.737   9.536
 5484WAT      O16693   9.027   9.323   3.195
 5484WAT     H116694   9.086   9.333   3.114
 5484WAT     H216695   9.048   9.396   3.260
 5485WAT      O16696   8.980   6.062   0.305
 5485WAT     H116697   8.916   6.133   0.275
 5485WAT     H216698   9.064   6.105   0.338
 5486WAT      O16699   3.563   2.788   5.916
 5486WAT     H116700   3.499   2.775   5.992
 5486WAT     H216701   3.519   2.843   5.845
 5487WAT      O16702   2.828   5.686   8.758
 5487WAT     H116703   2.835   5.603   8.702
 5487WAT     H216704   2.803   5.764   8.701
 5488WAT      O16705   6.118   5.742   4.817
 5488WAT     H116706   6.082   5.657   4.856
 5488WAT     H216707   6.085   5.819   4.870
 5489WAT      O16708   1.977   8.925   1.337
 5489WAT     H116709   1.949   8.960   1.247
 5489WAT     H216710   2.077   8.919   1.340
 5490WAT      O16711   8.585   4.290   7.806
 5490WAT     H116712   8.491   4.281   7.839
 5490WAT     H216713   8.649   4.262   7.877
 5491WAT      O16714   5.161   2.228   6.586
 5491WAT     H116715   5.107   2.227   6.502
 5491WAT     H216716   5.119   2.290   6.652
 5492WAT      O16717   3.070   2.992   0.300
 5492WAT     H116718   3.086   3.043   0.215
 5492WAT     H216719   2.972   2.976   0.313
 5493WAT      O16720   6.207   2.205   1.693
 5493WAT     H116721   6.109   2.219   1.689
 5493WAT     H216722   6.228   2.131   1.758
 5494WAT      O16723   1.739   8.498   7.160
 5494WAT     H116724   1.810   8.430   7.145
 5494WAT     H216725   1.703   8.529   7.072
 5495WAT      O16726   9.014   3.119   2.838
 5495WAT     H116727   8.918   3.092   2.846
 5495WAT     H216728   9.027   3.173   2.755
 5496WAT      O16729   9.309   0.504   2.597
 5496WAT     H116730   9.269   0.491   2.687
 5496WAT     H216731   9.289   0.596   2.564
 5497WAT      O16732   5.746   2.754   7.170
 5497WAT     H116733   5.807   2.800   7.235
 5497WAT     H216734   5.667   2.812   7.152
 5498WAT      O16735   8.993   5.772   8.382
 5498WAT     H116736   9.050   5.698   8.345
 5498WAT     H216737   9.007   5.777   8.481
 5499WAT      O16738   2.399   5.718   0.828
 5499WAT     H116739   2.323   5.653   0.831
 5499WAT     H216740   2.483   5.669   0.804
 5500WAT      O16741   6.671   4.395   6.214
 5500WAT     H116742   6.589   4.405   6.271
 5500WAT     H216743   6.650   4.333   6.138
 5501WAT      O16744   7.451   1.965   8.131
 5501WAT     H116745   7.389   2.034   8.093
 5501WAT     H216746   7.485   1.907   8.057
 5502WAT      O16747   5.845   7.034   5.426
 5502WAT     H116748   5.872   7.103   5.360
 5502WAT     H216749   5.751   7.004   5.407
 5503WAT      O16750   2.419   3.951   2.234
 5503WAT     H116751   2.463   4.035   2.267
 5503WAT     H216752   2.404   3.958   2.135
 5504WAT      O16753   2.146   8.890   2.266
 5504WAT     H116754   2.102   8.810   2.308
 5504WAT     H216755   2.216   8.859   2.201
 5505WAT      O16756   3.664   8.058   0.358
 5505WAT     H116757   3.674   8.044   0.456
 5505WAT     H216758   3.618   7.979   0.317
 5506WAT      O16759   6.352   6.322   5.785
 5506WAT     H116760   6.368   6.370   5.872
 5506WAT     H216761   6.440   6.308   5.739
 5507WAT      O16762   2.063   2.514   6.312
 5507WAT     H116763   1.975   2.550   6.283
 5507WAT     H216764   2.068   2.417   6.289
 5508WAT      O16765   9.606   6.766   7.163
 5508WAT     H116766   9.509   6.753   7.185
 5508WAT     H216767   9.659   6.692   7.203
 5509WAT      O16768   1.980   3.295   8.852
 5509WAT     H116769   1.953   3.200   8.866
 5509WAT     H216770   1.909   3.342   8.799
 5510WAT      O16771   0.082   9.381   0.778
 5510WAT     H116772   0.101   9.451   0.710
 5510WAT     H216773   0.162   9.368   0.836
 5511WAT      O16774   0.416   1.893   4.359
 5511WAT     H116775   0.371   1.981   4.372
 5511WAT     H216776   0.348   1.823   4.340
 5512WAT      O16777   7.584   4.470   9.744
 5512WAT     H116778   7.536   4.383   9.755
 5512WAT     H216779   7.534   4.542   9.793
 5513WAT      O16780   1.303   0.490   0.696
 5513WAT     H116781   1.300   0.396   0.662
 5513WAT     H216782   1.319   0.490   0.795
 5514WAT      O16783   6.681   8.340   4.660
 5514WAT     H116784   6.681   8.351   4.759
 5514WAT     H216785   6.757   8.392   4.620
 5515WAT      O16786   4.134   0.567   5.575
 5515WAT     H116787   4.122   0.664   5.557
 5515WAT     H216788   4.088   0.514   5.503
 5516WAT      O16789   0.091   5.047   3.141
 5516WAT     H116790   0.050   5.005   3.222
 5516WAT     H216791   0.178   5.002   3.120
 5517WAT      O16792   2.358   0.789   3.748
 5517WAT     H116793   2.409   0.721   3.694
 5517WAT     H216794   2.354   0.759   3.843
 5518WAT      O16795   1.337   1.119   6.441
 5518WAT     H116796   1.272   1.044   6.438
 5518WAT     H216797   1.395   1.110   6.522
 5519WAT      O16798   3.776   3.280   4.624
 5519WAT     H116799   3.850   3.218   4.599
 5519WAT     H216800   3.811   3.374   4.629
 5520WAT      O16801   9.555   2.136   9.877
 5520WAT     H116802   9.609   2.127   9.961
 5520WAT     H216803   9.460   2.156   9.901
 5521WAT      O16804   1.558   8.566   4.045
 5521WAT     H116805   1.580   8.499   3.975
 5521WAT     H216806   1.637   8.626   4.060
 5522WAT      O16807   4.978   4.685   2.967
 5522WAT     H116808   4.945   4.590   2.968
 5522WAT     H216809   4.928   4.737   2.898
 5523WAT      O16810   8.020   8.525   6.279
 5523WAT     H116811   7.927   8.487   6.281
 5523WAT     H216812   8.026   8.601   6.345
 5524WAT      O16813   5.724   5.311   1.643
 5524WAT     H116814   5.649   5.319   1.578
 5524WAT     H216815   5.710   5.375   1.718
 5525WAT      O16816   5.168   2.607   3.695
 5525WAT     H116817   5.238   2.674   3.721
 5525WAT     H216818   5.131   2.632   3.605
 5526WAT      O16819   4.329   7.583   6.143
 5526WAT     H116820   4.229   7.586   6.132
 5526WAT     H216821   4.352   7.606   6.238
 5527WAT      O16822   5.124   1.867   3.188
 5527WAT     H116823   5.127   1.854   3.089
 5527WAT     H216824   5.034   1.901   3.215
 5528WAT      O16825   6.407   5.205   2.341
 5528WAT     H116826   6.332   5.193   2.276
 5528WAT     H216827   6.492   5.223   2.291
 5529WAT      O16828   5.279   9.182   3.235
 5529WAT     H116829   5.370   9.141   3.233
 5529WAT     H216830   5.284   9.277   3.203
 5530WAT      O16831   6.159   1.263   0.971
 5530WAT     H116832   6.099   1.195   1.014
 5530WAT     H216833   6.104   1.323   0.913
 5531WAT      O16834   2.083   5.379   4.934
 5531WAT     H116835   2.098   5.409   4.839
 5531WAT     H216836   1.999   5.324   4.938
 5532WAT      O16837   2.567   2.662   2.409
 5532WAT     H116838   2.583   2.640   2.505
 5532WAT     H216839   2.576   2.761   2.395
 5533WAT      O16840   6.386   8.061   6.311
 5533WAT     H116841   6.301   8.053   6.364
 5533WAT     H216842   6.365   8.099   6.221
 5534WAT      O16843   1.314   5.146   1.065
 5534WAT     H116844   1.241   5.185   1.009
 5534WAT     H216845   1.310   5.046   1.061
 5535WAT      O16846   7.829   5.522   6.817
 5535WAT     H116847   7.902   5.454   6.824
 5535WAT     H216848   7.800   5.550   6.909
 5536WAT      O16849   1.482   5.320   9.689
 5536WAT     H116850   1.555   5.273   9.641
 5536WAT     H216851   1.395   5.272   9.674
 5537WAT      O16852   9.642   7.739   4.402
 5537WAT     H116853   9.561   7.681   4.404
 5537WAT     H216854   9.690   7.727   4.315
 5538WAT      O16855   5.327   0.235   5.497
 5538WAT     H116856   5.388   0.239   5.576
 5538WAT     H216857   5.372   0.188   5.422
 5539WAT      O16858   0.440   7.236   9.748
 5539WAT     H116859   0.523   7.192   9.781
 5539WAT     H216860   0.363   7.171   9.755
 5540WAT      O16861   8.558   1.478   0.559
 5540WAT     H116862   8.622   1.441   0.627
 5540WAT     H216863   8.591   1.456   0.467
 5541WAT      O16864   1.797   2.383   5.134
 5541WAT     H116865   1.760   2.452   5.196
 5541WAT     H216866   1.769   2.403   5.041
 5542WAT      O16867   8.876   3.856   0.227
 5542WAT     H116868   8.879   3.886   0.132
 5542WAT     H216869   8.959   3.886   0.275
 5543WAT      O16870   4.095   9.696   9.827
 5543WAT     H116871   4.099   9.645   9.742
 5543WAT     H216872   4.019   9.761   9.824
 5544WAT      O16873   0.467   3.223   6.340
 5544WAT     H116874   0.372   3.202   6.364
 5544WAT     H216875   0.470   3.311   6.293
 5545WAT      O16876   8.544   2.262   8.490
 5545WAT     H116877   8.570   2.169   8.516
 5545WAT     H216878   8.449   2.263   8.461
 5546WAT      O16879   8.957   0.908   1.410
 5546WAT     H116880   9.033   0.941   1.467
 5546WAT     H216881   8.991   0.889   1.318
 5547WAT      O16882   9.517   0.327   5.562
 5547WAT     H116883   9.472   0.410   5.596
 5547WAT     H216884   9.614   0.330   5.586
 5548WAT      O16885   8.186   7.801   5.477
 5548WAT     H116886   8.108   7.776   5.534
 5548WAT     H216887   8.264   7.824   5.536
 5549WAT      O16888   1.872   7.161   1.676
 5549WAT     H116889   1.889   7.131   1.582
 5549WAT     H216890   1.939   7.231   1.700
 5550WAT      O16891   6.252   2.452   3.134
 5550WAT     H116892   6.298   2.381   3.187
 5550WAT     H216893   6.229   2.529   3.193
 5551WAT      O16894   4.209   1.248   5.038
 5551WAT     H116895   4.279   1.320   5.034
 5551WAT     H216896   4.249   1.165   5.077
 5552WAT      O16897   7.312   0.724   5.847
 5552WAT     H116898   7.237   0.658   5.846
 5552WAT     H216899   7.349   0.735   5.755
 5553WAT      O16900   6.727   8.950   8.438
 5553WAT     H116901   6.736   8.854   8.463
 5553WAT     H216902   6.712   9.005   8.520
 5554WAT      O16903   9.117   0.289   8.435
 5554WAT     H116904   9.024   0.324   8.440
 5554WAT     H216905   9.116   0.190   8.454
 5555WAT      O16906   5.235   4.230   9.096
 5555WAT     H116907   5.153   4.287   9.084
 5555WAT     H216908   5.290   4.266   9.171
 5556WAT      O16909   3.098   2.606   8.518
 5556WAT     H116910   3.146   2.573   8.437
 5556WAT     H216911   3.164   2.620   8.592
 5557WAT      O16912   2.664   9.155   4.063
 5557WAT     H116913   2.611   9.240   4.059
 5557WAT     H216914   2.734   9.162   4.134
 5558WAT      O16915   6.341   0.006   3.874
 5558WAT     H116916   6.423  -0.037   3.837
 5558WAT     H216917   6.317  -0.037   3.961
 5559WAT      O16918   5.927   9.085   4.549
 5559WAT     H116919   5.966   9.167   4.508
 5559WAT     H216920   5.946   9.084   4.647
 5560WAT      O16921   3.427   0.062   4.669
 5560WAT     H116922   3.343   0.040   4.719
 5560WAT     H216923   3.403   0.091   4.576
 5561WAT      O16924   0.216   3.294   7.098
 5561WAT     H116925   0.131   3.273   7.049
 5561WAT     H216926   0.275   3.348   7.039
 5562WAT      O16927   6.895   1.090   7.597
 5562WAT     H116928   6.907   0.993   7.619
 5562WAT     H216929   6.860   1.138   7.678
 5563WAT      O16930   9.832   0.296   7.008
 5563WAT     H116931   9.771   0.372   7.031
 5563WAT     H216932   9.843   0.292   6.908
 5564WAT      O16933   7.300   0.593   9.693
 5564WAT     H116934   7.307   0.609   9.791
 5564WAT     H216935   7.285   0.679   9.646
 5565WAT      O16936   7.436   0.503   1.761
 5565WAT     H116937   7.495   0.531   1.837
 5565WAT     H216938   7.340   0.522   1.784
 5566WAT      O16939   6.915   1.992   1.395
 5566WAT     H116940   6.840   2.032   1.342
 5566WAT     H216941   6.967   1.929   1.337
 5567WAT      O16942   0.337   8.385   2.801
 5567WAT     H116943   0.364   8.292   2.824
 5567WAT     H216944   0.390   8.417   2.723
 5568WAT      O16945   0.529   1.528   7.915
 5568WAT     H116946   0.601   1.530   7.984
 5568WAT     H216947   0.485   1.438   7.915
 5569WAT      O16948   3.513   5.165   0.975
 5569WAT     H116949   3.509   5.234   0.903
 5569WAT     H216950   3.590   5.183   1.035
 5570WAT      O16951   9.697   5.243   9.839
 5570WAT     H116952   9.695   5.330   9.789
 5570WAT     H216953   9.652   5.172   9.784
 5571WAT      O16954   6.744   3.643   4.178
 5571WAT     H116955   6.843   3.637   4.190
 5571WAT     H216956   6.724   3.684   4.089
 5572WAT      O16957   6.901   2.296   5.351
 5572WAT     H116958   6.900   2.343   5.440
 5572WAT     H216959   6.882   2.199   5.365
 5573WAT      O16960   3.217   3.010   8.832
 5573WAT     H116961   3.234   2.981   8.926
 5573WAT     H216962   3.120   2.997   8.810
 5574WAT      O16963   7.933   2.982   1.573
 5574WAT     H116964   7.955   2.913   1.642
 5574WAT     H216965   7.921   2.938   1.484
 5575WAT      O16966   0.053   4.703   6.255
 5575WAT     H116967   0.009   4.734   6.339
 5575WAT     H216968   0.047   4.603   6.249
 5576WAT      O16969   5.305   3.880   1.454
 5576WAT     H116970   5.331   3.921   1.542
 5576WAT     H216971   5.263   3.950   1.396
 5577WAT      O16972   9.712   2.087   0.207
 5577WAT     H116973   9.741   1.994   0.231
 5577WAT     H216974   9.712   2.144   0.290
 5578WAT      O16975   1.747   8.149   5.035
 5578WAT     H116976   1.803   8.158   4.953
 5578WAT     H216977   1.769   8.063   5.082
 5579WAT      O16978   6.380   8.274   7.740
 5579WAT     H116979   6.442   8.323   7.680
 5579WAT     H216980   6.419   8.269   7.832
 5580WAT      O16981   3.415   0.102   8.111
 5580WAT     H116982   3.482   0.041   8.154
 5580WAT     H216983   3.407   0.079   8.014
 5581WAT      O16984   8.738   0.384   2.361
 5581WAT     H116985   8.821   0.392   2.416
 5581WAT     H216986   8.686   0.469   2.368
 5582WAT      O16987   0.190   5.853   8.562
 5582WAT     H116988   0.099   5.856   8.521
 5582WAT     H216989   0.241   5.936   8.536
 5583WAT      O16990   7.645   3.973   1.552
 5583WAT     H116991   7.590   3.935   1.627
 5583WAT     H216992   7.740   3.943   1.562
 5584WAT      O16993   3.528   8.540   7.789
 5584WAT     H116994   3.470   8.462   7.765
 5584WAT     H216995   3.619   8.527   7.750
 5585WAT      O16996   0.776   5.400   0.280
 5585WAT     H116997   0.816   5.309   0.279
 5585WAT     H216998   0.749   5.425   0.187
 5586WAT      O16999   7.975   6.914   7.078
 5586WAT     H117000   7.931   6.825   7.086
 5586WAT     H217001   8.074   6.902   7.069
 5587WAT      O17002   0.656   3.112   0.067
 5587WAT     H117003   0.564   3.074   0.054
 5587WAT     H217004   0.716   3.041   0.105
 5588WAT      O17005   7.462   1.996   1.931
 5588WAT     H117006   7.545   1.946   1.909
 5588WAT     H217007   7.421   1.960   2.014
 5589WAT      O17008   5.841   5.269   1.377
 5589WAT     H117009   5.774   5.218   1.322
 5589WAT     H217010   5.800   5.292   1.465
 5590WAT      O17011   7.595   9.172   5.171
 5590WAT     H117012   7.604   9.154   5.073
 5590WAT     H217013   7.665   9.236   5.200
 5591WAT      O17014   6.648   5.265   5.141
 5591WAT     H117015   6.645   5.299   5.047
 5591WAT     H217016   6.737   5.286   5.181
 5592WAT      O17017   0.549   3.873   6.094
 5592WAT     H117018   0.609   3.943   6.133
 5592WAT     H217019   0.550   3.880   5.994
 5593WAT      O17020   9.065   1.888   4.915
 5593WAT     H117021   9.162   1.865   4.914
 5593WAT     H217022   9.053   1.979   4.955
 5594WAT      O17023   0.069   9.021   3.295
 5594WAT     H117024   0.153   9.051   3.342
 5594WAT     H217025   0.041   9.091   3.229
 5595WAT      O17026   5.399   3.102   7.131
 5595WAT     H117027   5.449   3.043   7.193
 5595WAT     H217028   5.385   3.055   7.044
 5596WAT      O17029   2.431   5.692   4.904
 5596WAT     H117030   2.371   5.701   4.825
 5596WAT     H217031   2.427   5.598   4.938
 5597WAT      O17032   7.387   8.943   0.146
 5597WAT     H117033   7.369   8.896   0.233
 5597WAT     H217034   7.356   8.886   0.071
 5598WAT      O17035   6.374   2.599   0.297
 5598WAT     H117036   6.360   2.506   0.264
 5598WAT     H217037   6.370   2.663   0.219
 5599WAT      O17038   0.831   0.881   2.076
 5599WAT     H117039   0.842   0.782   2.066
 5599WAT     H217040   0.921   0.925   2.081
 5600WAT      O17041   1.437   3.572   7.152
 5600WAT     H117042   1.345   3.550   7.183
 5600WAT     H217043   1.504   3.527   7.211
 5601WAT      O17044   0.595   7.375   2.796
 5601WAT     H117045   0.575   7.291   2.745
 5601WAT     H217046   0.510   7.410   2.837
 5602WAT      O17047   9.811   1.360   2.448
 5602WAT     H117048   9.723   1.345   2.403
 5602WAT     H217049   9.843   1.452   2.426
 5603WAT      O17050   1.764   2.578   9.419
 5603WAT     H117051   1.720   2.525   9.491
 5603WAT     H217052   1.855   2.540   9.400
 5604WAT      O17053   2.082   1.552   9.795
 5604WAT     H117054   2.005   1.516   9.848
 5604WAT     H217055   2.167   1.541   9.847
 5605WAT      O17056   9.845   8.484   2.188
 5605WAT     H117057   9.752   8.501   2.221
 5605WAT     H217058   9.900   8.446   2.262
 5606WAT      O17059   7.364   1.957   4.659
 5606WAT     H117060   7.343   1.907   4.743
 5606WAT     H217061   7.339   1.902   4.580
 5607WAT      O17062   2.781   7.391   7.308
 5607WAT     H117063   2.696   7.375   7.257
 5607WAT     H217064   2.845   7.441   7.250
 5608WAT      O17065   8.404   2.693   1.896
 5608WAT     H117066   8.402   2.716   1.799
 5608WAT     H217067   8.496   2.662   1.920
 5609WAT      O17068   2.890   3.545   0.571
 5609WAT     H117069   2.954   3.471   0.549
 5609WAT     H217070   2.898   3.567   0.668
 5610WAT      O17071   9.687   0.070   3.164
 5610WAT     H117072   9.620   0.098   3.232
 5610WAT     H217073   9.648   0.082   3.072
 5611WAT      O17074   2.279   3.989   3.250
 5611WAT     H117075   2.276   4.088   3.255
 5611WAT     H217076   2.371   3.960   3.220
 5612WAT      O17077   7.933   4.647   7.697
 5612WAT     H117078   7.882   4.631   7.781
 5612WAT     H217079   7.911   4.739   7.662
 5613WAT      O17080   9.218   4.510   0.901
 5613WAT     H117081   9.122   4.527   0.920
 5613WAT     H217082   9.255   4.445   0.968
 5614WAT      O17083   5.930   8.806   5.521
 5614WAT     H117084   5.981   8.764   5.446
 5614WAT     H217085   5.848   8.851   5.485
 5615WAT      O17086   3.786   5.932   5.063
 5615WAT     H117087   3.882   5.909   5.074
 5615WAT     H217088   3.773   6.029   5.083
 5616WAT      O17089   8.968   3.592   0.219
 5616WAT     H117090   8.909   3.670   0.198
 5616WAT     H217091   8.951   3.562   0.312
 5617WAT      O17092   3.584   4.694   0.045
 5617WAT     H117093   3.520   4.699   0.121
 5617WAT     H217094   3.667   4.746   0.067
 5618WAT      O17095   2.972   2.844   1.951
 5618WAT     H117096   3.057   2.839   2.002
 5618WAT     H217097   2.992   2.871   1.856
 5619WAT      O17098   0.021   7.211   9.752
 5619WAT     H117099   0.005   7.295   9.699
 5619WAT     H217100  -0.065   7.182   9.795
 5620WAT      O17101   0.465   5.393   5.448
 5620WAT     H117102   0.522   5.382   5.367
 5620WAT     H217103   0.511   5.454   5.513
 5621WAT      O17104   0.899   7.781   9.467
 5621WAT     H117105   0.856   7.725   9.539
 5621WAT     H217106   0.861   7.756   9.378
 5622WAT      O17107   2.663   8.303   6.414
 5622WAT     H117108   2.633   8.242   6.340
 5622WAT     H217109   2.761   8.320   6.406
 5623WAT      O17110   6.838   6.076   9.874
 5623WAT     H117111   6.854   6.105   9.779
 5623WAT     H217112   6.815   6.157   9.929
 5624WAT      O17113   4.038   5.462   9.556
 5624WAT     H117114   4.064   5.559   9.549
 5624WAT     H217115   4.117   5.405   9.533
 5625WAT      O17116   5.749   8.211   0.799
 5625WAT     H117117   5.738   8.139   0.868
 5625WAT     H217118   5.806   8.284   0.836
 5626WAT      O17119   9.570   3.581   7.875
 5626WAT     H117120   9.580   3.494   7.923
 5626WAT     H217121   9.567   3.656   7.942
 5627WAT      O17122   6.918   7.700   5.398
 5627WAT     H117123   6.914   7.705   5.298
 5627WAT     H217124   6.898   7.606   5.427
 5628WAT      O17125   9.355   8.757   0.263
 5628WAT     H117126   9.308   8.689   0.207
 5628WAT     H217127   9.447   8.774   0.226
 5629WAT      O17128   2.596   3.981   1.480
 5629WAT     H117129   2.593   3.962   1.381
 5629WAT     H217130   2.631   3.901   1.528
 5630WAT      O17131   1.132   4.574   6.490
 5630WAT     H117132   1.170   4.482   6.497
 5630WAT     H217133   1.045   4.578   6.539
 5631WAT      O17134   7.795   9.709   5.137
 5631WAT     H117135   7.890   9.739   5.130
 5631WAT     H217136   7.742   9.751   5.064
 5632WAT      O17137   9.026   0.029   3.933
 5632WAT     H117138   9.058   0.112   3.978
 5632WAT     H217139   8.933   0.043   3.899
 5633WAT      O17140   0.409   8.304   0.772
 5633WAT     H117141   0.318   8.306   0.729
 5633WAT     H217142   0.411   8.369   0.847
 5634WAT      O17143   0.302   0.609   4.002
 5634WAT     H117144   0.285   0.538   4.072
 5634WAT     H217145   0.399   0.609   3.978
 5635WAT      O17146   1.431   8.815   3.285
 5635WAT     H117147   1.527   8.826   3.310
 5635WAT     H217148   1.393   8.903   3.258
 5636WAT      O17149   7.290   2.530   9.509
 5636WAT     H117150   7.364   2.514   9.444
 5636WAT     H217151   7.308   2.614   9.560
 5637WAT      O17152   0.141   2.652   7.194
 5637WAT     H117153   0.197   2.678   7.116
 5637WAT     H217154   0.134   2.728   7.258
 5638WAT      O17155   7.944   1.307   1.207
 5638WAT     H117156   8.028   1.253   1.210
 5638WAT     H217157   7.948   1.380   1.275
 5639WAT      O17158   6.797   0.834   2.505
 5639WAT     H117159   6.802   0.770   2.582
 5639WAT     H217160   6.723   0.808   2.444
 5640WAT      O17161   4.989   0.623   6.484
 5640WAT     H117162   5.072   0.602   6.536
 5640WAT     H217163   5.013   0.650   6.391
 5641WAT      O17164   9.157   5.584   2.582
 5641WAT     H117165   9.159   5.487   2.560
 5641WAT     H217166   9.235   5.630   2.540
 5642WAT      O17167   9.213   5.946   5.608
 5642WAT     H117168   9.148   6.001   5.661
 5642WAT     H217169   9.272   5.895   5.671
 5643WAT      O17170   4.128   6.212   2.085
 5643WAT     H117171   4.142   6.190   2.181
 5643WAT     H217172   4.154   6.307   2.068
 5644WAT      O17173   5.148   9.022   1.953
 5644WAT     H117174   5.179   9.117   1.945
 5644WAT     H217175   5.113   8.991   1.865
 5645WAT      O17176   6.732   4.864   7.868
 5645WAT     H117177   6.790   4.784   7.882
 5645WAT     H217178   6.682   4.855   7.782
 5646WAT      O17179   7.813   1.733   1.145
 5646WAT     H117180   7.724   1.769   1.172
 5646WAT     H217181   7.802   1.640   1.110
 5647WAT      O17182   4.506   0.763   9.248
 5647WAT     H117183   4.420   0.796   9.289
 5647WAT     H217184   4.515   0.801   9.156
 5648WAT      O17185   9.033   5.022   7.343
 5648WAT     H117186   9.072   4.930   7.335
 5648WAT     H217187   9.041   5.054   7.437
 5649WAT      O17188   7.321   7.052   0.596
 5649WAT     H117189   7.293   7.085   0.687
 5649WAT     H217190   7.311   7.126   0.530
 5650WAT      O17191   5.751   0.434   8.682
 5650WAT     H117192   5.767   0.532   8.679
 5650WAT     H217193   5.767   0.401   8.776
 5651WAT      O17194   1.907   6.910   6.635
 5651WAT     H117195   1.935   6.989   6.580
 5651WAT     H217196   1.827   6.867   6.594
 5652WAT      O17197   2.393   7.226   4.943
 5652WAT     H117198   2.384   7.143   4.998
 5652WAT     H217199   2.341   7.215   4.858
 5653WAT      O17200   8.917   5.592   7.277
 5653WAT     H117201   8.958   5.625   7.191
 5653WAT     H217202   8.836   5.538   7.256
 5654WAT      O17203   9.756   0.175   0.757
 5654WAT     H117204   9.677   0.113   0.763
 5654WAT     H217205   9.788   0.198   0.849
 5655WAT      O17206   5.899   9.643   9.131
 5655WAT     H117207   5.902   9.562   9.189
 5655WAT     H217208   5.898   9.616   9.035
 5656WAT      O17209   5.607   9.077   2.472
 5656WAT     H117210   5.563   9.167   2.479
 5656WAT     H217211   5.601   9.045   2.377
 5657WAT      O17212   7.855   7.030   7.844
 5657WAT     H117213   7.873   7.071   7.755
 5657WAT     H217214   7.921   6.957   7.861
 5658WAT      O17215   0.964   2.078   3.637
 5658WAT     H117216   1.022   2.007   3.597
 5658WAT     H217217   1.006   2.168   3.621
 5659WAT      O17218   2.483   1.905   2.922
 5659WAT     H117219   2.502   1.918   2.825
 5659WAT     H217220   2.393   1.943   2.944
 5660WAT      O17221   6.822   6.800   7.377
 5660WAT     H117222   6.774   6.755   7.452
 5660WAT     H217223   6.828   6.898   7.395
 5661WAT      O17224   5.811   9.658   5.429
 5661WAT     H117225   5.745   9.665   5.504
 5661WAT     H217226   5.885   9.597   5.455
 5662WAT      O17227   4.415   3.200   0.179
 5662WAT     H117228   4.466   3.170   0.098
 5662WAT     H217229   4.405   3.123   0.242
 5663WAT      O17230   4.730   3.741   8.956
 5663WAT     H117231   4.651   3.799   8.939
 5663WAT     H217232   4.814   3.791   8.935
 5664WAT      O17233   6.680   8.874   5.850
 5664WAT     H117234   6.713   8.846   5.760
 5664WAT     H217235   6.748   8.933   5.893
 5665WAT      O17236   2.003   3.185   0.545
 5665WAT     H117237   1.952   3.114   0.594
 5665WAT     H217238   1.946   3.221   0.470
 5666WAT      O17239   4.144   2.483   9.870
 5666WAT     H117240   4.139   2.403   9.810
 5666WAT     H217241   4.239   2.496   9.901
 5667WAT      O17242   4.293   2.704   6.227
 5667WAT     H117243   4.377   2.655   6.248
 5667WAT     H217244   4.214   2.652   6.261
 5668WAT      O17245   9.865   3.827   4.771
 5668WAT     H117246   9.882   3.925   4.786
 5668WAT     H217247   9.944   3.787   4.724
 5669WAT      O17248   1.942   1.258   6.950
 5669WAT     H117249   2.003   1.245   6.872
 5669WAT     H217250   1.925   1.170   6.994
 5670WAT      O17251   2.041   3.039   8.006
 5670WAT     H117252   2.021   3.079   7.917
 5670WAT     H217253   2.067   2.943   7.994
 5671WAT      O17254   2.006   3.826   1.938
 5671WAT     H117255   1.979   3.760   1.867
 5671WAT     H217256   1.996   3.919   1.903
 5672WAT      O17257   8.927   7.642   6.299
 5672WAT     H117258   8.980   7.597   6.370
 5672WAT     H217259   8.831   7.613   6.306
 5673WAT      O17260   6.533   3.081   3.940
 5673WAT     H117261   6.534   3.181   3.934
 5673WAT     H217262   6.449   3.052   3.985
 5674WAT      O17263   3.420   5.856   2.839
 5674WAT     H117264   3.421   5.888   2.744
 5674WAT     H217265   3.473   5.919   2.896
 5675WAT      O17266   5.125   2.005   2.548
 5675WAT     H117267   5.078   2.088   2.518
 5675WAT     H217268   5.219   2.028   2.575
 5676WAT      O17269   0.726   1.900   1.291
 5676WAT     H117270   0.722   1.843   1.209
 5676WAT     H217271   0.820   1.930   1.307
 5677WAT      O17272   6.809   7.176   8.781
 5677WAT     H117273   6.771   7.120   8.854
 5677WAT     H217274   6.788   7.135   8.692
 5678WAT      O17275   4.962   7.427   7.344
 5678WAT     H117276   4.960   7.327   7.353
 5678WAT     H217277   4.870   7.460   7.321
 5679WAT      O17278   3.333   3.155   3.201
 5679WAT     H117279   3.307   3.145   3.297
 5679WAT     H217280   3.307   3.246   3.169
 5680WAT      O17281   8.176   0.054   5.454
 5680WAT     H117282   8.275   0.057   5.449
 5680WAT     H217283   8.146   0.057   5.549
 5681WAT      O17284   2.376   3.049   7.561
 5681WAT     H117285   2.467   3.011   7.572
 5681WAT     H217286   2.308   2.976   7.565
 5682WAT      O17287   3.795   9.343   5.509
 5682WAT     H117288   3.818   9.368   5.603
 5682WAT     H217289   3.756   9.251   5.507
 5683WAT      O17290   1.783   0.314   3.727
 5683WAT     H117291   1.715   0.375   3.686
 5683WAT     H217292   1.831   0.264   3.654
 5684WAT      O17293   1.905   4.291   8.439
 5684WAT     H117294   1.805   4.292   8.444
 5684WAT     H217295   1.943   4.263   8.527
 5685WAT      O17296   9.701   5.003   5.500
 5685WAT     H117297   9.727   5.075   5.564
 5685WAT     H217298   9.685   4.918   5.551
 5686WAT      O17299   7.418   3.546   9.102
 5686WAT     H117300   7.496   3.547   9.040
 5686WAT     H217301   7.372   3.458   9.096
 5687WAT      O17302   7.514   3.125   0.522
 5687WAT     H117303   7.499   3.169   0.434
 5687WAT     H217304   7.566   3.041   0.509
 5688WAT      O17305   7.242   8.104   6.043
 5688WAT     H117306   7.166   8.053   6.084
 5688WAT     H217307   7.291   8.154   6.115
 5689WAT      O17308   1.344   6.480   0.258
 5689WAT     H117309   1.431   6.438   0.283
 5689WAT     H217310   1.362   6.571   0.219
 5690WAT      O17311   1.120   8.925   2.061
 5690WAT     H117312   1.090   9.020   2.063
 5690WAT     H217313   1.072   8.873   2.131
 5691WAT      O17314   9.567   5.926   4.619
 5691WAT     H117315   9.610   5.914   4.530
 5691WAT     H217316   9.576   5.841   4.672
 5692WAT      O17317   9.710   7.626   3.795
 5692WAT     H117318   9.764   7.653   3.715
 5692WAT     H217319   9.721   7.695   3.866
 5693WAT      O17320   4.816   1.779   8.841
 5693WAT     H117321   4.801   1.711   8.913
 5693WAT     H217322   4.731   1.829   8.824
 5694WAT      O17323   5.400   5.949   8.540
 5694WAT     H117324   5.361   5.909   8.457
 5694WAT     H217325   5.425   6.044   8.522
 5695WAT      O17326   1.687   7.505   8.417
 5695WAT     H117327   1.705   7.563   8.497
 5695WAT     H217328   1.589   7.505   8.397
 5696WAT      O17329   8.031   7.080   9.825
 5696WAT     H117330   7.952   7.058   9.883
 5696WAT     H217331   8.085   6.997   9.810
 5697WAT      O17332   1.626   0.411   5.826
 5697WAT     H117333   1.628   0.384   5.730
 5697WAT     H217334   1.677   0.497   5.838
 5698WAT      O17335   3.513   9.385   7.048
 5698WAT     H117336   3.493   9.287   7.044
 5698WAT     H217337   3.428   9.437   7.040
 5699WAT      O17338   6.904   6.776   8.507
 5699WAT     H117339   6.816   6.741   8.473
 5699WAT     H217340   6.954   6.701   8.550
 5700WAT      O17341   5.268   9.417   0.120
 5700WAT     H117342   5.194   9.360   0.155
 5700WAT     H217343   5.345   9.416   0.184
 5701WAT      O17344   6.383   1.110   6.066
 5701WAT     H117345   6.398   1.200   6.025
 5701WAT     H217346   6.344   1.049   5.998
 5702WAT      O17347   2.032   7.082   5.341
 5702WAT     H117348   2.038   6.986   5.311
 5702WAT     H217349   1.945   7.121   5.313
 5703WAT      O17350   2.582   1.980   3.444
 5703WAT     H117351   2.583   1.980   3.344
 5703WAT     H217352   2.655   2.039   3.478
 5704WAT      O17353   0.343   5.695   4.499
 5704WAT     H117354   0.244   5.704   4.488
 5704WAT     H217355   0.367   5.598   4.500
 5705WAT      O17356   5.626   6.239   0.666
 5705WAT     H117357   5.612   6.145   0.696
 5705WAT     H217358   5.724   6.261   0.670
 5706WAT      O17359   3.600   1.054   3.239
 5706WAT     H117360   3.642   1.122   3.179
 5706WAT     H217361   3.501   1.063   3.237
 5707WAT      O17362   3.034   7.966   4.408
 5707WAT     H117363   3.017   7.894   4.476
 5707WAT     H217364   2.947   7.994   4.367
 5708WAT      O17365   6.625   9.379   7.902
 5708WAT     H117366   6.576   9.369   7.815
 5708WAT     H217367   6.562   9.361   7.978
 5709WAT      O17368   2.180   7.180   6.678
 5709WAT     H117369   2.254   7.132   6.630
 5709WAT     H217370   2.097   7.178   6.621
 5710WAT      O17371   7.505   4.511   4.379
 5710WAT     H117372   7.470   4.561   4.459
 5710WAT     H217373   7.495   4.568   4.298
 5711WAT      O17374   7.335   0.702   4.593
 5711WAT     H117375   7.362   0.798   4.587
 5711WAT     H217376   7.324   0.664   4.501
 5712WAT      O17377   3.940   5.434   9.142
 5712WAT     H117378   3.918   5.530   9.123
 5712WAT     H217379   3.874   5.397   9.207
 5713WAT      O17380   6.148   1.780   2.526
 5713WAT     H117381   6.195   1.861   2.491
 5713WAT     H217382   6.050   1.799   2.533
 5714WAT      O17383   1.815   2.433   3.223
 5714WAT     H117384   1.832   2.485   3.306
 5714WAT     H217385   1.762   2.488   3.158
 5715WAT      O17386   6.904   1.767   6.553
 5715WAT     H117387   6.889   1.777   6.652
 5715WAT     H217388   6.901   1.856   6.509
 5716WAT      O17389   1.692   6.276   9.647
 5716WAT     H117390   1.600   6.246   9.671
 5716WAT     H217391   1.697   6.376   9.656
 5717WAT      O17392   1.819   7.412   8.179
 5717WAT     H117393   1.767   7.421   8.264
 5717WAT     H217394   1.758   7.425   8.101
 5718WAT      O17395   3.333   7.986   5.519
 5718WAT     H117396   3.389   7.976   5.436
 5718WAT     H217397   3.253   7.927   5.512
 5719WAT      O17398   8.491   0.763   9.824
 5719WAT     H117399   8.463   0.670   9.844
 5719WAT     H217400   8.586   0.776   9.852
 5720WAT      O17401   6.401   7.239   1.469
 5720WAT     H117402   6.443   7.297   1.399
 5720WAT     H217403   6.453   7.246   1.554
 5721WAT      O17404   7.776   2.103   7.830
 5721WAT     H117405   7.809   2.038   7.899
 5721WAT     H217406   7.699   2.154   7.867
 5722WAT      O17407   7.741   4.961   8.943
 5722WAT     H117408   7.812   4.891   8.939
 5722WAT     H217409   7.762   5.034   8.878
 5723WAT      O17410   3.813   8.775   2.422
 5723WAT     H117411   3.893   8.733   2.466
 5723WAT     H217412   3.741   8.707   2.411
 5724WAT      O17413   7.081   2.217   6.355
 5724WAT     H117414   7.166   2.235   6.404
 5724WAT     H217415   7.084   2.262   6.266
 5725WAT      O17416   7.263   6.499   6.610
 5725WAT     H117417   7.199   6.538   6.544
 5725WAT     H217418   7.235   6.406   6.632
 5726WAT      O17419   8.701   1.732   4.671
 5726WAT     H117420   8.782   1.785   4.695
 5726WAT     H217421   8.691   1.656   4.735
 5727WAT      O17422   2.215   9.169   6.592
 5727WAT     H117423   2.262   9.257   6.588
 5727WAT     H217424   2.265   9.108   6.653
 5728WAT      O17425   5.809   8.653   3.938
 5728WAT     H117426   5.798   8.659   3.838
 5728WAT     H217427   5.736   8.596   3.976
 5729WAT      O17428   7.198   4.856   7.163
 5729WAT     H117429   7.237   4.806   7.086
 5729WAT     H217430   7.244   4.828   7.248
 5730WAT      O17431   1.479   6.688   8.979
 5730WAT     H117432   1.496   6.784   9.003
 5730WAT     H217433   1.382   6.676   8.957
 5731WAT      O17434   3.135   3.321   7.483
 5731WAT     H117435   3.153   3.338   7.580
 5731WAT     H217436   3.063   3.252   7.474
 5732WAT      O17437   6.028   3.057   4.722
 5732WAT     H117438   5.968   3.058   4.802
 5732WAT     H217439   6.029   3.148   4.680
 5733WAT      O17440   8.085   0.081   4.921
 5733WAT     H117441   8.154   0.103   4.852
 5733WAT     H217442   8.126   0.087   5.012
 5734WAT      O17443   8.096   6.632   5.430
 5734WAT     H117444   8.029   6.647   5.503
 5734WAT     H217445   8.089   6.706   5.362
 5735WAT      O17446   1.282   0.723   1.762
 5735WAT     H117447   1.198   0.703   1.812
 5735WAT     H217448   1.292   0.658   1.686
 5736WAT      O17449   1.632   8.243   2.450
 5736WAT     H117450   1.561   8.185   2.490
 5736WAT     H217451   1.671   8.197   2.371
 5737WAT      O17452   8.429   2.941   5.592
 5737WAT     H117453   8.362   2.964   5.521
 5737WAT     H217454   8.462   3.025   5.635
 5738WAT      O17455   4.109   5.046   8.778
 5738WAT     H117456   4.035   5.085   8.833
 5738WAT     H217457   4.074   5.022   8.687
 5739WAT      O17458   7.519   7.265   3.257
 5739WAT     H117459   7.581   7.321   3.313
 5739WAT     H217460   7.450   7.223   3.316
 5740WAT      O17461   3.059   5.540   2.715
 5740WAT     H117462   2.992   5.513   2.784
 5740WAT     H217463   3.147   5.560   2.759
 5741WAT      O17464   1.080   5.362   4.586
 5741WAT     H117465   1.126   5.279   4.615
 5741WAT     H217466   1.143   5.418   4.532
 5742WAT      O17467   4.920   1.335   5.612
 5742WAT     H117468   4.847   1.303   5.672
 5742WAT     H217469   5.007   1.330   5.661
 5743WAT      O17470   4.830   2.697   7.673
 5743WAT     H117471   4.796   2.614   7.629
 5743WAT     H217472   4.887   2.672   7.752
 5744WAT      O17473   5.521   9.715   4.052
 5744WAT     H117474   5.444   9.732   3.991
 5744WAT     H217475   5.602   9.692   3.998
 5745WAT      O17476   1.253   7.452   9.714
 5745WAT     H117477   1.348   7.443   9.742
 5745WAT     H217478   1.245   7.523   9.644
 5746WAT      O17479   7.631   6.801   4.793
 5746WAT     H117480   7.625   6.713   4.746
 5746WAT     H217481   7.719   6.844   4.773
 5747WAT      O17482   7.152   2.302   4.488
 5747WAT     H117483   7.127   2.240   4.562
 5747WAT     H217484   7.216   2.255   4.426
 5748WAT      O17485   6.760   8.957   0.571
 5748WAT     H117486   6.787   8.876   0.519
 5748WAT     H217487   6.808   8.958   0.659
 5749WAT      O17488   1.927   0.432   3.162
 5749WAT     H117489   1.989   0.384   3.224
 5749WAT     H217490   1.913   0.526   3.195
 5750WAT      O17491   4.594   2.962   5.714
 5750WAT     H117492   4.586   3.053   5.674
 5750WAT     H217493   4.579   2.892   5.644
 5751WAT      O17494   7.451   2.454   7.327
 5751WAT     H117495   7.435   2.527   7.394
 5751WAT     H217496   7.386   2.464   7.251
 5752WAT      O17497   1.503   9.534   8.295
 5752WAT     H117498   1.429   9.470   8.272
 5752WAT     H217499   1.575   9.527   8.226
 5753WAT      O17500   1.530   3.170   6.008
 5753WAT     H117501   1.494   3.121   6.087
 5753WAT     H217502   1.613   3.219   6.034
 5754WAT      O17503   5.202   4.067   1.297
 5754WAT     H117504   5.233   4.142   1.239
 5754WAT     H217505   5.121   4.024   1.257
 5755WAT      O17506   1.514   8.084   5.962
 5755WAT     H117507   1.463   8.170   5.952
 5755WAT     H217508   1.603   8.093   5.917
 5756WAT      O17509   2.470   2.879   0.376
 5756WAT     H117510   2.447   2.880   0.279
 5756WAT     H217511   2.483   2.972   0.409
 5757WAT      O17512   6.759   2.114   4.472
 5757WAT     H117513   6.739   2.021   4.504
 5757WAT     H217514   6.771   2.174   4.551
 5758WAT      O17515   6.236   1.961   5.698
 5758WAT     H117516   6.305   1.928   5.762
 5758WAT     H217517   6.169   1.888   5.681
 5759WAT      O17518   3.764   8.233   1.061
 5759WAT     H117519   3.673   8.209   1.095
 5759WAT     H217520   3.816   8.281   1.132
 5760WAT      O17521   3.007   7.883   6.980
 5760WAT     H117522   2.976   7.873   6.885
 5760WAT     H217523   3.098   7.842   6.990
 5761WAT      O17524   6.422   2.214   7.211
 5761WAT     H117525   6.358   2.176   7.278
 5761WAT     H217526   6.439   2.310   7.234
 5762WAT      O17527   9.307   4.054   8.018
 5762WAT     H117528   9.359   4.101   7.946
 5762WAT     H217529   9.262   3.973   7.981
 5763WAT      O17530   0.071   8.232   1.302
 5763WAT     H117531   0.057   8.159   1.236
 5763WAT     H217532   0.077   8.192   1.394
 5764WAT      O17533   4.422   6.585   3.080
 5764WAT     H117534   4.347   6.611   3.018
 5764WAT     H217535   4.385   6.531   3.156
 5765WAT      O17536   3.943   2.190   3.154
 5765WAT     H117537   3.962   2.103   3.200
 5765WAT     H217538   3.874   2.176   3.083
 5766WAT      O17539   8.734   9.111   5.025
 5766WAT     H117540   8.696   9.201   5.046
 5766WAT     H217541   8.831   9.120   5.002
 5767WAT      O17542   9.278   4.538   3.613
 5767WAT     H117543   9.194   4.571   3.569
 5767WAT     H217544   9.298   4.446   3.582
 5768WAT      O17545   6.383   5.955   5.011
 5768WAT     H117546   6.355   5.894   5.086
 5768WAT     H217547   6.430   6.034   5.049
 5769WAT      O17548   2.018   3.183   6.299
 5769WAT     H117549   1.991   3.212   6.391
 5769WAT     H217550   2.113   3.208   6.283
 5770WAT      O17551   0.189   5.220   1.554
 5770WAT     H117552   0.281   5.187   1.537
 5770WAT     H217553   0.182   5.251   1.649
 5771WAT      O17554   1.184   3.636   4.298
 5771WAT     H117555   1.223   3.721   4.333
 5771WAT     H217556   1.177   3.569   4.373
 5772WAT      O17557   6.172   5.724   0.618
 5772WAT     H117558   6.234   5.802   0.614
 5772WAT     H217559   6.225   5.640   0.633
 5773WAT      O17560   1.349   1.641   5.670
 5773WAT     H117561   1.428   1.624   5.729
 5773WAT     H217562   1.359   1.589   5.585
 5774WAT      O17563   4.384   0.538   8.014
 5774WAT     H117564   4.476   0.536   8.054
 5774WAT     H217565   4.385   0.594   7.931
 5775WAT      O17566   8.081   2.711   7.793
 5775WAT     H117567   8.114   2.617   7.785
 5775WAT     H217568   8.134   2.771   7.733
 5776WAT      O17569   6.021   0.240   2.938
 5776WAT     H117570   6.066   0.207   3.021
 5776WAT     H217571   6.030   0.172   2.866
 5777WAT      O17572   1.679   2.530   8.415
 5777WAT     H117573   1.590   2.488   8.397
 5777WAT     H217574   1.746   2.498   8.347
 5778WAT      O17575   8.121   6.538   9.665
 5778WAT     H117576   8.035   6.489   9.676
 5778WAT     H217577   8.114   6.628   9.710
 5779WAT      O17578   0.952   6.097   5.683
 5779WAT     H117579   0.971   6.183   5.731
 5779WAT     H217580   0.857   6.097   5.653
 5780WAT      O17581   5.817   8.730   0.897
 5780WAT     H117582   5.878   8.731   0.817
 5780WAT     H217583   5.871   8.745   0.980
 5781WAT      O17584   2.538   8.389   3.424
 5781WAT     H117585   2.601   8.311   3.417
 5781WAT     H217586   2.523   8.428   3.333
 5782WAT      O17587   7.560   4.587   9.480
 5782WAT     H117588   7.594   4.561   9.571
 5782WAT     H217589   7.489   4.656   9.490
 5783WAT      O17590   2.895   2.082   5.107
 5783WAT     H117591   2.897   2.043   5.015
 5783WAT     H217592   2.830   2.031   5.164
 5784WAT      O17593   5.382   2.572   8.206
 5784WAT     H117594   5.387   2.582   8.305
 5784WAT     H217595   5.449   2.505   8.175
 5785WAT      O17596   2.388   5.662   0.520
 5785WAT     H117597   2.301   5.616   0.538
 5785WAT     H217598   2.417   5.711   0.602
 5786WAT      O17599   0.468   0.490   1.500
 5786WAT     H117600   0.537   0.417   1.492
 5786WAT     H217601   0.377   0.451   1.490
 5787WAT      O17602   1.816   2.832   7.987
 5787WAT     H117603   1.734   2.777   7.972
 5787WAT     H217604   1.804   2.889   8.068
 5788WAT      O17605   7.641   2.242   6.204
 5788WAT     H117606   7.608   2.321   6.154
 5788WAT     H217607   7.571   2.170   6.203
 5789WAT      O17608   7.083   7.268   8.697
 5789WAT     H117609   7.047   7.307   8.612
 5789WAT     H217610   7.014   7.207   8.737
 5790WAT      O17611   8.019   4.914   2.191
 5790WAT     H117612   8.068   5.000   2.206
 5790WAT     H217613   8.083   4.837   2.198
 5791WAT      O17614   4.953   0.086   8.367
 5791WAT     H117615   4.896   0.008   8.343
 5791WAT     H217616   5.048   0.068   8.339
 5792WAT      O17617   3.789   7.501   6.865
 5792WAT     H117618   3.837   7.581   6.902
 5792WAT     H217619   3.715   7.532   6.805
 5793WAT      O17620   9.640   2.608   9.363
 5793WAT     H117621   9.583   2.541   9.411
 5793WAT     H217622   9.666   2.572   9.273
 5794WAT      O17623   1.793   0.560   4.767
 5794WAT     H117624   1.851   0.629   4.812
 5794WAT     H217625   1.701   0.565   4.805
 5795WAT      O17626   1.400   7.731   3.633
 5795WAT     H117627   1.457   7.675   3.573
 5795WAT     H217628   1.347   7.795   3.578
 5796WAT      O17629   2.286   9.412   6.615
 5796WAT     H117630   2.203   9.465   6.631
 5796WAT     H217631   2.363   9.475   6.597
 5797WAT      O17632   4.620   3.211   8.557
 5797WAT     H117633   4.640   3.197   8.459
 5797WAT     H217634   4.644   3.128   8.607
 5798WAT      O17635   5.623   1.957   6.303
 5798WAT     H117636   5.708   1.974   6.353
 5798WAT     H217637   5.620   1.863   6.271
 5799WAT      O17638   2.970   9.008   9.310
 5799WAT     H117639   2.954   8.995   9.212
 5799WAT     H217640   2.993   9.104   9.327
 5800WAT      O17641   8.005   9.322   5.411
 5800WAT     H117642   8.020   9.315   5.312
 5800WAT     H217643   8.093   9.328   5.457
 5801WAT      O17644   2.945   5.346   3.905
 5801WAT     H117645   2.985   5.419   3.849
 5801WAT     H217646   2.854   5.374   3.935
 5802WAT      O17647   7.818   6.471   1.858
 5802WAT     H117648   7.832   6.394   1.795
 5802WAT     H217649   7.750   6.533   1.821
 5803WAT      O17650   0.054   5.148   6.272
 5803WAT     H117651   0.010   5.059   6.258
 5803WAT     H217652  -0.004   5.206   6.329
 5804WAT      O17653   0.658   8.147   7.208
 5804WAT     H117654   0.569   8.107   7.227
 5804WAT     H217655   0.714   8.081   7.158
 5805WAT      O17656   0.980   4.877   0.660
 5805WAT     H117657   0.956   4.816   0.585
 5805WAT     H217658   0.898   4.899   0.713
 5806WAT      O17659   4.366   9.167   7.343
 5806WAT     H117660   4.266   9.171   7.350
 5806WAT     H217661   4.403   9.260   7.348
 5807WAT      O17662   9.510   9.831   8.919
 5807WAT     H117663   9.586   9.780   8.881
 5807WAT     H217664   9.430   9.822   8.860
 5808WAT      O17665   5.737   4.169   6.883
 5808WAT     H117666   5.641   4.156   6.907
 5808WAT     H217667   5.749   4.256   6.837
 5809WAT      O17668   8.144   7.542   1.987
 5809WAT     H117669   8.150   7.630   1.940
 5809WAT     H217670   8.176   7.470   1.926
 5810WAT      O17671   8.798   0.723   2.389
 5810WAT     H117672   8.742   0.654   2.434
 5810WAT     H217673   8.806   0.803   2.448
 5811WAT      O17674   9.083   3.880   9.239
 5811WAT     H117675   9.025   3.917   9.167
 5811WAT     H217676   9.165   3.840   9.199
 5812WAT      O17677   6.936   8.237   9.283
 5812WAT     H117678   6.870   8.200   9.218
 5812WAT     H217679   6.903   8.325   9.318
 5813WAT      O17680   5.381   8.663   8.030
 5813WAT     H117681   5.391   8.720   7.949
 5813WAT     H217682   5.286   8.633   8.039
 5814WAT      O17683   5.270   8.073   0.373
 5814WAT     H117684   5.241   8.002   0.309
 5814WAT     H217685   5.355   8.114   0.340
 5815WAT      O17686   6.286   3.216   0.040
 5815WAT     H117687   6.264   3.182  -0.051
 5815WAT     H217688   6.288   3.316   0.040
 5816WAT      O17689   8.970   9.361   0.122
 5816WAT     H117690   9.018   9.283   0.083
 5816WAT     H217691   9.023   9.445   0.104
 5817WAT      O17692   6.603   5.445   1.183
 5817WAT     H117693   6.626   5.404   1.095
 5817WAT     H217694   6.651   5.533   1.192
 5818WAT      O17695   1.584   4.817   3.364
 5818WAT     H117696   1.507   4.757   3.344
 5818WAT     H217697   1.640   4.778   3.437
 5819WAT      O17698   2.984   1.950   1.722
 5819WAT     H117699   3.007   1.860   1.685
 5819WAT     H217700   2.986   1.947   1.822
 5820WAT      O17701   4.857   8.620   7.359
 5820WAT     H117702   4.913   8.599   7.279
 5820WAT     H217703   4.792   8.692   7.337
 5821WAT      O17704   1.100   1.069   9.696
 5821WAT     H117705   1.193   1.098   9.717
 5821WAT     H217706   1.037   1.105   9.765
 5822WAT      O17707   8.006   7.244   6.468
 5822WAT     H117708   7.915   7.247   6.509
 5822WAT     H217709   8.072   7.287   6.530
 5823WAT      O17710   4.781   1.016   2.539
 5823WAT     H117711   4.796   1.009   2.638
 5823WAT     H217712   4.684   1.031   2.521
 5824WAT      O17713   9.663   4.417   4.267
 5824WAT     H117714   9.587   4.458   4.316
 5824WAT     H217715   9.749   4.438   4.315
 5825WAT      O17716   9.209   7.794   4.576
 5825WAT     H117717   9.206   7.860   4.500
 5825WAT     H217718   9.183   7.704   4.543
 5826WAT      O17719   1.692   4.267   8.058
 5826WAT     H117720   1.651   4.178   8.079
 5826WAT     H217721   1.784   4.255   8.022
 5827WAT      O17722   5.550   5.066   9.106
 5827WAT     H117723   5.454   5.059   9.134
 5827WAT     H217724   5.608   5.021   9.174
 5828WAT      O17725   9.411   4.634   8.699
 5828WAT     H117726   9.471   4.587   8.764
 5828WAT     H217727   9.316   4.610   8.718
 5829WAT      O17728   0.821   2.247   9.449
 5829WAT     H117729   0.812   2.261   9.547
 5829WAT     H217730   0.908   2.201   9.430
 5830WAT      O17731   2.498   1.492   4.845
 5830WAT     H117732   2.563   1.504   4.770
 5830WAT     H217733   2.500   1.397   4.876
 5831WAT      O17734   9.550   2.697   8.109
 5831WAT     H117735   9.454   2.693   8.134
 5831WAT     H217736   9.581   2.605   8.084
 5832WAT      O17737   6.313   3.645   8.109
 5832WAT     H117738   6.285   3.740   8.099
 5832WAT     H217739   6.392   3.627   8.051
 5833WAT      O17740   5.587   2.278   7.958
 5833WAT     H117741   5.590   2.190   7.910
 5833WAT     H217742   5.675   2.324   7.947
 5834WAT      O17743   6.555   4.881   1.018
 5834WAT     H117744   6.611   4.808   1.058
 5834WAT     H217745   6.527   4.854   0.925
 5835WAT      O17746   8.625   7.427   7.876
 5835WAT     H117747   8.672   7.495   7.818
 5835WAT     H217748   8.534   7.461   7.900
 5836WAT      O17749   2.274   5.064   9.608
 5836WAT     H117750   2.286   5.111   9.695
 5836WAT     H217751   2.360   5.067   9.556
 5837WAT      O17752   4.091   2.410   8.384
 5837WAT     H117753   4.166   2.360   8.426
 5837WAT     H217754   4.035   2.348   8.329
 5838WAT      O17755   9.070   0.413   4.524
 5838WAT     H117756   9.080   0.472   4.443
 5838WAT     H217757   9.128   0.447   4.598
 5839WAT      O17758   4.483   1.911   7.822
 5839WAT     H117759   4.549   1.885   7.751
 5839WAT     H217760   4.519   1.988   7.875
 5840WAT      O17761   8.332   9.741   5.113
 5840WAT     H117762   8.232   9.733   5.115
 5840WAT     H217763   8.367   9.698   5.029
 5841WAT      O17764   6.978   8.642   9.339
 5841WAT     H117765   6.940   8.680   9.255
 5841WAT     H217766   6.933   8.555   9.360
 5842WAT      O17767   0.888   0.116   2.609
 5842WAT     H117768   0.920   0.149   2.697
 5842WAT     H217769   0.965   0.083   2.555
 5843WAT      O17770   2.159   2.553   5.070
 5843WAT     H117771   2.140   2.481   5.137
 5843WAT     H217772   2.256   2.553   5.047
 5844WAT      O17773   5.848   1.975   6.423
 5844WAT     H117774   5.900   1.896   6.456
 5844WAT     H217775   5.911   2.047   6.395
 5845WAT      O17776   7.780   1.685   5.717
 5845WAT     H117777   7.783   1.726   5.808
 5845WAT     H217778   7.786   1.585   5.725
 5846WAT      O17779   6.010   0.056   6.544
 5846WAT     H117780   5.992   0.055   6.643
 5846WAT     H217781   5.977   0.142   6.505
 5847WAT      O17782   1.929   0.224   7.125
 5847WAT     H117783   1.918   0.140   7.177
 5847WAT     H217784   2.012   0.272   7.157
 5848WAT      O17785   5.182   3.931   0.205
 5848WAT     H117786   5.204   3.960   0.298
 5848WAT     H217787   5.114   3.857   0.209
 5849WAT      O17788   7.765   1.462   3.537
 5849WAT     H117789   7.819   1.538   3.572
 5849WAT     H217790   7.755   1.471   3.438
 5850WAT      O17791   7.074   5.014   8.141
 5850WAT     H117792   7.147   5.004   8.074
 5850WAT     H217793   6.991   5.046   8.096
 5851WAT      O17794   2.676   5.841   4.739
 5851WAT     H117795   2.625   5.924   4.719
 5851WAT     H217796   2.613   5.764   4.752
 5852WAT      O17797   6.936   4.879   5.252
 5852WAT     H117798   6.939   4.931   5.338
 5852WAT     H217799   6.884   4.932   5.184
 5853WAT      O17800   0.021   6.257   6.224
 5853WAT     H117801   0.019   6.280   6.322
 5853WAT     H217802   0.114   6.232   6.198
 5854WAT      O17803   9.285   5.670   7.462
 5854WAT     H117804   9.367   5.613   7.461
 5854WAT     H217805   9.275   5.717   7.375
 5855WAT      O17806   4.724   6.431   3.252
 5855WAT     H117807   4.768   6.462   3.336
 5855WAT     H217808   4.741   6.496   3.178
 5856WAT      O17809   8.466   3.339   9.736
 5856WAT     H117810   8.543   3.376   9.787
 5856WAT     H217811   8.470   3.239   9.736
 5857WAT      O17812   0.393   3.137   0.293
 5857WAT     H117813   0.397   3.075   0.371
 5857WAT     H217814   0.375   3.084   0.210
 5858WAT      O17815   0.877   0.683   0.099
 5858WAT     H117816   0.809   0.614   0.074
 5858WAT     H217817   0.934   0.704   0.020
 5859WAT      O17818   7.087   9.101   3.044
 5859WAT     H117819   7.138   9.187   3.052
 5859WAT     H217820   7.099   9.048   3.128
 5860WAT      O17821   1.338   9.087   6.252
 5860WAT     H117822   1.269   9.159   6.258
 5860WAT     H217823   1.367   9.075   6.157
 5861WAT      O17824   1.050   1.800   3.996
 5861WAT     H117825   0.984   1.869   4.028
 5861WAT     H217826   1.048   1.797   3.896
 5862WAT      O17827   1.613   4.466   3.590
 5862WAT     H117828   1.676   4.406   3.640
 5862WAT     H217829   1.653   4.558   3.584
 5863WAT      O17830   9.243   4.159   6.162
 5863WAT     H117831   9.329   4.178   6.210
 5863WAT     H217832   9.172   4.222   6.193
 5864WAT      O17833   8.491   6.575   7.318
 5864WAT     H117834   8.498   6.510   7.243
 5864WAT     H217835   8.562   6.645   7.309
 5865WAT      O17836   6.628   4.677   0.314
 5865WAT     H117837   6.574   4.594   0.331
 5865WAT     H217838   6.566   4.755   0.301
 5866WAT      O17839   8.291   9.156   0.177
 5866WAT     H117840   8.366   9.091   0.188
 5866WAT     H217841   8.271   9.199   0.265
 5867WAT      O17842   8.435   3.377   1.028
 5867WAT     H117843   8.516   3.431   1.005
 5867WAT     H217844   8.460   3.306   1.094
 5868WAT      O17845   3.342   3.546   4.684
 5868WAT     H117846   3.410   3.473   4.674
 5868WAT     H217847   3.388   3.633   4.697
 5869WAT      O17848   4.866   1.915   3.292
 5869WAT     H117849   4.838   1.921   3.387
 5869WAT     H217850   4.811   1.978   3.237
 5870WAT      O17851   4.742   8.337   5.586
 5870WAT     H117852   4.837   8.366   5.594
 5870WAT     H217853   4.738   8.241   5.556
 5871WAT      O17854   3.097   3.249   5.962
 5871WAT     H117855   3.161   3.310   5.917
 5871WAT     H217856   3.139   3.211   6.045
 5872WAT      O17857   1.248   3.808   5.523
 5872WAT     H117858   1.234   3.907   5.526
 5872WAT     H217859   1.340   3.786   5.557
 5873WAT      O17860   7.587   1.112   1.486
 5873WAT     H117861   7.605   1.194   1.432
 5873WAT     H217862   7.534   1.047   1.432
 5874WAT      O17863   8.143   6.101   8.098
 5874WAT     H117864   8.204   6.137   8.168
 5874WAT     H217865   8.067   6.165   8.083
 5875WAT      O17866   4.687   3.667   6.369
 5875WAT     H117867   4.749   3.744   6.352
 5875WAT     H217868   4.733   3.582   6.346
 5876WAT      O17869   0.499   6.623   9.683
 5876WAT     H117870   0.503   6.689   9.758
 5876WAT     H217871   0.562   6.651   9.610
 5877WAT      O17872   8.357   9.124   9.696
 5877WAT     H117873   8.381   9.041   9.645
 5877WAT     H217874   8.327   9.195   9.632
 5878WAT      O17875   5.249   8.683   9.082
 5878WAT     H117876   5.297   8.760   9.040
 5878WAT     H217877   5.252   8.604   9.020
 5879WAT      O17878   6.257   0.333   5.073
 5879WAT     H117879   6.227   0.421   5.035
 5879WAT     H217880   6.296   0.348   5.164
 5880WAT      O17881   7.642   6.740   6.883
 5880WAT     H117882   7.613   6.737   6.978
 5880WAT     H217883   7.605   6.660   6.835
 5881WAT      O17884   8.431   5.985   3.758
 5881WAT     H117885   8.476   6.035   3.684
 5881WAT     H217886   8.484   5.903   3.780
 5882WAT      O17887   3.177   5.208   6.706
 5882WAT     H117888   3.224   5.212   6.618
 5882WAT     H217889   3.081   5.187   6.692
 5883WAT      O17890   6.082   8.846   6.203
 5883WAT     H117891   6.167   8.795   6.200
 5883WAT     H217892   6.006   8.787   6.176
 5884WAT      O17893   5.138   7.046   3.181
 5884WAT     H117894   5.066   7.114   3.174
 5884WAT     H217895   5.133   6.984   3.103
 5885WAT      O17896   2.585   5.540   6.923
 5885WAT     H117897   2.591   5.452   6.970
 5885WAT     H217898   2.581   5.613   6.991
 5886WAT      O17899   2.383   9.634   0.845
 5886WAT     H117900   2.332   9.598   0.923
 5886WAT     H217901   2.460   9.573   0.825
 5887WAT      O17902   4.969   7.758   5.561
 5887WAT     H117903   5.033   7.709   5.620
 5887WAT     H217904   4.883   7.774   5.610
 5888WAT      O17905   6.405   4.699   8.693
 5888WAT     H117906   6.462   4.732   8.618
 5888WAT     H217907   6.446   4.725   8.780
 5889WAT      O17908   5.355   3.820   8.829
 5889WAT     H117909   5.438   3.765   8.841
 5889WAT     H217910   5.296   3.777   8.760
 5890WAT      O17911   2.031   8.146   3.987
 5890WAT     H117912   2.129   8.156   3.971
 5890WAT     H217913   1.992   8.082   3.920
 5891WAT      O17914   8.521   6.317   4.035
 5891WAT     H117915   8.616   6.333   4.011
 5891WAT     H217916   8.461   6.360   3.967
 5892WAT      O17917   0.338   6.645   5.663
 5892WAT     H117918   0.250   6.598   5.659
 5892WAT     H217919   0.334   6.716   5.734
 5893WAT      O17920   3.753   8.010   4.604
 5893WAT     H117921   3.683   7.952   4.646
 5893WAT     H217922   3.763   7.985   4.508
 5894WAT      O17923   9.553   8.465   0.198
 5894WAT     H117924   9.555   8.372   0.235
 5894WAT     H217925   9.547   8.461   0.098
 5895WAT      O17926   4.114   2.859   8.073
 5895WAT     H117927   4.107   2.779   8.133
 5895WAT     H217928   4.037   2.921   8.090
 5896WAT      O17929   3.343   2.860   7.113
 5896WAT     H117930   3.348   2.823   7.020
 5896WAT     H217931   3.428   2.908   7.134
 5897WAT      O17932   0.354   5.907   3.024
 5897WAT     H117933   0.453   5.913   3.037
 5897WAT     H217934   0.328   5.958   2.942
 5898WAT      O17935   1.951   7.388   5.387
 5898WAT     H117936   1.903   7.301   5.381
 5898WAT     H217937   2.049   7.371   5.402
 5899WAT      O17938   4.172   8.744   4.805
 5899WAT     H117939   4.080   8.768   4.835
 5899WAT     H217940   4.166   8.688   4.723
 5900WAT      O17941   6.035   3.518   7.857
 5900WAT     H117942   6.000   3.485   7.945
 5900WAT     H217943   6.033   3.618   7.856
 5901WAT      O17944   0.970   1.586   4.136
 5901WAT     H117945   0.973   1.508   4.074
 5901WAT     H217946   1.005   1.667   4.090
 5902WAT      O17947   0.607   7.688   8.047
 5902WAT     H117948   0.605   7.785   8.023
 5902WAT     H217949   0.542   7.639   7.989
 5903WAT      O17950   4.969   4.240   7.496
 5903WAT     H117951   4.899   4.304   7.465
 5903WAT     H217952   5.036   4.288   7.553
 5904WAT      O17953   7.491   7.704   5.516
 5904WAT     H117954   7.420   7.641   5.482
 5904WAT     H217955   7.449   7.774   5.573
 5905WAT      O17956   4.463   6.686   4.845
 5905WAT     H117957   4.388   6.653   4.903
 5905WAT     H217958   4.434   6.768   4.796
 5906WAT      O17959   9.142   1.843   5.307
 5906WAT     H117960   9.216   1.787   5.345
 5906WAT     H217961   9.096   1.892   5.381
 5907WAT      O17962   5.159   1.187   1.817
 5907WAT     H117963   5.107   1.214   1.736
 5907WAT     H217964   5.103   1.206   1.899
 5908WAT      O17965   3.088   9.417   1.696
 5908WAT     H117966   3.029   9.497   1.702
 5908WAT     H217967   3.056   9.357   1.622
 5909WAT      O17968   6.441   8.459   0.225
 5909WAT     H117969   6.355   8.510   0.232
 5909WAT     H217970   6.504   8.490   0.296
 5910WAT      O17971   8.400   0.814   7.078
 5910WAT     H117972   8.474   0.880   7.095
 5910WAT     H217973   8.352   0.795   7.164
 5911WAT      O17974   3.720   6.027   2.903
 5911WAT     H117975   3.725   6.089   2.824
 5911WAT     H217976   3.812   5.998   2.928
 5912WAT      O17977   7.077   1.650   6.367
 5912WAT     H117978   7.013   1.663   6.443
 5912WAT     H217979   7.165   1.618   6.403
 5913WAT      O17980   0.639   1.747   3.670
 5913WAT     H117981   0.702   1.710   3.602
 5913WAT     H217982   0.657   1.704   3.759
 5914WAT      O17983   6.172   3.765   2.055
 5914WAT     H117984   6.260   3.782   2.101
 5914WAT     H217985   6.111   3.842   2.072
 5915WAT      O17986   7.517   8.294   3.402
 5915WAT     H117987   7.494   8.313   3.498
 5915WAT     H217988   7.537   8.380   3.356
 5916WAT      O17989   1.349   2.426   5.765
 5916WAT     H117990   1.278   2.397   5.828
 5916WAT     H217991   1.405   2.348   5.739
 5917WAT      O17992   7.950   6.901   2.256
 5917WAT     H117993   7.964   6.891   2.355
 5917WAT     H217994   8.038   6.898   2.210
 5918WAT      O17995   3.993   2.313   8.129
 5918WAT     H117996   3.922   2.325   8.059
 5918WAT     H217997   4.083   2.309   8.085
 5919WAT      O17998   1.656   2.988   4.557
 5919WAT     H117999   1.650   3.020   4.463
 5919WAT     H218000   1.712   3.051   4.610
 5920WAT      O18001   0.383   1.020   3.927
 5920WAT     H118002   0.468   0.970   3.907
 5920WAT     H218003   0.333   0.972   3.999
 5921WAT      O18004   5.865   2.001   8.488
 5921WAT     H118005   5.931   2.075   8.478
 5921WAT     H218006   5.847   1.984   8.585
 5922WAT      O18007   1.433   9.440   6.013
 5922WAT     H118008   1.429   9.534   6.048
 5922WAT     H218009   1.528   9.409   6.012
 5923WAT      O18010   9.078   3.124   9.105
 5923WAT     H118011   9.132   3.190   9.158
 5923WAT     H218012   9.080   3.035   9.150
 5924WAT      O18013   6.893   3.544   3.425
 5924WAT     H118014   6.958   3.470   3.442
 5924WAT     H218015   6.808   3.506   3.388
 5925WAT      O18016   0.488   0.009   5.806
 5925WAT     H118017   0.420  -0.064   5.817
 5925WAT     H218018   0.503   0.025   5.709
 5926WAT      O18019   0.067   5.337   4.656
 5926WAT     H118020   0.063   5.237   4.657
 5926WAT     H218021  -0.026   5.373   4.662
 5927WAT      O18022   7.658   8.985   2.664
 5927WAT     H118023   7.589   8.916   2.685
 5927WAT     H218024   7.744   8.961   2.709
 5928WAT      O18025   8.955   4.326   2.842
 5928WAT     H118026   8.954   4.422   2.814
 5928WAT     H218027   8.932   4.268   2.764
 5929WAT      O18028   2.295   0.995   1.241
 5929WAT     H118029   2.350   1.076   1.264
 5929WAT     H218030   2.241   0.968   1.321
 5930WAT      O18031   5.011   1.760   0.005
 5930WAT     H118032   4.932   1.721  -0.041
 5930WAT     H218033   5.045   1.695   0.073
 5931WAT      O18034   4.436   2.917   6.296
 5931WAT     H118035   4.396   2.834   6.257
 5931WAT     H218036   4.363   2.973   6.336
 5932WAT      O18037   6.689   2.736   8.042
 5932WAT     H118038   6.772   2.792   8.049
 5932WAT     H218039   6.657   2.712   8.133
 5933WAT      O18040   4.314   7.240   8.506
 5933WAT     H118041   4.311   7.147   8.541
 5933WAT     H218042   4.289   7.304   8.578
 5934WAT      O18043   3.504   8.598   1.451
 5934WAT     H118044   3.430   8.634   1.508
 5934WAT     H218045   3.590   8.641   1.478
 5935WAT      O18046   3.227   7.455   1.743
 5935WAT     H118047   3.315   7.425   1.707
 5935WAT     H218048   3.241   7.527   1.811
 5936WAT      O18049   1.415   2.597   0.439
 5936WAT     H118050   1.510   2.628   0.443
 5936WAT     H218051   1.413   2.502   0.406
 5937WAT      O18052   7.199   1.014   8.478
 5937WAT     H118053   7.261   1.088   8.505
 5937WAT     H218054   7.104   1.046   8.486
 5938WAT      O18055   6.502   5.218   7.767
 5938WAT     H118056   6.428   5.187   7.707
 5938WAT     H218057   6.508   5.318   7.764
 5939WAT      O18058   6.775   7.264   0.236
 5939WAT     H118059   6.729   7.342   0.192
 5939WAT     H218060   6.728   7.180   0.210
 5940WAT      O18061   5.117   2.437   0.315
 5940WAT     H118062   5.073   2.441   0.405
 5940WAT     H218063   5.112   2.344   0.280
 5941WAT      O18064   7.619   7.341   2.133
 5941WAT     H118065   7.537   7.311   2.180
 5941WAT     H218066   7.673   7.399   2.194
 5942WAT      O18067   2.970   1.880   1.986
 5942WAT     H118068   2.935   1.954   2.044
 5942WAT     H218069   2.970   1.795   2.038
 5943WAT      O18070   0.319   8.835   7.825
 5943WAT     H118071   0.295   8.929   7.803
 5943WAT     H218072   0.379   8.799   7.753
 5944WAT      O18073   4.336   7.508   2.201
 5944WAT     H118074   4.434   7.516   2.187
 5944WAT     H218075   4.287   7.569   2.138
 5945WAT      O18076   8.107   3.721   1.519
 5945WAT     H118077   8.073   3.642   1.570
 5945WAT     H218078   8.113   3.698   1.422
 5946WAT      O18079   4.630   9.551   3.734
 5946WAT     H118080   4.646   9.513   3.825
 5946WAT     H218081   4.631   9.477   3.667
 5947WAT      O18082   1.144   6.213   1.091
 5947WAT     H118083   1.142   6.256   1.181
 5947WAT     H218084   1.217   6.144   1.088
 5948WAT      O18085   8.468   6.152   2.460
 5948WAT     H118086   8.526   6.204   2.397
 5948WAT     H218087   8.455   6.205   2.544
 5949WAT      O18088   7.541   0.318   6.398
 5949WAT     H118089   7.592   0.392   6.355
 5949WAT     H218090   7.509   0.348   6.488
 5950WAT      O18091   7.349   3.250   6.774
 5950WAT     H118092   7.376   3.194   6.696
 5950WAT     H218093   7.297   3.194   6.839
 5951WAT      O18094   9.358   3.114   8.659
 5951WAT     H118095   9.298   3.084   8.734
 5951WAT     H218096   9.454   3.107   8.689
 5952WAT      O18097   0.341   7.177   5.255
 5952WAT     H118098   0.258   7.122   5.266
 5952WAT     H218099   0.318   7.274   5.267
 5953WAT      O18100   1.497   3.477   1.402
 5953WAT     H118101   1.469   3.471   1.498
 5953WAT     H218102   1.563   3.551   1.392
 5954WAT      O18103   6.659   2.608   9.370
 5954WAT     H118104   6.595   2.680   9.396
 5954WAT     H218105   6.742   2.615   9.425
 5955WAT      O18106   6.071   6.503   2.526
 5955WAT     H118107   6.146   6.567   2.548
 5955WAT     H218108   6.072   6.484   2.428
 5956WAT      O18109   8.591   6.049   8.059
 5956WAT     H118110   8.646   6.038   7.976
 5956WAT     H218111   8.627   5.991   8.131
 5957WAT      O18112   2.325   4.274   3.265
 5957WAT     H118113   2.250   4.297   3.203
 5957WAT     H218114   2.338   4.349   3.330
 5958WAT      O18115   0.188   4.855   0.010
 5958WAT     H118116   0.191   4.915  -0.070
 5958WAT     H218117   0.145   4.904   0.086
 5959WAT      O18118   9.049   7.726   2.599
 5959WAT     H118119   9.011   7.682   2.518
 5959WAT     H218120   8.976   7.775   2.648
 5960WAT      O18121   6.294   1.143   1.425
 5960WAT     H118122   6.262   1.079   1.354
 5960WAT     H218123   6.368   1.100   1.477
 5961WAT      O18124   6.174   4.961   1.473
 5961WAT     H118125   6.120   4.896   1.419
 5961WAT     H218126   6.252   4.914   1.514
 5962WAT      O18127   9.448   9.016   3.553
 5962WAT     H118128   9.444   9.051   3.647
 5962WAT     H218129   9.429   8.918   3.554
 5963WAT      O18130   4.160   3.824   3.495
 5963WAT     H118131   4.060   3.819   3.485
 5963WAT     H218132   4.183   3.826   3.592
 5964WAT      O18133   7.883   4.053   4.794
 5964WAT     H118134   7.830   4.078   4.875
 5964WAT     H218135   7.937   4.131   4.763
 5965WAT      O18136   9.351   6.639   6.494
 5965WAT     H118137   9.441   6.612   6.528
 5965WAT     H218138   9.358   6.669   6.399
 5966WAT      O18139   0.054   3.768   8.357
 5966WAT     H118140   0.105   3.749   8.273
 5966WAT     H218141  -0.044   3.757   8.340
 5967WAT      O18142   8.676   4.961   6.670
 5967WAT     H118143   8.712   4.936   6.580
 5967WAT     H218144   8.732   5.032   6.710
 5968WAT      O18145   9.232   8.274   9.809
 5968WAT     H118146   9.209   8.201   9.745
 5968WAT     H218147   9.229   8.363   9.763
 5969WAT      O18148   5.777   6.528   7.249
 5969WAT     H118149   5.806   6.524   7.345
 5969WAT     H218150   5.838   6.472   7.194
 5970WAT      O18151   9.073   0.590   4.746
 5970WAT     H118152   9.072   0.680   4.790
 5970WAT     H218153   9.004   0.589   4.673
 5971WAT      O18154   0.732   4.110   6.582
 5971WAT     H118155   0.716   4.205   6.557
 5971WAT     H218156   0.830   4.092   6.586
 5972WAT      O18157   5.504   3.773   4.135
 5972WAT     H118158   5.467   3.681   4.123
 5972WAT     H218159   5.603   3.771   4.116
 5973WAT      O18160   1.115   1.388   8.880
 5973WAT     H118161   1.189   1.391   8.948
 5973WAT     H218162   1.044   1.324   8.911
 5974WAT      O18163   3.940   2.496   7.104
 5974WAT     H118164   3.993   2.485   7.020
 5974WAT     H218165   3.989   2.556   7.167
 5975WAT      O18166   1.822   8.858   6.302
 5975WAT     H118167   1.916   8.837   6.327
 5975WAT     H218168   1.759   8.802   6.357
 5976WAT      O18169   1.655   5.735   7.253
 5976WAT     H118170   1.653   5.816   7.311
 5976WAT     H218171   1.659   5.653   7.310
 5977WAT      O18172   5.520   2.210   0.874
 5977WAT     H118173   5.450   2.140   0.866
 5977WAT     H218174   5.493   2.290   0.821
 5978WAT      O18175   8.290   3.561   0.494
 5978WAT     H118176   8.258   3.649   0.530
 5978WAT     H218177   8.354   3.578   0.419
 5979WAT      O18178   8.627   7.959   9.421
 5979WAT     H118179   8.647   7.999   9.332
 5979WAT     H218180   8.584   8.028   9.479
 5980WAT      O18181   8.518   4.519   2.110
 5980WAT     H118182   8.518   4.577   2.192
 5980WAT     H218183   8.598   4.540   2.054
 5981WAT      O18184   0.411   8.273   6.111
 5981WAT     H118185   0.338   8.340   6.125
 5981WAT     H218186   0.426   8.222   6.195
 5982WAT      O18187   8.096   7.423   3.571
 5982WAT     H118188   8.062   7.330   3.562
 5982WAT     H218189   8.046   7.483   3.508
 5983WAT      O18190   8.545   4.246   3.944
 5983WAT     H118191   8.505   4.159   3.972
 5983WAT     H218192   8.597   4.284   4.021
 5984WAT      O18193   6.501   8.204   2.578
 5984WAT     H118194   6.570   8.133   2.589
 5984WAT     H218195   6.546   8.291   2.560
 5985WAT      O18196   8.523   9.366   1.425
 5985WAT     H118197   8.570   9.448   1.394
 5985WAT     H218198   8.590   9.299   1.458
 5986WAT      O18199   7.132   2.515   6.645
 5986WAT     H118200   7.190   2.468   6.712
 5986WAT     H218201   7.053   2.457   6.624
 5987WAT      O18202   7.019   3.590   6.752
 5987WAT     H118203   7.101   3.574   6.807
 5987WAT     H218204   7.043   3.591   6.655
 5988WAT      O18205   7.876   2.845   7.919
 5988WAT     H118206   7.962   2.830   7.870
 5988WAT     H218207   7.889   2.824   8.016
 5989WAT      O18208   2.386   8.615   9.025
 5989WAT     H118209   2.432   8.680   9.084
 5989WAT     H218210   2.317   8.565   9.077
 5990WAT      O18211   7.992   5.422   3.471
 5990WAT     H118212   7.953   5.331   3.455
 5990WAT     H218213   7.928   5.476   3.525
 5991WAT      O18214   4.363   1.125   9.091
 5991WAT     H118215   4.404   1.184   9.161
 5991WAT     H218216   4.276   1.089   9.124
 5992WAT      O18217   2.352   6.872   9.154
 5992WAT     H118218   2.442   6.831   9.142
 5992WAT     H218219   2.310   6.886   9.065
 5993WAT      O18220   7.683   3.631   7.702
 5993WAT     H118221   7.716   3.589   7.617
 5993WAT     H218222   7.594   3.673   7.685
 5994WAT      O18223   5.179   0.847   4.244
 5994WAT     H118224   5.115   0.781   4.284
 5994WAT     H218225   5.246   0.875   4.314
 5995WAT      O18226   4.840   6.578   3.782
 5995WAT     H118227   4.811   6.657   3.837
 5995WAT     H218228   4.831   6.600   3.685
 5996WAT      O18229   0.905   2.540   0.203
 5996WAT     H118230   0.914   2.611   0.273
 5996WAT     H218231   0.826   2.561   0.145
 5997WAT      O18232   5.458   1.900   3.025
 5997WAT     H118233   5.383   1.935   3.081
 5997WAT     H218234   5.544   1.907   3.075
 5998WAT      O18235   0.245   4.567   8.604
 5998WAT     H118236   0.210   4.478   8.573
 5998WAT     H218237   0.313   4.601   8.540
 5999WAT      O18238   3.730   4.564   2.716
 5999WAT     H118239   3.655   4.508   2.752
 5999WAT     H218240   3.753   4.532   2.624
 6000WAT      O18241   4.319   7.699   4.117
 6000WAT     H118242   4.330   7.795   4.089
 6000WAT     H218243   4.358   7.686   4.208
 6001WAT      O18244   1.499   3.214   9.749
 6001WAT     H118245   1.462   3.161   9.825
 6001WAT     H218246   1.458   3.181   9.663
 6002WAT      O18247   8.596   3.292   6.549
 6002WAT     H118248   8.649   3.348   6.485
 6002WAT     H218249   8.630   3.306   6.642
 6003WAT      O18250   5.287   6.721   5.870
 6003WAT     H118251   5.288   6.623   5.851
 6003WAT     H218252   5.299   6.771   5.784
 6004WAT      O18253   1.224   6.128   5.519
 6004WAT     H118254   1.251   6.033   5.505
 6004WAT     H218255   1.141   6.131   5.575
 6005WAT      O18256   0.246   1.704   4.248
 6005WAT     H118257   0.147   1.706   4.236
 6005WAT     H218258   0.284   1.623   4.204
 6006WAT      O18259   6.534   0.274   5.334
 6006WAT     H118260   6.619   0.320   5.307
 6006WAT     H218261   6.457   0.336   5.323
 6007WAT      O18262   5.457   7.958   1.211
 6007WAT     H118263   5.410   7.973   1.298
 6007WAT     H218264   5.415   7.880   1.163
 6008WAT      O18265   5.843   5.612   1.177
 6008WAT     H118266   5.879   5.692   1.129
 6008WAT     H218267   5.892   5.600   1.264
 6009WAT      O18268   5.123   1.940   3.551
 6009WAT     H118269   5.098   2.013   3.615
 6009WAT     H218270   5.100   1.851   3.590
 6010WAT      O18271   4.271   4.943   7.167
 6010WAT     H118272   4.173   4.927   7.182
 6010WAT     H218273   4.324   4.880   7.225
 6011WAT      O18274   6.323   6.761   1.213
 6011WAT     H118275   6.371   6.687   1.261
 6011WAT     H218276   6.238   6.726   1.174
 6012WAT      O18277   4.089   9.330   1.171
 6012WAT     H118278   4.034   9.411   1.149
 6012WAT     H218279   4.071   9.259   1.103
 6013WAT      O18280   2.124   3.753   3.543
 6013WAT     H118281   2.150   3.737   3.638
 6013WAT     H218282   2.071   3.838   3.537
 6014WAT      O18283   3.977   9.203   9.435
 6014WAT     H118284   3.927   9.251   9.506
 6014WAT     H218285   4.048   9.146   9.476
 6015WAT      O18286   4.923   7.861   6.296
 6015WAT     H118287   4.919   7.951   6.253
 6015WAT     H218288   4.839   7.845   6.348
 6016WAT      O18289   7.465   1.947   7.738
 6016WAT     H118290   7.379   1.990   7.711
 6016WAT     H218291   7.506   1.999   7.813
 6017WAT      O18292   4.394   8.964   5.875
 6017WAT     H118293   4.294   8.968   5.875
 6017WAT     H218294   4.431   9.053   5.902
 6018WAT      O18295   8.049   6.457   4.551
 6018WAT     H118296   8.031   6.433   4.646
 6018WAT     H218297   8.097   6.382   4.506
 6019WAT      O18298   5.496   4.552   9.082
 6019WAT     H118299   5.566   4.623   9.075
 6019WAT     H218300   5.408   4.589   9.053
 6020WAT      O18301   1.055   4.187   3.538
 6020WAT     H118302   1.107   4.268   3.510
 6020WAT     H218303   1.061   4.176   3.637
 6021WAT      O18304   7.348   9.052   6.932
 6021WAT     H118305   7.254   9.062   6.901
 6021WAT     H218306   7.403   9.127   6.895
 6022WAT      O18307   0.839   9.702   2.186
 6022WAT     H118308   0.871   9.621   2.236
 6022WAT     H218309   0.755   9.736   2.230
 6023WAT      O18310   2.453   1.586   9.779
 6023WAT     H118311   2.474   1.493   9.747
 6023WAT     H218312   2.375   1.582   9.841
 6024WAT      O18313   8.251   1.825   7.881
 6024WAT     H118314   8.321   1.787   7.942
 6024WAT     H218315   8.211   1.906   7.924
 6025WAT      O18316   3.815   2.811   4.970
 6025WAT     H118317   3.750   2.746   4.931
 6025WAT     H218318   3.908   2.785   4.945
 6026WAT      O18319   2.514   3.176   6.604
 6026WAT     H118320   2.447   3.114   6.646
 6026WAT     H218321   2.565   3.126   6.534
 6027WAT      O18322   6.518   6.071   9.790
 6027WAT     H118323   6.542   6.010   9.715
 6027WAT     H218324   6.556   6.034   9.876
 6028WAT      O18325   0.266   8.311   6.890
 6028WAT     H118326   0.204   8.248   6.843
 6028WAT     H218327   0.318   8.363   6.822
 6029WAT      O18328   2.531   7.006   3.600
 6029WAT     H118329   2.601   7.058   3.550
 6029WAT     H218330   2.470   6.961   3.535
 6030WAT      O18331   3.456   4.807   2.242
 6030WAT     H118332   3.397   4.729   2.261
 6030WAT     H218333   3.511   4.828   2.322
 6031WAT      O18334   5.750   6.661   9.306
 6031WAT     H118335   5.659   6.626   9.282
 6031WAT     H218336   5.741   6.735   9.373
 6032WAT      O18337   5.886   3.328   6.483
 6032WAT     H118338   5.912   3.425   6.493
 6032WAT     H218339   5.796   3.323   6.440
 6033WAT      O18340   7.714   3.514   5.371
 6033WAT     H118341   7.739   3.555   5.284
 6033WAT     H218342   7.670   3.426   5.354
 6034WAT      O18343   0.342   3.972   7.421
 6034WAT     H118344   0.298   4.022   7.347
 6034WAT     H218345   0.297   3.995   7.508
 6035WAT      O18346   2.633   9.358   8.641
 6035WAT     H118347   2.609   9.265   8.665
 6035WAT     H218348   2.600   9.379   8.549
 6036WAT      O18349   3.754   4.754   3.245
 6036WAT     H118350   3.810   4.692   3.300
 6036WAT     H218351   3.695   4.701   3.184
 6037WAT      O18352   0.250   6.432   9.246
 6037WAT     H118353   0.240   6.432   9.345
 6037WAT     H218354   0.344   6.457   9.222
 6038WAT      O18355   3.741   6.865   5.559
 6038WAT     H118356   3.642   6.881   5.561
 6038WAT     H218357   3.767   6.807   5.637
 6039WAT      O18358   1.864   0.888   4.300
 6039WAT     H118359   1.825   0.843   4.381
 6039WAT     H218360   1.828   0.844   4.218
 6040WAT      O18361   0.622   8.603   1.806
 6040WAT     H118362   0.548   8.579   1.742
 6040WAT     H218363   0.584   8.654   1.883
 6041WAT      O18364   0.950   3.548   8.871
 6041WAT     H118365   0.938   3.463   8.924
 6041WAT     H218366   1.036   3.592   8.898
 6042WAT      O18367   4.937   5.243   7.073
 6042WAT     H118368   4.937   5.148   7.106
 6042WAT     H218369   4.842   5.275   7.064
 6043WAT      O18370   3.190   0.089   7.235
 6043WAT     H118371   3.147   0.171   7.197
 6043WAT     H218372   3.260   0.055   7.172
 6044WAT      O18373   4.402   4.419   4.392
 6044WAT     H118374   4.455   4.336   4.412
 6044WAT     H218375   4.360   4.411   4.302
 6045WAT      O18376   8.195   4.666   4.059
 6045WAT     H118377   8.281   4.670   4.008
 6045WAT     H218378   8.214   4.650   4.155
 6046WAT      O18379   8.689   6.973   4.990
 6046WAT     H118380   8.760   6.986   4.920
 6046WAT     H218381   8.653   6.879   4.983
 6047WAT      O18382   9.225   5.249   8.124
 6047WAT     H118383   9.307   5.290   8.084
 6047WAT     H218384   9.147   5.264   8.062
 6048WAT      O18385   3.946   3.549   2.520
 6048WAT     H118386   3.891   3.468   2.542
 6048WAT     H218387   3.955   3.606   2.602
 6049WAT      O18388   1.859   0.189   5.174
 6049WAT     H118389   1.833   0.254   5.245
 6049WAT     H218390   1.959   0.178   5.173
 6050WAT      O18391   3.571   8.640   0.817
 6050WAT     H118392   3.573   8.687   0.905
 6050WAT     H218393   3.568   8.541   0.833
 6051WAT      O18394   7.358   9.346   3.116
 6051WAT     H118395   7.417   9.296   3.053
 6051WAT     H218396   7.409   9.371   3.198
 6052WAT      O18397   8.016   4.156   1.604
 6052WAT     H118398   8.106   4.126   1.636
 6052WAT     H218399   7.962   4.077   1.577
 6053WAT      O18400   8.857   4.967   5.532
 6053WAT     H118401   8.934   5.029   5.517
 6053WAT     H218402   8.867   4.886   5.474
 6054WAT      O18403   4.020   8.898   6.737
 6054WAT     H118404   4.089   8.967   6.713
 6054WAT     H218405   3.930   8.942   6.742
 6055WAT      O18406   1.879   3.659   7.753
 6055WAT     H118407   1.925   3.747   7.764
 6055WAT     H218408   1.821   3.642   7.833
 6056WAT      O18409   6.024   2.641   8.669
 6056WAT     H118410   6.038   2.679   8.577
 6056WAT     H218411   5.931   2.659   8.699
 6057WAT      O18412   1.801   4.906   6.710
 6057WAT     H118413   1.798   4.841   6.633
 6057WAT     H218414   1.708   4.919   6.746
 6058WAT      O18415   0.538   8.382   5.496
 6058WAT     H118416   0.610   8.439   5.537
 6058WAT     H218417   0.555   8.286   5.518
 6059WAT      O18418   0.661   6.102   4.975
 6059WAT     H118419   0.585   6.104   5.040
 6059WAT     H218420   0.626   6.121   4.883
 6060WAT      O18421   7.220   2.466   1.055
 6060WAT     H118422   7.198   2.378   1.097
 6060WAT     H218423   7.137   2.511   1.025
 6061WAT      O18424   8.842   6.472   0.908
 6061WAT     H118425   8.817   6.515   0.822
 6061WAT     H218426   8.870   6.377   0.891
 6062WAT      O18427   6.732   9.519   2.431
 6062WAT     H118428   6.650   9.470   2.460
 6062WAT     H218429   6.714   9.565   2.344
 6063WAT      O18430   5.298   2.637   0.113
 6063WAT     H118431   5.372   2.594   0.163
 6063WAT     H218432   5.261   2.713   0.165
 6064WAT      O18433   2.664   8.234   4.326
 6064WAT     H118434   2.586   8.204   4.380
 6064WAT     H218435   2.669   8.334   4.328
 6065WAT      O18436   5.836   1.388   4.617
 6065WAT     H118437   5.915   1.426   4.666
 6065WAT     H218438   5.811   1.300   4.656
 6066WAT      O18439   3.241   7.877   3.242
 6066WAT     H118440   3.250   7.952   3.308
 6066WAT     H218441   3.238   7.915   3.150
 6067WAT      O18442   3.519   5.767   9.476
 6067WAT     H118443   3.573   5.823   9.540
 6067WAT     H218444   3.559   5.675   9.471
 6068WAT      O18445   2.240   5.619   6.972
 6068WAT     H118446   2.147   5.618   6.935
 6068WAT     H218447   2.293   5.691   6.928
 6069WAT      O18448   7.012   9.410   5.818
 6069WAT     H118449   7.082   9.381   5.883
 6069WAT     H218450   7.055   9.438   5.732
 6070WAT      O18451   2.175   3.835   4.016
 6070WAT     H118452   2.210   3.781   4.093
 6070WAT     H218453   2.207   3.796   3.930
 6071WAT      O18454   0.913   4.471   1.625
 6071WAT     H118455   0.855   4.391   1.640
 6071WAT     H218456   1.009   4.443   1.623
 6072WAT      O18457   4.409   8.541   5.116
 6072WAT     H118458   4.505   8.517   5.108
 6072WAT     H218459   4.397   8.639   5.100
 6073WAT      O18460   2.259   4.316   2.909
 6073WAT     H118461   2.225   4.307   2.816
 6073WAT     H218462   2.354   4.284   2.914
 6074WAT      O18463   2.358   4.151   3.826
 6074WAT     H118464   2.266   4.114   3.840
 6074WAT     H218465   2.401   4.105   3.749
 6075WAT      O18466   1.886   7.190   6.944
 6075WAT     H118467   1.813   7.162   7.005
 6075WAT     H218468   1.850   7.198   6.851
 6076WAT      O18469   4.240   1.117   2.805
 6076WAT     H118470   4.175   1.120   2.728
 6076WAT     H218471   4.222   1.035   2.860
 6077WAT      O18472   5.055   1.034   6.956
 6077WAT     H118473   5.103   1.061   7.039
 6077WAT     H218474   4.988   0.963   6.976
 6078WAT      O18475   4.267   8.564   1.044
 6078WAT     H118476   4.278   8.562   0.944
 6078WAT     H218477   4.299   8.652   1.079
 6079WAT      O18478   7.239   4.145   2.610
 6079WAT     H118479   7.322   4.148   2.553
 6079WAT     H218480   7.265   4.155   2.706
 6080WAT      O18481   2.646   7.760   5.766
 6080WAT     H118482   2.553   7.746   5.734
 6080WAT     H218483   2.704   7.790   5.690
 6081WAT      O18484   1.420   7.593   8.436
 6081WAT     H118485   1.337   7.565   8.484
 6081WAT     H218486   1.441   7.688   8.460
 6082WAT      O18487   5.422   7.703   7.796
 6082WAT     H118488   5.328   7.719   7.766
 6082WAT     H218489   5.457   7.621   7.751
 6083WAT      O18490   2.962   9.536   6.025
 6083WAT     H118491   2.955   9.579   6.115
 6083WAT     H218492   3.050   9.557   5.984
 6084WAT      O18493   9.768   0.541   3.656
 6084WAT     H118494   9.868   0.541   3.651
 6084WAT     H218495   9.731   0.579   3.572
 6085WAT      O18496   1.790   9.356   6.037
 6085WAT     H118497   1.856   9.281   6.042
 6085WAT     H218498   1.719   9.343   6.107
 6086WAT      O18499   7.175   3.925   7.507
 6086WAT     H118500   7.204   4.019   7.490
 6086WAT     H218501   7.118   3.921   7.589
 6087WAT      O18502   0.979   0.993   9.428
 6087WAT     H118503   0.985   1.007   9.527
 6087WAT     H218504   1.009   1.076   9.381
 6088WAT      O18505   4.024   7.847   8.867
 6088WAT     H118506   3.958   7.921   8.859
 6088WAT     H218507   4.082   7.863   8.947
 6089WAT      O18508   9.371   4.320   3.368
 6089WAT     H118509   9.401   4.409   3.334
 6089WAT     H218510   9.291   4.289   3.316
 6090WAT      O18511   2.994   6.177   9.494
 6090WAT     H118512   2.943   6.262   9.496
 6090WAT     H218513   3.007   6.147   9.399
 6091WAT      O18514   2.724   2.561   0.964
 6091WAT     H118515   2.709   2.599   1.055
 6091WAT     H218516   2.647   2.501   0.940
 6092WAT      O18517   8.047   4.107   5.100
 6092WAT     H118518   8.088   4.165   5.029
 6092WAT     H218519   8.107   4.030   5.120
 6093WAT      O18520   9.409   8.181   6.108
 6093WAT     H118521   9.394   8.262   6.052
 6093WAT     H218522   9.345   8.181   6.185
 6094WAT      O18523   0.279   3.120   0.824
 6094WAT     H118524   0.271   3.168   0.911
 6094WAT     H218525   0.349   3.165   0.768
 6095WAT      O18526   8.429   3.946   7.145
 6095WAT     H118527   8.496   3.893   7.093
 6095WAT     H218528   8.391   4.018   7.087
 6096WAT      O18529   3.737   9.596   9.423
 6096WAT     H118530   3.739   9.696   9.419
 6096WAT     H218531   3.784   9.565   9.505
 6097WAT      O18532   0.540   0.373   4.066
 6097WAT     H118533   0.527   0.456   4.120
 6097WAT     H218534   0.454   0.322   4.062
 6098WAT      O18535   7.413   4.253   1.165
 6098WAT     H118536   7.461   4.185   1.221
 6098WAT     H218537   7.361   4.207   1.094
 6099WAT      O18538   0.238   3.800   9.390
 6099WAT     H118539   0.260   3.779   9.295
 6099WAT     H218540   0.155   3.856   9.392
 6100WAT      O18541   0.659   4.043   1.959
 6100WAT     H118542   0.670   4.082   2.050
 6100WAT     H218543   0.748   4.012   1.924
 6101WAT      O18544   9.821   6.318   7.175
 6101WAT     H118545   9.899   6.371   7.208
 6101WAT     H218546   9.821   6.318   7.075
 6102WAT      O18547   3.649   1.973   0.380
 6102WAT     H118548   3.739   2.005   0.350
 6102WAT     H218549   3.578   2.025   0.333
 6103WAT      O18550   9.720   9.050   6.782
 6103WAT     H118551   9.745   8.999   6.864
 6103WAT     H218552   9.802   9.071   6.729
 6104WAT      O18553   6.026   1.491   7.597
 6104WAT     H118554   5.974   1.459   7.517
 6104WAT     H218555   6.086   1.417   7.628
 6105WAT      O18556   3.651   2.657   9.574
 6105WAT     H118557   3.557   2.633   9.599
 6105WAT     H218558   3.700   2.689   9.656
 6106WAT      O18559   6.241   8.681   2.656
 6106WAT     H118560   6.269   8.776   2.668
 6106WAT     H218561   6.163   8.662   2.716
 6107WAT      O18562   8.174   8.377   2.635
 6107WAT     H118563   8.154   8.316   2.712
 6107WAT     H218564   8.195   8.469   2.669
 6108WAT      O18565   4.120   0.950   5.900
 6108WAT     H118566   4.073   0.919   5.983
 6108WAT     H218567   4.055   0.953   5.824
 6109WAT      O18568   0.216   3.210   1.081
 6109WAT     H118569   0.271   3.275   1.134
 6109WAT     H218570   0.119   3.236   1.087
 6110WAT      O18571   3.718   3.420   1.894
 6110WAT     H118572   3.783   3.362   1.844
 6110WAT     H218573   3.637   3.367   1.917
 6111WAT      O18574   3.931   8.504   7.725
 6111WAT     H118575   3.900   8.419   7.682
 6111WAT     H218576   3.921   8.579   7.660
 6112WAT      O18577   8.015   2.035   4.714
 6112WAT     H118578   8.102   1.992   4.736
 6112WAT     H218579   7.993   2.103   4.785
 6113WAT      O18580   4.341   4.959   2.970
 6113WAT     H118581   4.311   4.923   2.882
 6113WAT     H218582   4.306   4.901   3.044
 6114WAT      O18583   9.520   4.789   7.189
 6114WAT     H118584   9.470   4.737   7.120
 6114WAT     H218585   9.517   4.886   7.167
 6115WAT      O18586   6.478   3.525   9.752
 6115WAT     H118587   6.397   3.514   9.810
 6115WAT     H218588   6.453   3.505   9.657
 6116WAT      O18589   9.107   8.782   7.509
 6116WAT     H118590   9.121   8.703   7.568
 6116WAT     H218591   9.106   8.865   7.564
 6117WAT      O18592   6.359   7.682   0.372
 6117WAT     H118593   6.373   7.741   0.292
 6117WAT     H218594   6.386   7.589   0.349
 6118WAT      O18595   3.009   6.962   7.041
 6118WAT     H118596   2.930   7.011   7.003
 6118WAT     H218597   3.026   6.879   6.989
 6119WAT      O18598   0.719   5.332   8.082
 6119WAT     H118599   0.737   5.258   8.017
 6119WAT     H218600   0.758   5.417   8.048
 6120WAT      O18601   6.757   1.905   7.436
 6120WAT     H118602   6.819   1.924   7.360
 6120WAT     H218603   6.710   1.988   7.463
 6121WAT      O18604   7.380   0.131   4.459
 6121WAT     H118605   7.439   0.053   4.438
 6121WAT     H218606   7.285   0.107   4.439
 6122WAT      O18607   3.396   2.262   7.911
 6122WAT     H118608   3.457   2.312   7.972
 6122WAT     H218609   3.362   2.324   7.840
 6123WAT      O18610   1.752   9.242   8.432
 6123WAT     H118611   1.711   9.329   8.461
 6123WAT     H218612   1.798   9.199   8.509
 6124WAT      O18613   1.857   0.498   0.634
 6124WAT     H118614   1.842   0.558   0.713
 6124WAT     H218615   1.780   0.505   0.571
 6125WAT      O18616   8.295   4.856   6.112
 6125WAT     H118617   8.217   4.919   6.116
 6125WAT     H218618   8.364   4.891   6.049
 6126WAT      O18619   0.286   2.956   1.178
 6126WAT     H118620   0.291   2.971   1.276
 6126WAT     H218621   0.254   3.040   1.133
 6127WAT      O18622   3.733   7.967   4.349
 6127WAT     H118623   3.639   7.945   4.324
 6127WAT     H218624   3.794   7.893   4.319
 6128WAT      O18625   8.493   6.583   3.351
 6128WAT     H118626   8.496   6.593   3.450
 6128WAT     H218627   8.406   6.542   3.323
 6129WAT      O18628   1.373   1.401   9.070
 6129WAT     H118629   1.444   1.361   9.127
 6129WAT     H218630   1.380   1.365   8.977
 6130WAT      O18631   7.294   4.427   6.152
 6130WAT     H118632   7.204   4.423   6.195
 6130WAT     H218633   7.350   4.496   6.197
 6131WAT      O18634   0.479   5.523   6.595
 6131WAT     H118635   0.510   5.456   6.663
 6131WAT     H218636   0.438   5.601   6.642
 6132WAT      O18637   6.647   6.900   4.796
 6132WAT     H118638   6.614   6.808   4.817
 6132WAT     H218639   6.611   6.964   4.865
 6133WAT      O18640   2.632   3.328   2.896
 6133WAT     H118641   2.615   3.323   2.994
 6133WAT     H218642   2.592   3.248   2.851
 6134WAT      O18643   7.526   4.271   0.411
 6134WAT     H118644   7.469   4.188   0.405
 6134WAT     H218645   7.592   4.271   0.336
 6135WAT      O18646   5.963   6.381   6.528
 6135WAT     H118647   5.873   6.345   6.503
 6135WAT     H218648   5.995   6.444   6.457
 6136WAT      O18649   3.322   6.558   2.784
 6136WAT     H118650   3.277   6.473   2.811
 6136WAT     H218651   3.284   6.633   2.839
 6137WAT      O18652   2.844   6.172   3.110
 6137WAT     H118653   2.858   6.075   3.087
 6137WAT     H218654   2.895   6.194   3.193
 6138WAT      O18655   5.439   1.979   1.621
 6138WAT     H118656   5.479   2.052   1.676
 6138WAT     H218657   5.478   1.981   1.529
 6139WAT      O18658   6.964   3.570   2.958
 6139WAT     H118659   6.999   3.507   3.027
 6139WAT     H218660   6.977   3.664   2.989
 6140WAT      O18661   4.001   6.554   1.272
 6140WAT     H118662   3.903   6.534   1.275
 6140WAT     H218663   4.042   6.535   1.361
 6141WAT      O18664   5.907   2.716   2.119
 6141WAT     H118665   5.993   2.764   2.138
 6141WAT     H218666   5.926   2.621   2.096
 6142WAT      O18667   8.663   3.521   1.039
 6142WAT     H118668   8.692   3.500   1.133
 6142WAT     H218669   8.687   3.616   1.017
 6143WAT      O18670   7.981   7.021   4.214
 6143WAT     H118671   7.962   6.943   4.156
 6143WAT     H218672   7.911   7.091   4.200
 6144WAT      O18673   5.755   9.318   9.360
 6144WAT     H118674   5.847   9.355   9.346
 6144WAT     H218675   5.749   9.277   9.451
 6145WAT      O18676   8.530   9.451   4.617
 6145WAT     H118677   8.607   9.475   4.675
 6145WAT     H218678   8.545   9.486   4.525
 6146WAT      O18679   7.799   4.734   3.249
 6146WAT     H118680   7.872   4.735   3.316
 6146WAT     H218681   7.710   4.731   3.296
 6147WAT      O18682   1.686   1.764   9.177
 6147WAT     H118683   1.727   1.771   9.086
 6147WAT     H218684   1.711   1.677   9.219
 6148WAT      O18685   8.952   7.542   5.194
 6148WAT     H118686   9.038   7.561   5.147
 6148WAT     H218687   8.886   7.615   5.175
 6149WAT      O18688   3.002   0.682   4.714
 6149WAT     H118689   2.989   0.587   4.746
 6149WAT     H218690   3.084   0.687   4.657
 6150WAT      O18691   6.377   8.434   3.572
 6150WAT     H118692   6.313   8.414   3.497
 6150WAT     H218693   6.466   8.460   3.533
 6151WAT      O18694   5.827   4.400   6.704
 6151WAT     H118695   5.900   4.454   6.746
 6151WAT     H218696   5.742   4.452   6.707
 6152WAT      O18697   2.522   9.617   8.703
 6152WAT     H118698   2.509   9.670   8.619
 6152WAT     H218699   2.570   9.532   8.682
 6153WAT      O18700   7.407   6.567   3.948
 6153WAT     H118701   7.477   6.562   4.019
 6153WAT     H218702   7.327   6.513   3.975
 6154WAT      O18703   3.087   4.298   0.883
 6154WAT     H118704   3.099   4.393   0.912
 6154WAT     H218705   3.055   4.297   0.788
 6155WAT      O18706   5.937   7.324   5.995
 6155WAT     H118707   6.020   7.274   5.971
 6155WAT     H218708   5.959   7.421   6.007
 6156WAT      O18709   4.549   6.330   4.207
 6156WAT     H118710   4.533   6.236   4.177
 6156WAT     H218711   4.471   6.387   4.180
 6157WAT      O18712   3.011   4.824   5.000
 6157WAT     H118713   3.060   4.848   4.916
 6157WAT     H218714   3.061   4.855   5.080
 6158WAT      O18715   2.493   0.305   0.027
 6158WAT     H118716   2.506   0.325   0.124
 6158WAT     H218717   2.582   0.289  -0.016
 6159WAT      O18718   5.605   4.361   2.174
 6159WAT     H118719   5.678   4.299   2.202
 6159WAT     H218720   5.519   4.331   2.215
 6160WAT      O18721   7.827   0.470   5.119
 6160WAT     H118722   7.898   0.460   5.050
 6160WAT     H218723   7.813   0.383   5.166
 6161WAT      O18724   1.440   4.683   8.433
 6161WAT     H118725   1.401   4.767   8.394
 6161WAT     H218726   1.462   4.619   8.359
 6162WAT      O18727   9.748   8.668   5.803
 6162WAT     H118728   9.791   8.592   5.754
 6162WAT     H218729   9.794   8.754   5.777
 6163WAT      O18730   0.044   5.360   4.177
 6163WAT     H118731  -0.002   5.430   4.122
 6163WAT     H218732  -0.011   5.340   4.258
 6164WAT      O18733   5.164   4.493   2.390
 6164WAT     H118734   5.160   4.397   2.416
 6164WAT     H218735   5.070   4.528   2.377
 6165WAT      O18736   9.826   0.482   8.646
 6165WAT     H118737   9.857   0.388   8.636
 6165WAT     H218738   9.898   0.544   8.614
 6166WAT      O18739   7.395   1.601   3.434
 6166WAT     H118740   7.378   1.693   3.469
 6166WAT     H218741   7.410   1.538   3.510
 6167WAT      O18742   9.299   7.034   0.771
 6167WAT     H118743   9.379   7.091   0.791
 6167WAT     H218744   9.290   7.022   0.672
 6168WAT      O18745   4.722   7.343   8.914
 6168WAT     H118746   4.778   7.361   8.995
 6168WAT     H218747   4.760   7.264   8.865
 6169WAT      O18748   3.367   8.512   8.718
 6169WAT     H118749   3.334   8.452   8.645
 6169WAT     H218750   3.442   8.569   8.682
 6170WAT      O18751   4.725   2.692   3.417
 6170WAT     H118752   4.707   2.636   3.337
 6170WAT     H218753   4.758   2.782   3.388
 6171WAT      O18754   8.728   8.380   3.275
 6171WAT     H118755   8.746   8.433   3.359
 6171WAT     H218756   8.812   8.335   3.245
 6172WAT      O18757   6.872   3.806   3.148
 6172WAT     H118758   6.936   3.780   3.221
 6172WAT     H218759   6.780   3.777   3.173
 6173WAT      O18760   5.526   4.188   9.083
 6173WAT     H118761   5.588   4.264   9.101
 6173WAT     H218762   5.437   4.206   9.124
 6174WAT      O18763   3.731   6.219   4.678
 6174WAT     H118764   3.647   6.249   4.633
 6174WAT     H218765   3.708   6.154   4.751
 6175WAT      O18766   2.582   7.618   8.420
 6175WAT     H118767   2.547   7.665   8.338
 6175WAT     H218768   2.589   7.520   8.402
 6176WAT      O18769   5.621   0.534   0.723
 6176WAT     H118770   5.524   0.517   0.736
 6176WAT     H218771   5.650   0.496   0.635
 6177WAT      O18772   6.221   7.328   5.402
 6177WAT     H118773   6.295   7.382   5.441
 6177WAT     H218774   6.254   7.235   5.385
 6178WAT      O18775   7.903   7.986   6.986
 6178WAT     H118776   7.993   7.961   7.021
 6178WAT     H218777   7.871   7.915   6.923
 6179WAT      O18778   4.637   8.654   7.889
 6179WAT     H118779   4.671   8.565   7.858
 6179WAT     H218780   4.604   8.706   7.811
 6180WAT      O18781   6.154   4.057   5.195
 6180WAT     H118782   6.132   4.138   5.249
 6180WAT     H218783   6.138   3.974   5.250
 6181WAT      O18784   6.570   1.380   1.868
 6181WAT     H118785   6.620   1.336   1.943
 6181WAT     H218786   6.613   1.356   1.781
 6182WAT      O18787   5.703   7.815   5.412
 6182WAT     H118788   5.651   7.866   5.343
 6182WAT     H218789   5.648   7.739   5.445
 6183WAT      O18790   6.534   5.062   6.266
 6183WAT     H118791   6.582   5.010   6.337
 6183WAT     H218792   6.436   5.058   6.283
 6184WAT      O18793   5.706   0.769   0.992
 6184WAT     H118794   5.615   0.776   1.034
 6184WAT     H218795   5.737   0.674   0.994
 6185WAT      O18796   7.268   6.051   7.039
 6185WAT     H118797   7.268   6.000   6.952
 6185WAT     H218798   7.343   6.019   7.096
 6186WAT      O18799   0.279   7.258   6.198
 6186WAT     H118800   0.345   7.330   6.215
 6186WAT     H218801   0.219   7.248   6.277
 6187WAT      O18802   6.680   6.320   9.625
 6187WAT     H118803   6.731   6.234   9.636
 6187WAT     H218804   6.640   6.345   9.713
 6188WAT      O18805   9.482   7.718   3.202
 6188WAT     H118806   9.543   7.651   3.160
 6188WAT     H218807   9.433   7.768   3.130
 6189WAT      O18808   5.675   4.403   9.206
 6189WAT     H118809   5.609   4.448   9.146
 6189WAT     H218810   5.764   4.446   9.196
 6190WAT      O18811   8.507   8.076   3.059
 6190WAT     H118812   8.466   8.118   2.978
 6190WAT     H218813   8.489   7.977   3.058
 6191WAT      O18814   2.387   3.325   7.101
 6191WAT     H118815   2.418   3.242   7.148
 6191WAT     H218816   2.294   3.347   7.130
 6192WAT      O18817   3.287   5.662   9.123
 6192WAT     H118818   3.243   5.634   9.208
 6192WAT     H218819   3.232   5.732   9.078
 6193WAT      O18820   2.969   1.139   0.875
 6193WAT     H118821   3.013   1.097   0.795
 6193WAT     H218822   2.870   1.140   0.863
 6194WAT      O18823   5.272   2.769   7.989
 6194WAT     H118824   5.322   2.715   8.056
 6194WAT     H218825   5.332   2.838   7.949
 6195WAT      O18826   1.873   3.355   2.380
 6195WAT     H118827   1.933   3.283   2.415
 6195WAT     H218828   1.778   3.333   2.404
 6196WAT      O18829   4.497   1.794   8.909
 6196WAT     H118830   4.407   1.765   8.875
 6196WAT     H218831   4.502   1.777   9.007
 6197WAT      O18832   5.602   4.479   3.953
 6197WAT     H118833   5.682   4.523   3.911
 6197WAT     H218834   5.579   4.396   3.902
 6198WAT      O18835   5.260   6.368   5.029
 6198WAT     H118836   5.164   6.396   5.030
 6198WAT     H218837   5.317   6.446   5.002
 6199WAT      O18838   4.465   9.821   1.136
 6199WAT     H118839   4.544   9.794   1.191
 6199WAT     H218840   4.496   9.860   1.049
 6200WAT      O18841   7.756   4.214   7.624
 6200WAT     H118842   7.821   4.283   7.591
 6200WAT     H218843   7.804   4.145   7.677
 6201WAT      O18844   8.148   1.925   6.794
 6201WAT     H118845   8.234   1.884   6.765
 6201WAT     H218846   8.117   1.881   6.878
 6202WAT      O18847   6.297   4.569   5.711
 6202WAT     H118848   6.202   4.552   5.683
 6202WAT     H218849   6.310   4.535   5.804
 6203WAT      O18850   0.047   6.622   9.206
 6203WAT     H118851   0.025   6.683   9.281
 6203WAT     H218852   0.121   6.560   9.234
 6204WAT      O18853   4.939   7.850   2.883
 6204WAT     H118854   4.850   7.827   2.843
 6204WAT     H218855   4.999   7.769   2.880
 6205WAT      O18856   2.550   8.423   9.650
 6205WAT     H118857   2.534   8.348   9.586
 6205WAT     H218858   2.463   8.452   9.690
 6206WAT      O18859   6.756   7.523   5.845
 6206WAT     H118860   6.769   7.452   5.915
 6206WAT     H218861   6.840   7.577   5.837
 6207WAT      O18862   9.154   4.551   2.913
 6207WAT     H118863   9.077   4.589   2.861
 6207WAT     H218864   9.174   4.459   2.879
 6208WAT      O18865   3.830   2.652   8.146
 6208WAT     H118866   3.919   2.664   8.192
 6208WAT     H218867   3.780   2.577   8.190
 6209WAT      O18868   6.750   4.435   2.745
 6209WAT     H118869   6.842   4.451   2.707
 6209WAT     H218870   6.690   4.399   2.674
 6210WAT      O18871   9.704   0.279   9.151
 6210WAT     H118872   9.718   0.374   9.178
 6210WAT     H218873   9.723   0.268   9.054
 6211WAT      O18874   6.056   6.629   1.134
 6211WAT     H118875   6.032   6.704   1.072
 6211WAT     H218876   5.974   6.598   1.181
 6212WAT      O18877   9.864   0.208   7.257
 6212WAT     H118878   9.842   0.243   7.166
 6212WAT     H218879   9.876   0.109   7.253
 6213WAT      O18880   0.274   0.939   5.580
 6213WAT     H118881   0.186   0.986   5.574
 6213WAT     H218882   0.259   0.841   5.593
 6214WAT      O18883   9.130   4.044   7.440
 6214WAT     H118884   9.168   4.026   7.349
 6214WAT     H218885   9.058   4.113   7.433
 6215WAT      O18886   5.528   5.077   9.893
 6215WAT     H118887   5.551   5.017   9.817
 6215WAT     H218888   5.431   5.066   9.916
 6216WAT      O18889   9.758   9.115   0.619
 6216WAT     H118890   9.780   9.200   0.571
 6216WAT     H218891   9.772   9.128   0.717
 6217WAT      O18892   8.061   1.970   3.963
 6217WAT     H118893   7.965   1.995   3.980
 6217WAT     H218894   8.121   2.039   4.003
 6218WAT      O18895   0.493   2.918   0.749
 6218WAT     H118896   0.472   2.970   0.832
 6218WAT     H218897   0.452   2.827   0.755
 6219WAT      O18898   8.428   3.117   6.247
 6219WAT     H118899   8.346   3.174   6.258
 6219WAT     H218900   8.407   3.023   6.274
 6220WAT      O18901   0.083   5.658   6.452
 6220WAT     H118902   0.040   5.613   6.374
 6220WAT     H218903   0.029   5.738   6.478
 6221WAT      O18904   5.012   6.589   4.202
 6221WAT     H118905   4.912   6.592   4.199
 6221WAT     H218906   5.044   6.621   4.291
 6222WAT      O18907   8.420   0.530   0.050
 6222WAT     H118908   8.345   0.469   0.023
 6222WAT     H218909   8.427   0.532   0.150
 6223WAT      O18910   4.148   1.867   8.222
 6223WAT     H118911   4.077   1.839   8.158
 6223WAT     H218912   4.118   1.949   8.272
 6224WAT      O18913   8.847   6.858   3.261
 6224WAT     H118914   8.879   6.769   3.294
 6224WAT     H218915   8.758   6.847   3.217
 6225WAT      O18916   9.254   1.500   3.874
 6225WAT     H118917   9.158   1.523   3.893
 6225WAT     H218918   9.291   1.565   3.808
 6226WAT      O18919   5.400   7.228   0.875
 6226WAT     H118920   5.425   7.153   0.813
 6226WAT     H218921   5.475   7.244   0.939
 6227WAT      O18922   8.295   2.896   6.960
 6227WAT     H118923   8.354   2.975   6.941
 6227WAT     H218924   8.323   2.855   7.047
 6228WAT      O18925   1.523   2.385   9.333
 6228WAT     H118926   1.568   2.305   9.293
 6228WAT     H218927   1.475   2.436   9.261
 6229WAT      O18928   9.516   5.489   7.226
 6229WAT     H118929   9.609   5.475   7.193
 6229WAT     H218930   9.468   5.554   7.166
 6230WAT      O18931   8.624   7.640   4.140
 6230WAT     H118932   8.683   7.575   4.091
 6230WAT     H218933   8.582   7.703   4.075
 6231WAT      O18934   5.711   2.858   9.689
 6231WAT     H118935   5.719   2.887   9.594
 6231WAT     H218936   5.663   2.928   9.741
 6232WAT      O18937   2.164   9.554   4.164
 6232WAT     H118938   2.207   9.645   4.164
 6232WAT     H218939   2.069   9.562   4.194
 6233WAT      O18940   0.318   9.812   6.535
 6233WAT     H118941   0.257   9.889   6.556
 6233WAT     H218942   0.341   9.763   6.619
 6234WAT      O18943   7.569   5.589   0.526
 6234WAT     H118944   7.532   5.658   0.465
 6234WAT     H218945   7.498   5.522   0.548
 6235WAT      O18946   8.809   3.979   3.173
 6235WAT     H118947   8.871   3.907   3.141
 6235WAT     H218948   8.820   4.061   3.117
 6236WAT      O18949   3.553   3.310   0.055
 6236WAT     H118950   3.591   3.401   0.071
 6236WAT     H218951   3.464   3.304   0.101
 6237WAT      O18952   0.643   8.276   6.815
 6237WAT     H118953   0.550   8.300   6.787
 6237WAT     H218954   0.708   8.334   6.766
 6238WAT      O18955   7.039   8.145   4.409
 6238WAT     H118956   7.098   8.069   4.382
 6238WAT     H218957   6.986   8.120   4.490
 6239WAT      O18958   1.725   9.039   4.041
 6239WAT     H118959   1.782   9.121   4.035
 6239WAT     H218960   1.637   9.056   3.998
 6240WAT      O18961   4.000   5.558   4.427
 6240WAT     H118962   3.905   5.588   4.440
 6240WAT     H218963   4.061   5.610   4.487
 6241WAT      O18964   6.812   4.219   2.941
 6241WAT     H118965   6.755   4.150   2.898
 6241WAT     H218966   6.807   4.304   2.889
 6242WAT      O18967   5.379   5.893   0.683
 6242WAT     H118968   5.291   5.936   0.705
 6242WAT     H218969   5.412   5.927   0.595
 6243WAT      O18970   8.772   0.836   6.759
 6243WAT     H118971   8.816   0.900   6.696
 6243WAT     H218972   8.807   0.851   6.852
 6244WAT      O18973   5.028   6.279   9.848
 6244WAT     H118974   4.931   6.301   9.834
 6244WAT     H218975   5.066   6.339   9.918
 6245WAT      O18976   7.460   4.002   6.759
 6245WAT     H118977   7.485   4.086   6.806
 6245WAT     H218978   7.416   4.024   6.671
 6246WAT      O18979   7.782   9.145   1.814
 6246WAT     H118980   7.805   9.050   1.838
 6246WAT     H218981   7.787   9.156   1.715
 6247WAT      O18982   5.991   6.866   8.084
 6247WAT     H118983   5.952   6.808   8.012
 6247WAT     H218984   5.931   6.945   8.099
 6248WAT      O18985   4.117   6.941   2.809
 6248WAT     H118986   4.188   6.989   2.759
 6248WAT     H218987   4.030   6.950   2.761
 6249WAT      O18988   7.876   4.194   1.851
 6249WAT     H118989   7.943   4.167   1.782
 6249WAT     H218990   7.923   4.244   1.924
 6250WAT      O18991   1.403   6.830   7.044
 6250WAT     H118992   1.327   6.891   7.066
 6250WAT     H218993   1.482   6.884   7.015
 6251WAT      O18994   8.585   2.989   0.158
 6251WAT     H118995   8.570   3.025   0.067
 6251WAT     H218996   8.577   3.062   0.226
 6252WAT      O18997   8.243   8.456   7.462
 6252WAT     H118998   8.152   8.443   7.423
 6252WAT     H218999   8.306   8.483   7.390
 6253WAT      O19000   2.321   6.055   7.227
 6253WAT     H119001   2.387   6.017   7.162
 6253WAT     H219002   2.367   6.122   7.285
 6254WAT      O19003   8.350   7.067   9.256
 6254WAT     H119004   8.415   7.084   9.329
 6254WAT     H219005   8.337   7.150   9.202
 6255WAT      O19006   4.218   0.467   1.639
 6255WAT     H119007   4.278   0.459   1.560
 6255WAT     H219008   4.270   0.502   1.717
 6256WAT      O19009   6.945   0.286   7.014
 6256WAT     H119010   6.859   0.324   7.048
 6256WAT     H219011   6.958   0.194   7.052
 6257WAT      O19012   2.942   3.360   5.568
 6257WAT     H119013   3.041   3.364   5.576
 6257WAT     H219014   2.902   3.335   5.657
 6258WAT      O19015   5.665   9.426   9.762
 6258WAT     H119016   5.613   9.510   9.747
 6258WAT     H219017   5.619   9.371   9.832
 6259WAT      O19018   4.366   8.727   6.698
 6259WAT     H119019   4.373   8.768   6.607
 6259WAT     H219020   4.391   8.795   6.767
 6260WAT      O19021   1.339   6.118   0.344
 6260WAT     H119022   1.376   6.151   0.430
 6260WAT     H219023   1.414   6.102   0.279
 6261WAT      O19024   8.952   7.808   7.513
 6261WAT     H119025   9.012   7.729   7.522
 6261WAT     H219026   8.951   7.859   7.599
 6262WAT      O19027   5.909   3.005   1.391
 6262WAT     H119028   5.946   3.037   1.304
 6262WAT     H219029   5.893   2.906   1.385
 6263WAT      O19030   8.880   8.350   9.753
 6263WAT     H119031   8.832   8.435   9.732
 6263WAT     H219032   8.973   8.353   9.715
 6264WAT      O19033   7.553   3.571   5.612
 6264WAT     H119034   7.490   3.644   5.637
 6264WAT     H219035   7.601   3.596   5.528
 6265WAT      O19036   2.631   3.734   4.159
 6265WAT     H119037   2.624   3.828   4.192
 6265WAT     H219038   2.723   3.699   4.177
 6266WAT      O19039   7.167   2.860   5.595
 6266WAT     H119040   7.148   2.762   5.597
 6266WAT     H219041   7.239   2.881   5.662
 6267WAT      O19042   3.212   5.115   1.981
 6267WAT     H119043   3.226   5.213   1.991
 6267WAT     H219044   3.188   5.094   1.886
 6268WAT      O19045   1.143   9.642   8.982
 6268WAT     H119046   1.139   9.596   8.893
 6268WAT     H219047   1.205   9.720   8.977
 6269WAT      O19048   2.055   6.248   6.412
 6269WAT     H119049   2.117   6.290   6.344
 6269WAT     H219050   2.109   6.197   6.479
 6270WAT      O19051   2.877   2.174   9.392
 6270WAT     H119052   2.859   2.141   9.299
 6270WAT     H219053   2.898   2.272   9.389
 6271WAT      O19054   8.752   6.355   2.349
 6271WAT     H119055   8.829   6.300   2.315
 6271WAT     H219056   8.758   6.361   2.449
 6272WAT      O19057   3.071   8.942   6.545
 6272WAT     H119058   3.025   9.026   6.517
 6272WAT     H219059   3.047   8.868   6.482
 6273WAT      O19060   9.314   5.355   5.139
 6273WAT     H119061   9.282   5.314   5.224
 6273WAT     H219062   9.362   5.440   5.159
 6274WAT      O19063   2.085   8.416   8.561
 6274WAT     H119064   2.089   8.427   8.660
 6274WAT     H219065   1.991   8.430   8.529
 6275WAT      O19066   7.120   2.836   1.060
 6275WAT     H119067   7.096   2.744   1.030
 6275WAT     H219068   7.106   2.844   1.159
 6276WAT      O19069   0.494   7.730   7.690
 6276WAT     H119070   0.513   7.700   7.596
 6276WAT     H219071   0.554   7.806   7.713
 6277WAT      O19072   4.533   4.827   3.752
 6277WAT     H119073   4.543   4.754   3.684
 6277WAT     H219074   4.576   4.798   3.838
 6278WAT      O19075   0.424   1.243   5.676
 6278WAT     H119076   0.424   1.147   5.703
 6278WAT     H219077   0.445   1.251   5.579
 6279WAT      O19078   7.248   8.220   2.935
 6279WAT     H119079   7.180   8.210   2.862
 6279WAT     H219080   7.336   8.183   2.905
 6280WAT      O19081   6.375   1.589   5.533
 6280WAT     H119082   6.405   1.500   5.498
 6280WAT     H219083   6.449   1.630   5.586
 6281WAT      O19084   7.960   6.367   1.341
 6281WAT     H119085   7.895   6.338   1.271
 6281WAT     H219086   7.970   6.467   1.338
 6282WAT      O19087   7.798   8.397   6.709
 6282WAT     H119088   7.892   8.405   6.677
 6282WAT     H219089   7.735   8.414   6.633
 6283WAT      O19090   9.277   2.076   6.090
 6283WAT     H119091   9.212   2.151   6.102
 6283WAT     H219092   9.251   2.023   6.009
 6284WAT      O19093   1.490   7.403   0.325
 6284WAT     H119094   1.520   7.480   0.381
 6284WAT     H219095   1.390   7.398   0.326
 6285WAT      O19096   5.386   2.075   0.467
 6285WAT     H119097   5.305   2.059   0.522
 6285WAT     H219098   5.468   2.057   0.522
 6286WAT      O19099   6.219   0.228   0.089
 6286WAT     H119100   6.210   0.262  -0.004
 6286WAT     H219101   6.234   0.305   0.151
 6287WAT      O19102   3.220   9.211   4.021
 6287WAT     H119103   3.279   9.175   3.950
 6287WAT     H219104   3.219   9.148   4.099
 6288WAT      O19105   4.293   7.802   7.542
 6288WAT     H119106   4.272   7.898   7.526
 6288WAT     H219107   4.210   7.755   7.574
 6289WAT      O19108   3.025   7.231   3.715
 6289WAT     H119109   3.063   7.220   3.807
 6289WAT     H219110   3.099   7.248   3.651
 6290WAT      O19111   4.247   9.282   5.000
 6290WAT     H119112   4.290   9.193   4.981
 6290WAT     H219113   4.248   9.298   5.099
 6291WAT      O19114   8.423   6.566   1.282
 6291WAT     H119115   8.435   6.516   1.196
 6291WAT     H219116   8.428   6.502   1.359
 6292WAT      O19117   2.882   8.386   8.435
 6292WAT     H119118   2.836   8.475   8.428
 6292WAT     H219119   2.873   8.351   8.529
 6293WAT      O19120   4.499   6.443   4.732
 6293WAT     H119121   4.483   6.539   4.755
 6293WAT     H219122   4.537   6.436   4.640
 6294WAT      O19123   3.748   5.527   0.749
 6294WAT     H119124   3.746   5.605   0.811
 6294WAT     H219125   3.763   5.559   0.656
 6295WAT      O19126   8.685   3.280   6.810
 6295WAT     H119127   8.761   3.216   6.796
 6295WAT     H219128   8.696   3.325   6.898
 6296WAT      O19129   0.221   6.380   3.560
 6296WAT     H119130   0.128   6.415   3.550
 6296WAT     H219131   0.220   6.280   3.558
 6297WAT      O19132   1.613   6.027   4.632
 6297WAT     H119133   1.670   6.024   4.714
 6297WAT     H219134   1.581   5.934   4.611
 6298WAT      O19135   0.236   9.025   2.518
 6298WAT     H119136   0.249   8.970   2.601
 6298WAT     H219137   0.315   9.084   2.505
 6299WAT      O19138   6.975   0.604   7.686
 6299WAT     H119139   6.880   0.635   7.695
 6299WAT     H219140   7.004   0.560   7.771
 6300WAT      O19141   5.863   3.737   0.851
 6300WAT     H119142   5.887   3.759   0.757
 6300WAT     H219143   5.785   3.794   0.879
 6301WAT      O19144   9.040   1.012   0.584
 6301WAT     H119145   9.055   1.062   0.669
 6301WAT     H219146   9.092   0.927   0.586
 6302WAT      O19147   3.934   1.133   2.771
 6302WAT     H119148   3.878   1.116   2.689
 6302WAT     H219149   3.953   1.230   2.779
 6303WAT      O19150   9.169   3.311   1.700
 6303WAT     H119151   9.120   3.329   1.786
 6303WAT     H219152   9.103   3.279   1.631
 6304WAT      O19153   8.907   5.955   7.378
 6304WAT     H119154   8.814   5.943   7.344
 6304WAT     H219155   8.971   5.950   7.302
 6305WAT      O19156   8.172   9.559   6.892
 6305WAT     H119157   8.199   9.532   6.799
 6305WAT     H219158   8.080   9.525   6.912
 6306WAT      O19159   5.434   4.987   1.172
 6306WAT     H119160   5.432   4.961   1.076
 6306WAT     H219161   5.352   4.955   1.218
 6307WAT      O19162   9.024   0.777   8.328
 6307WAT     H119163   9.011   0.684   8.294
 6307WAT     H219164   9.121   0.802   8.321
 6308WAT      O19165   4.161   1.229   1.381
 6308WAT     H119166   4.169   1.177   1.295
 6308WAT     H219167   4.189   1.324   1.365
 6309WAT      O19168   1.646   0.805   9.214
 6309WAT     H119169   1.618   0.838   9.124
 6309WAT     H219170   1.566   0.783   9.269
 6310WAT      O19171   9.163   6.693   1.430
 6310WAT     H119172   9.166   6.644   1.517
 6310WAT     H219173   9.083   6.753   1.429
 6311WAT      O19174   5.725   6.624   8.109
 6311WAT     H119175   5.811   6.634   8.059
 6311WAT     H219176   5.745   6.599   8.204
 6312WAT      O19177   7.527   6.919   7.308
 6312WAT     H119178   7.430   6.929   7.332
 6312WAT     H219179   7.536   6.853   7.233
 6313WAT      O19180   6.470   4.494   5.513
 6313WAT     H119181   6.410   4.517   5.590
 6313WAT     H219182   6.415   4.466   5.435
 6314WAT      O19183   1.610   0.179   6.701
 6314WAT     H119184   1.620   0.080   6.697
 6314WAT     H219185   1.561   0.206   6.784
 6315WAT      O19186   6.442   7.513   4.332
 6315WAT     H119187   6.446   7.414   4.346
 6315WAT     H219188   6.475   7.536   4.241
 6316WAT      O19189   5.734   9.395   1.675
 6316WAT     H119190   5.792   9.319   1.704
 6316WAT     H219191   5.789   9.479   1.673
 6317WAT      O19192   1.504   8.008   6.412
 6317WAT     H119193   1.447   7.927   6.424
 6317WAT     H219194   1.532   8.016   6.317
 6318WAT      O19195   1.373   7.822   2.165
 6318WAT     H119196   1.409   7.909   2.132
 6318WAT     H219197   1.297   7.793   2.107
 6319WAT      O19198   8.643   3.453   1.316
 6319WAT     H119199   8.650   3.355   1.297
 6319WAT     H219200   8.550   3.484   1.297
 6320WAT      O19201   1.193   3.502   7.227
 6320WAT     H119202   1.198   3.452   7.314
 6320WAT     H219203   1.109   3.477   7.179
 6321WAT      O19204   9.018   6.914   0.358
 6321WAT     H119205   8.960   6.835   0.380
 6321WAT     H219206   9.051   6.905   0.264
 6322WAT      O19207   1.367   5.218   5.249
 6322WAT     H119208   1.389   5.299   5.304
 6322WAT     H219209   1.354   5.245   5.153
 6323WAT      O19210   3.894   8.724   7.890
 6323WAT     H119211   3.884   8.774   7.804
 6323WAT     H219212   3.904   8.626   7.871
 6324WAT      O19213   4.545   6.775   5.236
 6324WAT     H119214   4.457   6.796   5.195
 6324WAT     H219215   4.604   6.731   5.168
 6325WAT      O19216   6.162   6.673   0.578
 6325WAT     H119217   6.240   6.675   0.640
 6325WAT     H219218   6.081   6.708   0.625
 6326WAT      O19219   4.934   4.325   9.597
 6326WAT     H119220   4.930   4.416   9.638
 6326WAT     H219221   4.990   4.265   9.654
 6327WAT      O19222   9.678   9.449   4.335
 6327WAT     H119223   9.594   9.396   4.322
 6327WAT     H219224   9.678   9.491   4.425
 6328WAT      O19225   7.171   6.386   5.436
 6328WAT     H119226   7.228   6.395   5.354
 6328WAT     H219227   7.076   6.369   5.409
 6329WAT      O19228   2.414   6.818   7.964
 6329WAT     H119229   2.491   6.879   7.987
 6329WAT     H219230   2.328   6.868   7.976
 6330WAT      O19231   0.790   8.497   5.571
 6330WAT     H119232   0.851   8.566   5.532
 6330WAT     H219233   0.786   8.508   5.670
 6331WAT      O19234   8.531   5.829   3.157
 6331WAT     H119235   8.460   5.805   3.223
 6331WAT     H219236   8.571   5.917   3.182
 6332WAT      O19237   1.688   0.069   1.451
 6332WAT     H119238   1.673  -0.025   1.419
 6332WAT     H219239   1.601   0.108   1.481
 6333WAT      O19240   2.915   5.744   9.476
 6333WAT     H119241   2.925   5.779   9.570
 6333WAT     H219242   2.903   5.645   9.479
 6334WAT      O19243   6.009   1.284   2.014
 6334WAT     H119244   5.961   1.269   2.101
 6334WAT     H219245   6.088   1.344   2.029
 6335WAT      O19246   0.273   4.536   7.214
 6335WAT     H119247   0.246   4.447   7.178
 6335WAT     H219248   0.198   4.573   7.270
 6336WAT      O19249   8.659   6.308   8.153
 6336WAT     H119250   8.670   6.364   8.071
 6336WAT     H219251   8.662   6.211   8.128
 6337WAT      O19252   0.648   9.184   3.000
 6337WAT     H119253   0.578   9.117   3.021
 6337WAT     H219254   0.643   9.260   3.065
 6338WAT      O19255   3.390   2.541   9.652
 6338WAT     H119256   3.299   2.545   9.609
 6338WAT     H219257   3.386   2.484   9.734
 6339WAT      O19258   3.906   6.557   2.115
 6339WAT     H119259   3.975   6.526   2.181
 6339WAT     H219260   3.928   6.519   2.025
 6340WAT      O19261   6.319   6.659   6.132
 6340WAT     H119262   6.283   6.747   6.101
 6340WAT     H219263   6.410   6.644   6.092
 6341WAT      O19264   0.955   5.007   7.789
 6341WAT     H119265   1.027   4.958   7.838
 6341WAT     H219266   0.912   4.947   7.722
 6342WAT      O19267   7.810   8.400   9.019
 6342WAT     H119268   7.789   8.384   8.922
 6342WAT     H219269   7.740   8.458   9.059
 6343WAT      O19270   0.651   6.562   7.429
 6343WAT     H119271   0.735   6.509   7.425
 6343WAT     H219272   0.661   6.635   7.497
 6344WAT      O19273   8.770   6.114   8.351
 6344WAT     H119274   8.860   6.073   8.366
 6344WAT     H219275   8.780   6.197   8.296
 6345WAT      O19276   9.881   0.684   3.319
 6345WAT     H119277   9.841   0.703   3.409
 6345WAT     H219278   9.808   0.664   3.253
 6346WAT      O19279   9.354   4.638   4.577
 6346WAT     H119280   9.327   4.674   4.667
 6346WAT     H219281   9.362   4.539   4.582
 6347WAT      O19282   5.536   0.039   1.551
 6347WAT     H119283   5.456   0.070   1.499
 6347WAT     H219284   5.523   0.061   1.648
 6348WAT      O19285   9.366   6.038   3.402
 6348WAT     H119286   9.363   6.128   3.358
 6348WAT     H219287   9.452   5.993   3.382
 6349WAT      O19288   3.933   0.999   5.679
 6349WAT     H119289   3.942   1.098   5.690
 6349WAT     H219290   3.859   0.965   5.736
 6350WAT      O19291   5.824   0.816   2.548
 6350WAT     H119292   5.907   0.760   2.545
 6350WAT     H219293   5.818   0.871   2.464
 6351WAT      O19294   3.868   6.450   9.064
 6351WAT     H119295   3.930   6.445   9.142
 6351WAT     H219296   3.774   6.458   9.096
 6352WAT      O19297   9.058   4.305   6.301
 6352WAT     H119298   8.967   4.266   6.314
 6352WAT     H219299   9.050   4.397   6.265
 6353WAT      O19300   6.737   1.355   8.404
 6353WAT     H119301   6.820   1.303   8.384
 6353WAT     H219302   6.718   1.352   8.502
 6354WAT      O19303   6.844   0.198   4.012
 6354WAT     H119304   6.829   0.277   4.071
 6354WAT     H219305   6.941   0.174   4.013
 6355WAT      O19306   6.394   1.153   5.164
 6355WAT     H119307   6.493   1.159   5.151
 6355WAT     H219308   6.351   1.121   5.079
 6356WAT      O19309   4.711   5.610   1.505
 6356WAT     H119310   4.733   5.514   1.522
 6356WAT     H219311   4.712   5.628   1.407
 6357WAT      O19312   3.229   1.401   5.870
 6357WAT     H119313   3.144   1.433   5.913
 6357WAT     H219314   3.298   1.385   5.940
 6358WAT      O19315   2.366   6.897   4.319
 6358WAT     H119316   2.308   6.840   4.378
 6358WAT     H219317   2.354   6.868   4.224
 6359WAT      O19318   8.419   6.229   2.706
 6359WAT     H119319   8.406   6.328   2.693
 6359WAT     H219320   8.331   6.184   2.708
 6360WAT      O19321   5.364   7.181   7.861
 6360WAT     H119322   5.271   7.167   7.829
 6360WAT     H219323   5.378   7.277   7.883
 6361WAT      O19324   9.293   4.329   2.787
 6361WAT     H119325   9.336   4.381   2.713
 6361WAT     H219326   9.310   4.232   2.773
 6362WAT      O19327   0.741   3.581   1.960
 6362WAT     H119328   0.744   3.506   2.026
 6362WAT     H219329   0.834   3.600   1.927
 6363WAT      O19330   8.753   2.648   4.408
 6363WAT     H119331   8.704   2.681   4.328
 6363WAT     H219332   8.698   2.664   4.490
 6364WAT      O19333   3.133   0.153   4.471
 6364WAT     H119334   3.154   0.055   4.473
 6364WAT     H219335   3.211   0.203   4.436
 6365WAT      O19336   4.954   3.916   8.903
 6365WAT     H119337   4.948   3.899   8.805
 6365WAT     H219338   5.051   3.924   8.929
 6366WAT      O19339   7.160   4.371   2.458
 6366WAT     H119340   7.156   4.313   2.377
 6366WAT     H219341   7.185   4.315   2.538
 6367WAT      O19342   9.752   0.806   0.236
 6367WAT     H119343   9.772   0.817   0.139
 6367WAT     H219344   9.802   0.727   0.272
 6368WAT      O19345   1.487   0.188   2.640
 6368WAT     H119346   1.439   0.259   2.690
 6368WAT     H219347   1.422   0.126   2.597
 6369WAT      O19348   8.001   0.618   0.142
 6369WAT     H119349   7.918   0.665   0.174
 6369WAT     H219350   8.079   0.647   0.197
 6370WAT      O19351   1.098   0.505   7.079
 6370WAT     H119352   1.067   0.455   6.998
 6370WAT     H219353   1.061   0.597   7.079
 6371WAT      O19354   0.508   3.146   9.382
 6371WAT     H119355   0.470   3.197   9.459
 6371WAT     H219356   0.608   3.144   9.390
 6372WAT      O19357   5.043   7.105   5.668
 6372WAT     H119358   5.019   7.062   5.756
 6372WAT     H219359   4.961   7.110   5.611
 6373WAT      O19360   7.884   8.918   8.773
 6373WAT     H119361   7.823   8.863   8.831
 6373WAT     H219362   7.831   8.978   8.715
 6374WAT      O19363   3.518   2.983   1.884
 6374WAT     H119364   3.465   2.899   1.880
 6374WAT     H219365   3.543   3.010   1.791
 6375WAT      O19366   9.194   4.551   2.213
 6375WAT     H119367   9.173   4.512   2.124
 6375WAT     H219368   9.127   4.519   2.280
 6376WAT      O19369   6.763   3.492   6.382
 6376WAT     H119370   6.859   3.495   6.411
 6376WAT     H219371   6.704   3.505   6.462
 6377WAT      O19372   0.154   7.749   6.830
 6377WAT     H119373   0.232   7.811   6.845
 6377WAT     H219374   0.090   7.758   6.907
 6378WAT      O19375   7.009   3.013   2.201
 6378WAT     H119376   7.072   3.088   2.223
 6378WAT     H219377   6.981   3.020   2.105
 6379WAT      O19378   3.877   6.422   3.542
 6379WAT     H119379   3.947   6.358   3.574
 6379WAT     H219380   3.837   6.470   3.620
 6380WAT      O19381   5.931   2.313   4.354
 6380WAT     H119382   5.942   2.214   4.355
 6380WAT     H219383   6.015   2.356   4.386
 6381WAT      O19384   9.409   6.964   2.277
 6381WAT     H119385   9.396   6.865   2.277
 6381WAT     H219386   9.339   7.007   2.220
 6382WAT      O19387   2.460   5.363   5.824
 6382WAT     H119388   2.367   5.393   5.846
 6382WAT     H219389   2.493   5.413   5.744
 6383WAT      O19390   9.249   8.790   8.657
 6383WAT     H119391   9.185   8.720   8.626
 6383WAT     H219392   9.198   8.870   8.690
 6384WAT      O19393   3.251   9.544   7.970
 6384WAT     H119394   3.343   9.506   7.979
 6384WAT     H219395   3.184   9.470   7.972
 6385WAT      O19396   2.281   5.690   9.042
 6385WAT     H119397   2.314   5.764   8.984
 6385WAT     H219398   2.235   5.621   8.987
 6386WAT      O19399   8.144   6.642   6.321
 6386WAT     H119400   8.072   6.652   6.390
 6386WAT     H219401   8.202   6.564   6.345
 6387WAT      O19402   5.295   8.973   0.667
 6387WAT     H119403   5.314   9.059   0.715
 6387WAT     H219404   5.196   8.961   0.657
 6388WAT      O19405   2.241   2.611   6.915
 6388WAT     H119406   2.310   2.564   6.970
 6388WAT     H219407   2.194   2.679   6.971
 6389WAT      O19408   3.673   4.224   1.802
 6389WAT     H119409   3.647   4.167   1.724
 6389WAT     H219410   3.592   4.270   1.839
 6390WAT      O19411   1.592   3.241   0.452
 6390WAT     H119412   1.659   3.315   0.443
 6390WAT     H219413   1.523   3.268   0.519
 6391WAT      O19414   4.927   3.243   3.681
 6391WAT     H119415   5.013   3.217   3.637
 6391WAT     H219416   4.920   3.343   3.684
 6392WAT      O19417   2.880   3.930   1.762
 6392WAT     H119418   2.885   3.902   1.858
 6392WAT     H219419   2.824   3.865   1.711
 6393WAT      O19420   7.604   7.888   4.246
 6393WAT     H119421   7.651   7.868   4.160
 6393WAT     H219422   7.531   7.955   4.229
 6394WAT      O19423   1.362   8.287   1.891
 6394WAT     H119424   1.414   8.218   1.840
 6394WAT     H219425   1.307   8.242   1.962
 6395WAT      O19426   3.131   2.620   4.838
 6395WAT     H119427   3.142   2.565   4.920
 6395WAT     H219428   3.150   2.564   4.757
 6396WAT      O19429   1.188   9.264   5.380
 6396WAT     H119430   1.193   9.204   5.301
 6396WAT     H219431   1.278   9.305   5.397
 6397WAT      O19432   0.943   6.406   9.110
 6397WAT     H119433   0.929   6.448   9.199
 6397WAT     H219434   0.952   6.477   9.040
 6398WAT      O19435   1.860   7.098   1.381
 6398WAT     H119436   1.823   7.115   1.289
 6398WAT     H219437   1.867   6.999   1.396
 6399WAT      O19438   5.639   6.304   0.167
 6399WAT     H119439   5.690   6.273   0.087
 6399WAT     H219440   5.624   6.227   0.229
 6400WAT      O19441   8.788   3.090   6.355
 6400WAT     H119442   8.868   3.106   6.414
 6400WAT     H219443   8.770   3.172   6.301
 6401WAT      O19444   5.599   9.062   4.144
 6401WAT     H119445   5.620   9.077   4.241
 6401WAT     H219446   5.677   9.018   4.100
 6402WAT      O19447   6.406   5.490   8.909
 6402WAT     H119448   6.432   5.435   8.988
 6402WAT     H219449   6.327   5.546   8.932
 6403WAT      O19450   8.723   4.109   8.741
 6403WAT     H119451   8.783   4.101   8.662
 6403WAT     H219452   8.650   4.041   8.735
 6404WAT      O19453   9.229   8.944   4.329
 6404WAT     H119454   9.203   8.937   4.425
 6404WAT     H219455   9.147   8.952   4.272
 6405WAT      O19456   4.486   6.530   5.684
 6405WAT     H119457   4.489   6.432   5.706
 6405WAT     H219458   4.538   6.581   5.752
 6406WAT      O19459   8.044   0.814   9.101
 6406WAT     H119460   8.052   0.909   9.129
 6406WAT     H219461   8.107   0.797   9.025
 6407WAT      O19462   7.783   3.102   8.490
 6407WAT     H119463   7.848   3.029   8.508
 6407WAT     H219464   7.716   3.072   8.422
 6408WAT      O19465   8.375   5.432   1.878
 6408WAT     H119466   8.287   5.480   1.881
 6408WAT     H219467   8.365   5.341   1.919
 6409WAT      O19468   4.597   8.850   6.019
 6409WAT     H119469   4.614   8.757   5.988
 6409WAT     H219470   4.514   8.885   5.977
 6410WAT      O19471   5.953   1.872   5.352
 6410WAT     H119472   6.044   1.863   5.311
 6410WAT     H219473   5.957   1.939   5.426
 6411WAT      O19474   5.945   2.614   8.209
 6411WAT     H119475   6.007   2.646   8.280
 6411WAT     H219476   5.851   2.616   8.243
 6412WAT      O19477   1.590   2.349   1.467
 6412WAT     H119478   1.516   2.355   1.400
 6412WAT     H219479   1.629   2.440   1.480
 6413WAT      O19480   0.853   3.473   6.842
 6413WAT     H119481   0.828   3.377   6.845
 6413WAT     H219482   0.776   3.529   6.873
 6414WAT      O19483   8.215   4.352   1.415
 6414WAT     H119484   8.175   4.442   1.397
 6414WAT     H219485   8.146   4.292   1.455
 6415WAT      O19486   4.049   7.399   8.349
 6415WAT     H119487   4.031   7.372   8.444
 6415WAT     H219488   3.976   7.458   8.317
 6416WAT      O19489   1.193   0.114   0.461
 6416WAT     H119490   1.236   0.034   0.504
 6416WAT     H219491   1.180   0.096   0.364
 6417WAT      O19492   0.386   2.583   0.340
 6417WAT     H119493   0.385   2.512   0.411
 6417WAT     H219494   0.322   2.558   0.267
 6418WAT      O19495   7.221   4.791   3.338
 6418WAT     H119496   7.141   4.731   3.333
 6418WAT     H219497   7.242   4.827   3.247
 6419WAT      O19498   8.464   8.584   3.818
 6419WAT     H119499   8.392   8.541   3.764
 6419WAT     H219500   8.496   8.667   3.772
 6420WAT      O19501   0.770   8.999   6.613
 6420WAT     H119502   0.777   8.952   6.525
 6420WAT     H219503   0.729   9.089   6.599
 6421WAT      O19504   6.819   3.810   5.268
 6421WAT     H119505   6.853   3.763   5.187
 6421WAT     H219506   6.720   3.801   5.273
 6422WAT      O19507   1.317   8.768   5.781
 6422WAT     H119508   1.401   8.720   5.755
 6422WAT     H219509   1.247   8.754   5.711
 6423WAT      O19510   2.724   8.870   4.529
 6423WAT     H119511   2.791   8.877   4.455
 6423WAT     H219512   2.636   8.843   4.491
 6424WAT      O19513   9.635   1.907   0.614
 6424WAT     H119514   9.569   1.899   0.539
 6424WAT     H219515   9.636   1.822   0.666
 6425WAT      O19516   0.209   6.656   3.995
 6425WAT     H119517   0.219   6.703   4.083
 6425WAT     H219518   0.112   6.639   3.978
 6426WAT      O19519   3.967   6.451   1.817
 6426WAT     H119520   3.934   6.421   1.727
 6426WAT     H219521   4.062   6.422   1.830
 6427WAT      O19522   3.449   9.286   9.568
 6427WAT     H119523   3.456   9.249   9.476
 6427WAT     H219524   3.419   9.382   9.563
 6428WAT      O19525   2.861   3.339   2.211
 6428WAT     H119526   2.863   3.241   2.193
 6428WAT     H219527   2.812   3.356   2.297
 6429WAT      O19528   6.802   8.568   7.748
 6429WAT     H119529   6.806   8.516   7.663
 6429WAT     H219530   6.735   8.526   7.809
 6430WAT      O19531   4.303   2.107   6.360
 6430WAT     H119532   4.383   2.056   6.328
 6430WAT     H219533   4.254   2.146   6.282
 6431WAT      O19534   9.613   1.861   6.175
 6431WAT     H119535   9.681   1.893   6.240
 6431WAT     H219536   9.569   1.939   6.131
 6432WAT      O19537   4.967   4.737   2.028
 6432WAT     H119538   5.009   4.719   2.117
 6432WAT     H219539   4.972   4.834   2.008
 6433WAT      O19540   0.844   1.098   8.084
 6433WAT     H119541   0.847   1.197   8.077
 6433WAT     H219542   0.924   1.058   8.039
 6434WAT      O19543   2.425   4.257   9.334
 6434WAT     H119544   2.439   4.355   9.343
 6434WAT     H219545   2.397   4.219   9.422
 6435WAT      O19546   2.463   1.757   3.745
 6435WAT     H119547   2.539   1.740   3.682
 6435WAT     H219548   2.413   1.838   3.714
 6436WAT      O19549   4.264   2.360   1.651
 6436WAT     H119550   4.195   2.416   1.698
 6436WAT     H219551   4.347   2.414   1.638
 6437WAT      O19552   0.086   9.344   9.495
 6437WAT     H119553   0.139   9.429   9.493
 6437WAT     H219554  -0.005   9.362   9.531
 6438WAT      O19555   9.352   2.820   8.867
 6438WAT     H119556   9.366   2.721   8.877
 6438WAT     H219557   9.439   2.867   8.884
 6439WAT      O19558   0.755   1.721   0.088
 6439WAT     H119559   0.826   1.664   0.046
 6439WAT     H219560   0.797   1.786   0.151
 6440WAT      O19561   4.797   5.490   1.930
 6440WAT     H119562   4.721   5.528   1.983
 6440WAT     H219563   4.762   5.420   1.868
 6441WAT      O19564   2.338   3.279   4.934
 6441WAT     H119565   2.378   3.220   4.865
 6441WAT     H219566   2.395   3.360   4.947
 6442WAT      O19567   4.851   8.282   9.167
 6442WAT     H119568   4.769   8.338   9.180
 6442WAT     H219569   4.931   8.332   9.200
 6443WAT      O19570   2.002   0.937   0.175
 6443WAT     H119571   2.017   0.910   0.079
 6443WAT     H219572   2.057   1.017   0.196
 6444WAT      O19573   4.417   7.980   1.532
 6444WAT     H119574   4.402   8.066   1.582
 6444WAT     H219575   4.420   7.999   1.434
 6445WAT      O19576   2.769   1.242   7.727
 6445WAT     H119577   2.724   1.196   7.651
 6445WAT     H219578   2.817   1.175   7.783
 6446WAT      O19579   5.707   0.766   1.783
 6446WAT     H119580   5.651   0.847   1.797
 6446WAT     H219581   5.650   0.691   1.750
 6447WAT      O19582   3.134   5.712   5.788
 6447WAT     H119583   3.083   5.794   5.758
 6447WAT     H219584   3.089   5.631   5.751
 6448WAT      O19585   6.459   2.465   6.865
 6448WAT     H119586   6.492   2.374   6.891
 6448WAT     H219587   6.408   2.505   6.942
 6449WAT      O19588   8.170   8.066   3.197
 6449WAT     H119589   8.172   8.163   3.220
 6449WAT     H219590   8.227   8.015   3.261
 6450WAT      O19591   6.291   9.099   4.152
 6450WAT     H119592   6.206   9.103   4.101
 6450WAT     H219593   6.271   9.076   4.247
 6451WAT      O19594   6.059   5.816   2.429
 6451WAT     H119595   6.132   5.754   2.401
 6451WAT     H219596   6.075   5.907   2.390
 6452WAT      O19597   0.837   5.038   3.303
 6452WAT     H119598   0.821   5.094   3.222
 6452WAT     H219599   0.764   4.971   3.313
 6453WAT      O19600   2.524   4.089   0.474
 6453WAT     H119601   2.606   4.098   0.529
 6453WAT     H219602   2.515   4.169   0.414
 6454WAT      O19603   9.078   3.090   5.732
 6454WAT     H119604   9.022   3.104   5.814
 6454WAT     H219605   9.076   2.994   5.707
 6455WAT      O19606   2.199   0.612   7.921
 6455WAT     H119607   2.206   0.705   7.884
 6455WAT     H219608   2.102   0.588   7.932
 6456WAT      O19609   3.060   0.828   5.581
 6456WAT     H119610   3.026   0.775   5.658
 6456WAT     H219611   3.148   0.869   5.606
 6457WAT      O19612   9.228   8.485   6.574
 6457WAT     H119613   9.234   8.542   6.657
 6457WAT     H219614   9.283   8.403   6.587
 6458WAT      O19615   4.576   3.464   3.250
 6458WAT     H119616   4.589   3.563   3.240
 6458WAT     H219617   4.563   3.422   3.160
 6459WAT      O19618   0.050   3.303   6.265
 6459WAT     H119619   0.065   3.372   6.194
 6459WAT     H219620  -0.041   3.315   6.305
 6460WAT      O19621   3.326   7.319   4.426
 6460WAT     H119622   3.384   7.257   4.373
 6460WAT     H219623   3.278   7.268   4.497
 6461WAT      O19624   3.963   2.778   4.298
 6461WAT     H119625   3.957   2.722   4.216
 6461WAT     H219626   4.060   2.797   4.317
 6462WAT      O19627   4.848   7.003   1.421
 6462WAT     H119628   4.919   6.981   1.488
 6462WAT     H219629   4.763   6.958   1.446
 6463WAT      O19630   6.249   0.749   0.320
 6463WAT     H119631   6.185   0.696   0.264
 6463WAT     H219632   6.199   0.809   0.381
 6464WAT      O19633   3.886   7.161   3.442
 6464WAT     H119634   3.956   7.112   3.493
 6464WAT     H219635   3.923   7.191   3.354
 6465WAT      O19636   5.674   8.386   2.077
 6465WAT     H119637   5.605   8.433   2.132
 6465WAT     H219638   5.637   8.299   2.046
 6466WAT      O19639   6.043   5.659   0.849
 6466WAT     H119640   6.080   5.700   0.766
 6466WAT     H219641   6.096   5.578   0.873
 6467WAT      O19642   6.549   0.386   4.412
 6467WAT     H119643   6.644   0.359   4.430
 6467WAT     H219644   6.488   0.315   4.447
 6468WAT      O19645   6.413   9.694   3.351
 6468WAT     H119646   6.507   9.661   3.358
 6468WAT     H219647   6.351   9.618   3.333
 6469WAT      O19648   9.368   8.380   5.938
 6469WAT     H119649   9.416   8.465   5.920
 6469WAT     H219650   9.396   8.310   5.872
 6470WAT      O19651   0.937   8.549   0.094
 6470WAT     H119652   1.029   8.552   0.133
 6470WAT     H219653   0.910   8.453   0.082
 6471WAT      O19654   0.067   6.664   2.793
 6471WAT     H119655   0.166   6.648   2.802
 6471WAT     H219656   0.034   6.713   2.874
 6472WAT      O19657   0.142   9.757   0.934
 6472WAT     H119658   0.164   9.851   0.909
 6472WAT     H219659   0.100   9.710   0.856
 6473WAT      O19660   3.967   3.568   3.205
 6473WAT     H119661   4.066   3.557   3.200
 6473WAT     H219662   3.943   3.615   3.289
 6474WAT      O19663   3.213   1.698   5.898
 6474WAT     H119664   3.236   1.608   5.861
 6474WAT     H219665   3.114   1.704   5.912
 6475WAT      O19666   8.917   9.743   1.100
 6475WAT     H119667   8.914   9.683   1.179
 6475WAT     H219668   8.917   9.689   1.016
 6476WAT      O19669   2.928   0.337   4.036
 6476WAT     H119670   2.835   0.371   4.051
 6476WAT     H219671   2.925   0.253   3.983
 6477WAT      O19672   5.986   1.286   4.264
 6477WAT     H119673   5.994   1.314   4.169
 6477WAT     H219674   5.899   1.318   4.302
 6478WAT      O19675   7.707   4.409   9.322
 6478WAT     H119676   7.644   4.465   9.375
 6478WAT     H219677   7.785   4.465   9.293
 6479WAT      O19678   2.012   6.240   5.993
 6479WAT     H119679   2.080   6.184   5.945
 6479WAT     H219680   1.942   6.181   6.032
 6480WAT      O19681   6.551   6.374   2.673
 6480WAT     H119682   6.620   6.446   2.680
 6480WAT     H219683   6.533   6.336   2.764
 6481WAT      O19684   9.247   9.776   0.851
 6481WAT     H119685   9.196   9.833   0.915
 6481WAT     H219686   9.299   9.707   0.902
 6482WAT      O19687   5.740   7.493   7.182
 6482WAT     H119688   5.768   7.399   7.199
 6482WAT     H219689   5.813   7.541   7.133
 6483WAT      O19690   3.786   5.967   8.967
 6483WAT     H119691   3.724   6.046   8.959
 6483WAT     H219692   3.775   5.908   8.887
 6484WAT      O19693   0.777   3.301   6.570
 6484WAT     H119694   0.852   3.355   6.532
 6484WAT     H219695   0.811   3.247   6.648
 6485WAT      O19696   2.485   2.202   1.458
 6485WAT     H119697   2.513   2.278   1.517
 6485WAT     H219698   2.522   2.215   1.366
 6486WAT      O19699   1.433   0.657   2.919
 6486WAT     H119700   1.512   0.615   2.873
 6486WAT     H219701   1.463   0.739   2.967
 6487WAT      O19702   3.222   1.583   0.064
 6487WAT     H119703   3.158   1.575   0.141
 6487WAT     H219704   3.184   1.537  -0.016
 6488WAT      O19705   1.291   9.814   2.680
 6488WAT     H119706   1.311   9.720   2.653
 6488WAT     H219707   1.224   9.814   2.754
 6489WAT      O19708   2.059   9.571   6.620
 6489WAT     H119709   2.057   9.669   6.600
 6489WAT     H219710   1.966   9.534   6.613
 6490WAT      O19711   2.371   0.624   5.043
 6490WAT     H119712   2.395   0.582   5.131
 6490WAT     H219713   2.443   0.688   5.016
 6491WAT      O19714   9.370   7.515   7.493
 6491WAT     H119715   9.373   7.418   7.471
 6491WAT     H219716   9.461   7.554   7.486
 6492WAT      O19717   4.830   1.176   1.870
 6492WAT     H119718   4.739   1.179   1.912
 6492WAT     H219719   4.820   1.182   1.770
 6493WAT      O19720   0.593   8.613   8.123
 6493WAT     H119721   0.637   8.675   8.058
 6493WAT     H219722   0.594   8.654   8.215
 6494WAT      O19723   4.349   7.053   6.133
 6494WAT     H119724   4.432   7.043   6.077
 6494WAT     H219725   4.272   7.079   6.075
 6495WAT      O19726   3.328   7.734   1.126
 6495WAT     H119727   3.370   7.817   1.161
 6495WAT     H219728   3.318   7.740   1.027
 6496WAT      O19729   0.296   2.793   2.341
 6496WAT     H119730   0.269   2.709   2.294
 6496WAT     H219731   0.318   2.863   2.273
 6497WAT      O19732   7.715   4.687   2.742
 6497WAT     H119733   7.698   4.773   2.790
 6497WAT     H219734   7.777   4.630   2.797
 6498WAT      O19735   0.633   2.711   2.396
 6498WAT     H119736   0.572   2.725   2.474
 6498WAT     H219737   0.621   2.786   2.331
 6499WAT      O19738   0.980   8.162   8.189
 6499WAT     H119739   0.892   8.122   8.214
 6499WAT     H219740   1.002   8.138   8.094
 6500WAT      O19741   8.476   4.482   3.224
 6500WAT     H119742   8.439   4.414   3.161
 6500WAT     H219743   8.410   4.501   3.296
 6501WAT      O19744   4.347   8.444   3.306
 6501WAT     H119745   4.442   8.410   3.308
 6501WAT     H219746   4.346   8.542   3.325
 6502WAT      O19747   1.960   6.330   2.685
 6502WAT     H119748   1.945   6.426   2.708
 6502WAT     H219749   1.981   6.322   2.588
 6503WAT      O19750   3.230   8.080   3.447
 6503WAT     H119751   3.301   8.150   3.442
 6503WAT     H219752   3.223   8.046   3.541
 6504WAT      O19753   9.028   4.607   1.604
 6504WAT     H119754   9.124   4.583   1.620
 6504WAT     H219755   8.970   4.555   1.667
 6505WAT      O19756   6.872   3.286   3.644
 6505WAT     H119757   6.886   3.365   3.704
 6505WAT     H219758   6.775   3.279   3.620
 6506WAT      O19759   1.483   6.954   8.498
 6506WAT     H119760   1.391   6.913   8.501
 6506WAT     H219761   1.480   7.038   8.444
 6507WAT      O19762   2.119   6.516   1.812
 6507WAT     H119763   2.074   6.524   1.723
 6507WAT     H219764   2.165   6.428   1.819
 6508WAT      O19765   2.910   3.210   2.564
 6508WAT     H119766   2.812   3.209   2.541
 6508WAT     H219767   2.935   3.300   2.600
 6509WAT      O19768   9.367   8.674   2.148
 6509WAT     H119769   9.380   8.698   2.244
 6509WAT     H219770   9.275   8.635   2.136
 6510WAT      O19771   3.779   3.994   9.670
 6510WAT     H119772   3.877   4.001   9.690
 6510WAT     H219773   3.758   4.042   9.585
 6511WAT      O19774   4.296   5.737   1.585
 6511WAT     H119775   4.200   5.743   1.559
 6511WAT     H219776   4.349   5.701   1.509
 6512WAT      O19777   6.215   4.343   4.427
 6512WAT     H119778   6.266   4.277   4.482
 6512WAT     H219779   6.121   4.348   4.461
 6513WAT      O19780   4.149   4.597   4.229
 6513WAT     H119781   4.069   4.638   4.274
 6513WAT     H219782   4.229   4.653   4.248
 6514WAT      O19783   5.816   8.504   0.214
 6514WAT     H119784   5.859   8.554   0.289
 6514WAT     H219785   5.821   8.560   0.130
 6515WAT      O19786   3.226   7.706   3.623
 6515WAT     H119787   3.240   7.789   3.677
 6515WAT     H219788   3.158   7.723   3.552
 6516WAT      O19789   8.763   3.444   6.399
 6516WAT     H119790   8.803   3.465   6.310
 6516WAT     H219791   8.756   3.528   6.453
 6517WAT      O19792   1.983   7.036   3.343
 6517WAT     H119793   1.959   7.098   3.269
 6517WAT     H219794   1.980   6.942   3.310
 6518WAT      O19795   7.302   5.788   4.445
 6518WAT     H119796   7.348   5.877   4.435
 6518WAT     H219797   7.344   5.723   4.382
 6519WAT      O19798   0.028   9.607   9.125
 6519WAT     H119799  -0.013   9.517   9.142
 6519WAT     H219800  -0.014   9.675   9.184
 6520WAT      O19801   7.216   4.446   5.682
 6520WAT     H119802   7.161   4.371   5.645
 6520WAT     H219803   7.169   4.533   5.668
 6521WAT      O19804   1.600   4.114   5.796
 6521WAT     H119805   1.681   4.126   5.738
 6521WAT     H219806   1.621   4.147   5.888
 6522WAT      O19807   6.401   7.530   0.773
 6522WAT     H119808   6.369   7.605   0.714
 6522WAT     H219809   6.417   7.449   0.716
 6523WAT      O19810   1.709   9.148   5.216
 6523WAT     H119811   1.688   9.238   5.256
 6523WAT     H219812   1.778   9.159   5.145
 6524WAT      O19813   7.314   3.176   9.692
 6524WAT     H119814   7.295   3.270   9.665
 6524WAT     H219815   7.413   3.162   9.696
 6525WAT      O19816   0.796   0.833   6.764
 6525WAT     H119817   0.738   0.795   6.836
 6525WAT     H219818   0.753   0.817   6.675
 6526WAT      O19819   8.817   3.021   0.442
 6526WAT     H119820   8.741   3.023   0.507
 6526WAT     H219821   8.835   3.113   0.409
 6527WAT      O19822   9.108   0.253   4.071
 6527WAT     H119823   9.050   0.256   4.152
 6527WAT     H219824   9.173   0.329   4.074
 6528WAT      O19825   4.981   2.931   7.050
 6528WAT     H119826   4.984   2.834   7.075
 6528WAT     H219827   4.887   2.965   7.057
 6529WAT      O19828   2.868   5.830   0.941
 6529WAT     H119829   2.811   5.842   1.022
 6529WAT     H219830   2.866   5.913   0.886
 6530WAT      O19831   9.848   9.690   1.689
 6530WAT     H119832   9.887   9.598   1.696
 6530WAT     H219833   9.881   9.746   1.766
 6531WAT      O19834   4.916   3.700   1.441
 6531WAT     H119835   4.840   3.635   1.444
 6531WAT     H219836   4.988   3.670   1.503
 6532WAT      O19837   7.574   5.904   3.478
 6532WAT     H119838   7.543   5.870   3.567
 6532WAT     H219839   7.545   5.840   3.407
 6533WAT      O19840   7.860   0.584   1.419
 6533WAT     H119841   7.840   0.628   1.331
 6533WAT     H219842   7.944   0.623   1.457
 6534WAT      O19843   0.575   9.527   1.853
 6534WAT     H119844   0.482   9.520   1.817
 6534WAT     H219845   0.573   9.520   1.952
 6535WAT      O19846   3.024   2.610   6.123
 6535WAT     H119847   3.017   2.685   6.189
 6535WAT     H219848   2.972   2.633   6.041
 6536WAT      O19849   7.311   0.160   6.434
 6536WAT     H119850   7.237   0.224   6.413
 6536WAT     H219851   7.399   0.201   6.406
 6537WAT      O19852   5.355   9.434   4.308
 6537WAT     H119853   5.424   9.501   4.333
 6537WAT     H219854   5.360   9.356   4.372
 6538WAT      O19855   3.702   9.030   0.216
 6538WAT     H119856   3.623   9.087   0.240
 6538WAT     H219857   3.682   8.935   0.237
 6539WAT      O19858   2.463   6.884   1.608
 6539WAT     H119859   2.430   6.895   1.702
 6539WAT     H219860   2.403   6.822   1.558
 6540WAT      O19861   7.937   0.552   1.837
 6540WAT     H119862   7.882   0.635   1.828
 6540WAT     H219863   8.008   0.566   1.906
 6541WAT      O19864   8.877   1.699   4.952
 6541WAT     H119865   8.930   1.783   4.947
 6541WAT     H219866   8.935   1.621   4.928
 6542WAT      O19867   8.399   0.752   9.532
 6542WAT     H119868   8.442   0.758   9.622
 6542WAT     H219869   8.449   0.687   9.475
 6543WAT      O19870   8.457   1.286   8.817
 6543WAT     H119871   8.529   1.227   8.782
 6543WAT     H219872   8.457   1.282   8.917
 6544WAT      O19873   3.079   4.129   3.317
 6544WAT     H119874   3.167   4.114   3.360
 6544WAT     H219875   3.086   4.109   3.219
 6545WAT      O19876   2.705   5.253   8.242
 6545WAT     H119877   2.791   5.203   8.254
 6545WAT     H219878   2.661   5.224   8.158
 6546WAT      O19879   6.349   6.934   7.336
 6546WAT     H119880   6.437   6.961   7.375
 6546WAT     H219881   6.288   6.905   7.411
 6547WAT      O19882   7.653   4.893   1.926
 6547WAT     H119883   7.620   4.808   1.886
 6547WAT     H219884   7.652   4.886   2.026
 6548WAT      O19885   0.073   9.253   1.554
 6548WAT     H119886  -0.004   9.190   1.549
 6548WAT     H219887   0.158   9.202   1.542
 6549WAT      O19888   8.400   2.705   4.786
 6549WAT     H119889   8.307   2.681   4.756
 6549WAT     H219890   8.417   2.801   4.765
 6550WAT      O19891   2.892   5.953   0.498
 6550WAT     H119892   2.879   5.921   0.404
 6550WAT     H219893   2.803   5.960   0.544
 6551WAT      O19894   2.846   7.878   0.105
 6551WAT     H119895   2.838   7.931   0.189
 6551WAT     H219896   2.797   7.925   0.031
 6552WAT      O19897   0.226   6.661   8.435
 6552WAT     H119898   0.138   6.672   8.387
 6552WAT     H219899   0.227   6.718   8.517
 6553WAT      O19900   9.598   2.338   5.858
 6553WAT     H119901   9.580   2.393   5.939
 6553WAT     H219902   9.617   2.244   5.886
 6554WAT      O19903   7.129   9.222   4.748
 6554WAT     H119904   7.111   9.320   4.734
 6554WAT     H219905   7.183   9.209   4.831
 6555WAT      O19906   2.926   4.566   0.809
 6555WAT     H119907   2.829   4.585   0.820
 6555WAT     H219908   2.971   4.568   0.898
 6556WAT      O19909   2.858   0.082   2.952
 6556WAT     H119910   2.904   0.054   2.868
 6556WAT     H219911   2.766   0.043   2.955
 6557WAT      O19912   7.302   8.398   5.502
 6557WAT     H119913   7.400   8.386   5.515
 6557WAT     H219914   7.281   8.496   5.490
 6558WAT      O19915   2.383   2.932   5.014
 6558WAT     H119916   2.285   2.926   4.994
 6558WAT     H219917   2.435   2.907   4.932
 6559WAT      O19918   5.284   7.437   0.300
 6559WAT     H119919   5.337   7.414   0.218
 6559WAT     H219920   5.308   7.528   0.332
 6560WAT      O19921   2.064   5.590   2.339
 6560WAT     H119922   2.075   5.524   2.413
 6560WAT     H219923   2.153   5.628   2.315
 6561WAT      O19924   8.868   7.811   6.585
 6561WAT     H119925   8.807   7.865   6.642
 6561WAT     H219926   8.837   7.716   6.583
 6562WAT      O19927   7.188   6.779   3.213
 6562WAT     H119928   7.116   6.774   3.282
 6562WAT     H219929   7.262   6.716   3.236
 6563WAT      O19930   6.937   2.725   0.397
 6563WAT     H119931   6.851   2.700   0.354
 6563WAT     H219932   6.933   2.820   0.427
 6564WAT      O19933   1.851   9.141   0.595
 6564WAT     H119934   1.929   9.109   0.541
 6564WAT     H219935   1.774   9.078   0.583
 6565WAT      O19936   4.530   8.819   2.891
 6565WAT     H119937   4.486   8.896   2.936
 6565WAT     H219938   4.470   8.783   2.820
 6566WAT      O19939   8.771   5.998   2.834
 6566WAT     H119940   8.776   6.020   2.736
 6566WAT     H219941   8.859   5.964   2.866
 6567WAT      O19942   2.577   5.152   8.905
 6567WAT     H119943   2.486   5.109   8.899
 6567WAT     H219944   2.626   5.113   8.983
 6568WAT      O19945   4.891   7.152   2.335
 6568WAT     H119946   4.839   7.075   2.372
 6568WAT     H219947   4.971   7.118   2.287
 6569WAT      O19948   5.924   8.562   5.227
 6569WAT     H119949   6.005   8.618   5.244
 6569WAT     H219950   5.951   8.467   5.212
 6570WAT      O19951   9.194   1.257   1.731
 6570WAT     H119952   9.269   1.319   1.753
 6570WAT     H219953   9.110   1.309   1.718
 6571WAT      O19954   8.108   7.895   7.113
 6571WAT     H119955   8.180   7.830   7.140
 6571WAT     H219956   8.113   7.975   7.172
 6572WAT      O19957   3.729   0.724   6.679
 6572WAT     H119958   3.772   0.648   6.727
 6572WAT     H219959   3.696   0.791   6.745
 6573WAT      O19960   2.842   9.118   7.086
 6573WAT     H119961   2.871   9.140   7.180
 6573WAT     H219962   2.743   9.108   7.083
 6574WAT      O19963   2.003   7.615   9.587
 6574WAT     H119964   1.929   7.610   9.520
 6574WAT     H219965   2.071   7.681   9.557
 6575WAT      O19966   9.008   6.130   9.866
 6575WAT     H119967   8.925   6.129   9.811
 6575WAT     H219968   9.015   6.217   9.915
 6576WAT      O19969   6.684   9.349   9.774
 6576WAT     H119970   6.741   9.337   9.693
 6576WAT     H219971   6.741   9.345   9.856
 6577WAT      O19972   7.079   8.436   6.174
 6577WAT     H119973   7.059   8.530   6.199
 6577WAT     H219974   7.035   8.414   6.087
 6578WAT      O19975   9.870   3.790   5.488
 6578WAT     H119976   9.861   3.792   5.388
 6578WAT     H219977   9.803   3.727   5.526
 6579WAT      O19978   3.146   1.744   9.287
 6579WAT     H119979   3.238   1.705   9.297
 6579WAT     H219980   3.149   1.822   9.225
 6580WAT      O19981   3.905   4.605   0.154
 6580WAT     H119982   3.889   4.625   0.251
 6580WAT     H219983   3.894   4.507   0.138
 6581WAT      O19984   1.396   0.482   6.302
 6581WAT     H119985   1.355   0.561   6.255
 6581WAT     H219986   1.408   0.407   6.236
 6582WAT      O19987   1.209   2.093   1.914
 6582WAT     H119988   1.177   2.037   1.838
 6582WAT     H219989   1.304   2.067   1.936
 6583WAT      O19990   0.508   7.323   4.626
 6583WAT     H119991   0.587   7.380   4.605
 6583WAT     H219992   0.513   7.294   4.721
 6584WAT      O19993   1.702   4.391   9.855
 6584WAT     H119994   1.634   4.375   9.926
 6584WAT     H219995   1.768   4.315   9.853
 6585WAT      O19996   8.600   4.785   8.408
 6585WAT     H119997   8.696   4.787   8.434
 6585WAT     H219998   8.578   4.866   8.353
 6586WAT      O19999   7.857   7.369   3.978
 6586WAT     H120000   7.800   7.341   3.901
 6586WAT     H220001   7.954   7.361   3.953
 6587WAT      O20002   7.598   9.681   7.513
 6587WAT     H120003   7.555   9.687   7.423
 6587WAT     H220004   7.689   9.723   7.509
 6588WAT      O20005   2.128   3.431   5.768
 6588WAT     H120006   2.077   3.459   5.686
 6588WAT     H220007   2.215   3.481   5.772
 6589WAT      O20008   2.822   4.832   4.306
 6589WAT     H120009   2.748   4.879   4.257
 6589WAT     H220010   2.867   4.897   4.368
 6590WAT      O20011   5.729   0.697   9.075
 6590WAT     H120012   5.667   0.702   9.154
 6590WAT     H220013   5.795   0.772   9.079
 6591WAT      O20014   2.828   7.200   0.264
 6591WAT     H120015   2.778   7.155   0.339
 6591WAT     H220016   2.762   7.233   0.197
 6592WAT      O20017   0.594   6.979   6.781
 6592WAT     H120018   0.590   7.031   6.696
 6592WAT     H220019   0.520   7.008   6.842
 6593WAT      O20020   8.390   8.225   6.374
 6593WAT     H120021   8.378   8.175   6.460
 6593WAT     H220022   8.389   8.323   6.392
 6594WAT      O20023   5.366   3.969   9.502
 6594WAT     H120024   5.282   3.915   9.496
 6594WAT     H220025   5.390   4.004   9.412
 6595WAT      O20026   4.205   8.443   6.320
 6595WAT     H120027   4.116   8.473   6.357
 6595WAT     H220028   4.251   8.522   6.279
 6596WAT      O20029   4.526   5.360   8.311
 6596WAT     H120030   4.539   5.365   8.212
 6596WAT     H220031   4.486   5.272   8.335
 6597WAT      O20032   9.835   4.821   1.772
 6597WAT     H120033   9.750   4.867   1.799
 6597WAT     H220034   9.891   4.884   1.719
 6598WAT      O20035   9.384   3.370   8.873
 6598WAT     H120036   9.311   3.409   8.929
 6598WAT     H220037   9.344   3.327   8.792
 6599WAT      O20038   2.333   4.283   8.875
 6599WAT     H120039   2.295   4.235   8.954
 6599WAT     H220040   2.259   4.308   8.813
 6600WAT      O20041   2.520   6.304   0.781
 6600WAT     H120042   2.591   6.236   0.799
 6600WAT     H220043   2.431   6.259   0.778
 6601WAT      O20044   6.048   7.938   2.569
 6601WAT     H120045   6.002   7.882   2.501
 6601WAT     H220046   6.081   8.022   2.526
 6602WAT      O20047   7.070   8.481   0.573
 6602WAT     H120048   7.120   8.527   0.647
 6602WAT     H220049   6.973   8.479   0.595
 6603WAT      O20050   1.016   4.804   5.134
 6603WAT     H120051   1.082   4.763   5.198
 6603WAT     H220052   0.942   4.739   5.117
 6604WAT      O20053   9.245   7.995   8.714
 6604WAT     H120054   9.319   8.060   8.699
 6604WAT     H220055   9.205   8.011   8.804
 6605WAT      O20056   2.255   4.166   8.604
 6605WAT     H120057   2.191   4.233   8.642
 6605WAT     H220058   2.324   4.143   8.673
 6606WAT      O20059   6.052   9.657   1.114
 6606WAT     H120060   6.006   9.746   1.124
 6606WAT     H220061   6.050   9.629   1.018
 6607WAT      O20062   3.876   9.201   4.673
 6607WAT     H120063   3.827   9.117   4.695
 6607WAT     H220064   3.926   9.233   4.753
 6608WAT      O20065   2.589   5.351   7.104
 6608WAT     H120066   2.688   5.341   7.118
 6608WAT     H220067   2.543   5.350   7.192
 6609WAT      O20068   0.022   8.078   0.045
 6609WAT     H120069  -0.025   8.118   0.123
 6609WAT     H220070   0.052   7.985   0.067
 6610WAT      O20071   7.204   8.955   7.598
 6610WAT     H120072   7.192   8.969   7.696
 6610WAT     H220073   7.199   9.044   7.551
 6611WAT      O20074   6.593   1.025   0.050
 6611WAT     H120075   6.686   1.057   0.064
 6611WAT     H220076   6.561   0.980   0.133
 6612WAT      O20077   9.657   2.887   1.817
 6612WAT     H120078   9.641   2.849   1.726
 6612WAT     H220079   9.727   2.833   1.864
 6613WAT      O20080   3.750   0.641   5.893
 6613WAT     H120081   3.743   0.741   5.891
 6613WAT     H220082   3.843   0.614   5.868
 6614WAT      O20083   1.137   7.945   0.239
 6614WAT     H120084   1.214   7.889   0.268
 6614WAT     H220085   1.169   8.038   0.220
 6615WAT      O20086   4.455   7.063   2.961
 6615WAT     H120087   4.383   7.131   2.947
 6615WAT     H220088   4.516   7.094   3.034
 6616WAT      O20089   0.668   4.226   1.303
 6616WAT     H120090   0.649   4.298   1.236
 6616WAT     H220091   0.586   4.206   1.356
 6617WAT      O20092   2.163   8.934   4.792
 6617WAT     H120093   2.079   8.880   4.785
 6617WAT     H220094   2.139   9.031   4.803
 6618WAT      O20095   8.695   0.110   4.935
 6618WAT     H120096   8.677   0.012   4.923
 6618WAT     H220097   8.627   0.163   4.884
 6619WAT      O20098   7.306   6.215   7.624
 6619WAT     H120099   7.322   6.179   7.533
 6619WAT     H220100   7.392   6.216   7.675
 6620WAT      O20101   7.075   3.328   6.208
 6620WAT     H120102   7.076   3.235   6.170
 6620WAT     H220103   7.166   3.351   6.242
 6621WAT      O20104   6.108   7.573   5.209
 6621WAT     H120105   6.076   7.583   5.115
 6621WAT     H220106   6.124   7.477   5.229
 6622WAT      O20107   5.324   9.512   7.850
 6622WAT     H120108   5.348   9.597   7.803
 6622WAT     H220109   5.401   9.448   7.843
 6623WAT      O20110   0.466   4.002   3.802
 6623WAT     H120111   0.548   4.001   3.859
 6623WAT     H220112   0.412   4.084   3.823
 6624WAT      O20113   1.858   7.043   9.384
 6624WAT     H120114   1.938   7.051   9.443
 6624WAT     H220115   1.783   7.098   9.422
 6625WAT      O20116   6.866   0.544   1.501
 6625WAT     H120117   6.842   0.518   1.595
 6625WAT     H220118   6.963   0.568   1.497
 6626WAT      O20119   8.936   6.581   7.725
 6626WAT     H120120   8.955   6.620   7.815
 6626WAT     H220121   8.895   6.491   7.735
 6627WAT      O20122   6.141   8.966   1.907
 6627WAT     H120123   6.153   8.876   1.866
 6627WAT     H220124   6.089   8.957   1.992
 6628WAT      O20125   5.600   4.780   1.137
 6628WAT     H120126   5.529   4.710   1.129
 6628WAT     H220127   5.562   4.861   1.181
 6629WAT      O20128   0.131   7.839   0.833
 6629WAT     H120129   0.181   7.875   0.912
 6629WAT     H220130   0.041   7.807   0.863
 6630WAT      O20131   9.091   8.264   2.216
 6630WAT     H120132   9.154   8.267   2.139
 6630WAT     H220133   9.013   8.206   2.193
 6631WAT      O20134   7.061   0.324   1.226
 6631WAT     H120135   7.141   0.382   1.242
 6631WAT     H220136   7.000   0.368   1.161
 6632WAT      O20137   6.358   8.737   5.526
 6632WAT     H120138   6.406   8.649   5.532
 6632WAT     H220139   6.330   8.766   5.617
 6633WAT      O20140   4.982   1.493   2.830
 6633WAT     H120141   4.960   1.539   2.915
 6633WAT     H220142   5.081   1.499   2.813
 6634WAT      O20143   4.759   7.979   9.780
 6634WAT     H120144   4.742   8.008   9.686
 6634WAT     H220145   4.822   7.900   9.780
 6635WAT      O20146   2.790   5.513   3.152
 6635WAT     H120147   2.695   5.510   3.183
 6635WAT     H220148   2.833   5.597   3.184
 6636WAT      O20149   0.304   1.493   2.200
 6636WAT     H120150   0.209   1.471   2.177
 6636WAT     H220151   0.332   1.574   2.148
 6637WAT      O20152   6.272   7.088   4.522
 6637WAT     H120153   6.266   6.997   4.481
 6637WAT     H220154   6.363   7.102   4.559
 6638WAT      O20155   1.209   8.043   7.081
 6638WAT     H120156   1.188   8.005   6.991
 6638WAT     H220157   1.205   8.143   7.077
 6639WAT      O20158   5.543   9.660   4.313
 6639WAT     H120159   5.531   9.686   4.217
 6639WAT     H220160   5.621   9.598   4.321
 6640WAT      O20161   5.428   3.294   8.117
 6640WAT     H120162   5.400   3.273   8.023
 6640WAT     H220163   5.438   3.393   8.127
 6641WAT      O20164   0.256   8.492   7.103
 6641WAT     H120165   0.230   8.425   7.033
 6641WAT     H220166   0.212   8.580   7.083
 6642WAT      O20167   1.526   5.525   1.774
 6642WAT     H120168   1.597   5.493   1.712
 6642WAT     H220169   1.527   5.469   1.858
 6643WAT      O20170   4.416   0.402   2.710
 6643WAT     H120171   4.330   0.363   2.677
 6643WAT     H220172   4.492   0.361   2.661
 6644WAT      O20173   2.013   1.779   5.124
 6644WAT     H120174   2.034   1.735   5.037
 6644WAT     H220175   2.081   1.850   5.143
 6645WAT      O20176   6.530   4.615   6.064
 6645WAT     H120177   6.552   4.678   6.139
 6645WAT     H220178   6.591   4.536   6.069
 6646WAT      O20179   7.997   2.210   0.044
 6646WAT     H120180   8.083   2.212   0.095
 6646WAT     H220181   7.927   2.262   0.094
 6647WAT      O20182   1.764   8.642   9.535
 6647WAT     H120183   1.771   8.706   9.611
 6647WAT     H220184   1.733   8.691   9.453
 6648WAT      O20185   0.393   3.774   3.283
 6648WAT     H120186   0.485   3.734   3.283
 6648WAT     H220187   0.398   3.868   3.315
 6649WAT      O20188   3.146   7.701   4.335
 6649WAT     H120189   3.112   7.783   4.290
 6649WAT     H220190   3.069   7.650   4.374
 6650WAT      O20191   1.120   5.973   3.510
 6650WAT     H120192   1.183   6.043   3.543
 6650WAT     H220193   1.111   5.901   3.579
 6651WAT      O20194   3.611   8.858   6.101
 6651WAT     H120195   3.576   8.856   6.007
 6651WAT     H220196   3.605   8.766   6.141
 6652WAT      O20197   2.466   4.048   1.719
 6652WAT     H120198   2.505   4.011   1.634
 6652WAT     H220199   2.470   4.148   1.716
 6653WAT      O20200   2.729   9.747   7.767
 6653WAT     H120201   2.632   9.731   7.751
 6653WAT     H220202   2.771   9.666   7.807
 6654WAT      O20203   3.661   1.440   8.891
 6654WAT     H120204   3.589   1.457   8.958
 6654WAT     H220205   3.677   1.523   8.837
 6655WAT      O20206   2.266   3.643   6.157
 6655WAT     H120207   2.313   3.610   6.074
 6655WAT     H220208   2.177   3.599   6.164
 6656WAT      O20209   8.628   0.566   2.755
 6656WAT     H120210   8.681   0.650   2.750
 6656WAT     H220211   8.531   0.587   2.742
 6657WAT      O20212   7.539   8.074   1.248
 6657WAT     H120213   7.615   8.116   1.198
 6657WAT     H220214   7.463   8.138   1.253
 6658WAT      O20215   7.303   9.026   2.680
 6658WAT     H120216   7.213   9.043   2.720
 6658WAT     H220217   7.337   9.108   2.635
 6659WAT      O20218   7.840   7.266   1.261
 6659WAT     H120219   7.908   7.235   1.196
 6659WAT     H220220   7.879   7.264   1.353
 6660WAT      O20221   2.510   5.489   4.690
 6660WAT     H120222   2.432   5.548   4.668
 6660WAT     H220223   2.505   5.463   4.787
 6661WAT      O20224   0.337   6.121   2.844
 6661WAT     H120225   0.299   6.141   2.753
 6661WAT     H220226   0.432   6.095   2.835
 6662WAT      O20227   9.304   3.417   0.576
 6662WAT     H120228   9.376   3.415   0.507
 6662WAT     H220229   9.319   3.494   0.638
 6663WAT      O20230   8.118   4.605   1.378
 6663WAT     H120231   8.123   4.686   1.436
 6663WAT     H220232   8.040   4.615   1.315
 6664WAT      O20233   6.250   2.920   5.558
 6664WAT     H120234   6.150   2.925   5.558
 6664WAT     H220235   6.287   2.999   5.509
 6665WAT      O20236   6.573   4.769   8.925
 6665WAT     H120237   6.574   4.865   8.952
 6665WAT     H220238   6.664   4.730   8.934
 6666WAT      O20239   1.774   1.078   4.948
 6666WAT     H120240   1.692   1.037   4.908
 6666WAT     H220241   1.785   1.044   5.042
 6667WAT      O20242   6.763   4.824   6.092
 6667WAT     H120243   6.754   4.924   6.084
 6667WAT     H220244   6.815   4.802   6.174
 6668WAT      O20245   7.859   6.320   1.589
 6668WAT     H120246   7.910   6.296   1.507
 6668WAT     H220247   7.777   6.372   1.564
 6669WAT      O20248   6.289   1.633   6.352
 6669WAT     H120249   6.258   1.725   6.327
 6669WAT     H220250   6.377   1.640   6.401
 6670WAT      O20251   3.462   4.803   7.262
 6670WAT     H120252   3.393   4.762   7.202
 6670WAT     H220253   3.506   4.879   7.215
 6671WAT      O20254   2.850   2.723   5.042
 6671WAT     H120255   2.842   2.664   4.961
 6671WAT     H220256   2.759   2.753   5.071
 6672WAT      O20257   0.402   7.770   4.328
 6672WAT     H120258   0.433   7.771   4.424
 6672WAT     H220259   0.475   7.808   4.270
 6673WAT      O20260   7.571   1.907   9.885
 6673WAT     H120261   7.543   1.943   9.796
 6673WAT     H220262   7.565   1.808   9.884
 6674WAT      O20263   1.402   0.442   3.631
 6674WAT     H120264   1.345   0.375   3.677
 6674WAT     H220265   1.495   0.406   3.621
 6675WAT      O20266   8.265   7.057   2.602
 6675WAT     H120267   8.321   7.136   2.626
 6675WAT     H220268   8.310   6.974   2.634
 6676WAT      O20269   0.920   6.964   3.563
 6676WAT     H120270   1.011   6.933   3.536
 6676WAT     H220271   0.901   7.052   3.519
 6677WAT      O20272   4.328   2.533   5.739
 6677WAT     H120273   4.337   2.601   5.667
 6677WAT     H220274   4.341   2.577   5.828
 6678WAT      O20275   7.048   3.855   6.842
 6678WAT     H120276   7.137   3.847   6.888
 6678WAT     H220277   7.021   3.766   6.806
 6679WAT      O20278   4.730   2.417   0.564
 6679WAT     H120279   4.713   2.334   0.510
 6679WAT     H220280   4.665   2.488   0.537
 6680WAT      O20281   3.091   1.049   9.436
 6680WAT     H120282   3.159   1.068   9.365
 6680WAT     H220283   3.007   1.016   9.395
 6681WAT      O20284   3.935   8.555   2.596
 6681WAT     H120285   3.895   8.485   2.537
 6681WAT     H220286   3.870   8.581   2.667
 6682WAT      O20287   0.828   2.403   3.038
 6682WAT     H120288   0.838   2.485   2.981
 6682WAT     H220289   0.905   2.342   3.022
 6683WAT      O20290   4.449   5.598   9.225
 6683WAT     H120291   4.496   5.653   9.294
 6683WAT     H220292   4.352   5.622   9.223
 6684WAT      O20293   3.499   3.565   9.472
 6684WAT     H120294   3.591   3.574   9.435
 6684WAT     H220295   3.502   3.573   9.572
 6685WAT      O20296   0.502   9.723   9.482
 6685WAT     H120297   0.537   9.629   9.479
 6685WAT     H220298   0.402   9.721   9.494
 6686WAT      O20299   1.212   0.375   6.467
 6686WAT     H120300   1.292   0.412   6.419
 6686WAT     H220301   1.235   0.361   6.563
 6687WAT      O20302   1.030   0.422   8.345
 6687WAT     H120303   1.045   0.439   8.247
 6687WAT     H220304   1.088   0.347   8.375
 6688WAT      O20305   5.229   1.501   1.112
 6688WAT     H120306   5.321   1.536   1.097
 6688WAT     H220307   5.167   1.578   1.129
 6689WAT      O20308   0.580   8.285   0.155
 6689WAT     H120309   0.590   8.382   0.133
 6689WAT     H220310   0.666   8.249   0.192
 6690WAT      O20311   0.617   8.165   4.210
 6690WAT     H120312   0.653   8.232   4.275
 6690WAT     H220313   0.567   8.213   4.137
 6691WAT      O20314   4.470   8.853   3.941
 6691WAT     H120315   4.550   8.795   3.954
 6691WAT     H220316   4.478   8.934   3.999
 6692WAT      O20317   7.865   0.233   5.240
 6692WAT     H120318   7.860   0.213   5.338
 6692WAT     H220319   7.952   0.201   5.204
 6693WAT      O20320   1.814   9.798   6.047
 6693WAT     H120321   1.774   9.816   5.957
 6693WAT     H220322   1.759   9.845   6.117
 6694WAT      O20323   8.767   6.567   1.292
 6694WAT     H120324   8.697   6.528   1.232
 6694WAT     H220325   8.852   6.576   1.241
 6695WAT      O20326   9.330   6.593   5.602
 6695WAT     H120327   9.272   6.524   5.645
 6695WAT     H220328   9.274   6.670   5.572
 6696WAT      O20329   0.246   1.495   5.126
 6696WAT     H120330   0.325   1.482   5.066
 6696WAT     H220331   0.258   1.579   5.178
 6697WAT      O20332   5.592   8.317   5.896
 6697WAT     H120333   5.584   8.329   5.797
 6697WAT     H220334   5.539   8.237   5.925
 6698WAT      O20335   1.773   5.514   4.260
 6698WAT     H120336   1.814   5.593   4.305
 6698WAT     H220337   1.845   5.452   4.229
 6699WAT      O20338   7.747   0.962   4.959
 6699WAT     H120339   7.825   1.021   4.982
 6699WAT     H220340   7.713   0.919   5.043
 6700WAT      O20341   4.486   3.780   1.047
 6700WAT     H120342   4.542   3.747   0.970
 6700WAT     H220343   4.437   3.703   1.088
 6701WAT      O20344   6.200   5.089   3.556
 6701WAT     H120345   6.113   5.069   3.510
 6701WAT     H220346   6.183   5.144   3.637
 6702WAT      O20347   8.049   1.288   6.879
 6702WAT     H120348   8.112   1.349   6.927
 6702WAT     H220349   8.038   1.203   6.931
 6703WAT      O20350   8.470   0.582   5.430
 6703WAT     H120351   8.459   0.632   5.344
 6703WAT     H220352   8.393   0.520   5.444
 6704WAT      O20353   5.952   6.841   2.152
 6704WAT     H120354   5.990   6.910   2.213
 6704WAT     H220355   5.852   6.841   2.160
 6705WAT      O20356   5.240   1.900   1.283
 6705WAT     H120357   5.199   1.816   1.248
 6705WAT     H220358   5.199   1.923   1.371
 6706WAT      O20359   1.003   7.141   6.664
 6706WAT     H120360   0.949   7.121   6.582
 6706WAT     H220361   0.955   7.105   6.744
 6707WAT      O20362   5.904   6.546   3.556
 6707WAT     H120363   5.936   6.634   3.590
 6707WAT     H220364   5.904   6.548   3.456
 6708WAT      O20365   6.114   4.730   2.184
 6708WAT     H120366   6.075   4.638   2.188
 6708WAT     H220367   6.047   4.793   2.145
 6709WAT      O20368   8.650   0.157   5.698
 6709WAT     H120369   8.603   0.224   5.756
 6709WAT     H220370   8.733   0.199   5.661
 6710WAT      O20371   3.102   6.726   9.000
 6710WAT     H120372   3.177   6.790   9.018
 6710WAT     H220373   3.043   6.765   8.930
 6711WAT      O20374   3.669   1.630   9.207
 6711WAT     H120375   3.671   1.723   9.169
 6711WAT     H220376   3.711   1.631   9.298
 6712WAT      O20377   2.277   7.940   5.062
 6712WAT     H120378   2.218   7.999   5.117
 6712WAT     H220379   2.268   7.845   5.093
 6713WAT      O20380   9.788   1.350   0.687
 6713WAT     H120381   9.816   1.421   0.751
 6713WAT     H220382   9.729   1.389   0.617
 6714WAT      O20383   8.959   6.967   2.900
 6714WAT     H120384   8.879   6.908   2.899
 6714WAT     H220385   8.951   7.035   2.827
 6715WAT      O20386   1.409   3.087   0.079
 6715WAT     H120387   1.440   3.004   0.034
 6715WAT     H220388   1.341   3.064   0.149
 6716WAT      O20389   7.853   6.206   5.228
 6716WAT     H120390   7.758   6.227   5.251
 6716WAT     H220391   7.904   6.291   5.218
 6717WAT      O20392   4.516   3.673   9.674
 6717WAT     H120393   4.514   3.772   9.685
 6717WAT     H220394   4.549   3.650   9.583
 6718WAT      O20395   4.139   2.113   1.537
 6718WAT     H120396   4.142   2.039   1.604
 6718WAT     H220397   4.204   2.185   1.564
 6719WAT      O20398   9.867   4.186   7.399
 6719WAT     H120399   9.812   4.129   7.460
 6719WAT     H220400   9.939   4.232   7.452
 6720WAT      O20401   3.244   2.373   5.231
 6720WAT     H120402   3.238   2.294   5.292
 6720WAT     H220403   3.225   2.456   5.283
 6721WAT      O20404   6.434   2.106   2.361
 6721WAT     H120405   6.500   2.171   2.398
 6721WAT     H220406   6.357   2.097   2.424
 6722WAT      O20407   0.864   6.219   7.641
 6722WAT     H120408   0.871   6.318   7.652
 6722WAT     H220409   0.778   6.198   7.594
 6723WAT      O20410   8.519   3.761   9.365
 6723WAT     H120411   8.497   3.843   9.418
 6723WAT     H220412   8.611   3.770   9.326
 6724WAT      O20413   3.293   9.196   2.099
 6724WAT     H120414   3.222   9.126   2.109
 6724WAT     H220415   3.260   9.267   2.037
 6725WAT      O20416   6.527   7.226   7.647
 6725WAT     H120417   6.519   7.204   7.744
 6725WAT     H220418   6.512   7.324   7.634
 6726WAT      O20419   0.242   1.903   6.838
 6726WAT     H120420   0.213   1.824   6.785
 6726WAT     H220421   0.210   1.987   6.793
 6727WAT      O20422   2.681   7.284   2.672
 6727WAT     H120423   2.740   7.319   2.599
 6727WAT     H220424   2.601   7.344   2.681
 6728WAT      O20425   8.113   4.143   7.402
 6728WAT     H120426   8.135   4.156   7.499
 6728WAT     H220427   8.091   4.231   7.360
 6729WAT      O20428   0.097   1.472   4.701
 6729WAT     H120429   0.042   1.415   4.639
 6729WAT     H220430   0.162   1.525   4.648
 6730WAT      O20431   2.684   4.949   2.696
 6730WAT     H120432   2.635   5.031   2.724
 6730WAT     H220433   2.778   4.973   2.670
 6731WAT      O20434   1.531   8.277   4.551
 6731WAT     H120435   1.491   8.249   4.639
 6731WAT     H220436   1.591   8.205   4.517
 6732WAT      O20437   5.745   6.996   3.249
 6732WAT     H120438   5.663   6.984   3.194
 6732WAT     H220439   5.810   7.056   3.202
 6733WAT      O20440   0.070   1.477   9.673
 6733WAT     H120441   0.100   1.560   9.626
 6733WAT     H220442   0.142   1.447   9.737
 6734WAT      O20443   3.387   6.885   9.535
 6734WAT     H120444   3.288   6.876   9.520
 6734WAT     H220445   3.430   6.795   9.525
 6735WAT      O20446   0.050   6.143   1.083
 6735WAT     H120447   0.036   6.235   1.120
 6735WAT     H220448   0.098   6.150   0.995
 6736WAT      O20449   6.330   2.023   8.015
 6736WAT     H120450   6.291   2.050   7.927
 6736WAT     H220451   6.371   1.932   8.006
 6737WAT      O20452   5.390   0.260   3.344
 6737WAT     H120453   5.383   0.319   3.264
 6737WAT     H220454   5.360   0.167   3.319
 6738WAT      O20455   6.052   4.226   1.945
 6738WAT     H120456   6.032   4.253   2.039
 6738WAT     H220457   6.100   4.300   1.898
 6739WAT      O20458   0.812   6.495   2.483
 6739WAT     H120459   0.724   6.541   2.485
 6739WAT     H220460   0.865   6.520   2.564
 6740WAT      O20461   4.383   6.076   2.748
 6740WAT     H120462   4.354   5.999   2.806
 6740WAT     H220463   4.462   6.049   2.693
 6741WAT      O20464   7.824   1.592   9.154
 6741WAT     H120465   7.868   1.515   9.201
 6741WAT     H220466   7.880   1.674   9.166
 6742WAT      O20467   7.469   2.806   5.524
 6742WAT     H120468   7.494   2.710   5.537
 6742WAT     H220469   7.410   2.836   5.599
 6743WAT      O20470   5.057   6.703   6.920
 6743WAT     H120471   5.113   6.753   6.987
 6743WAT     H220472   4.961   6.705   6.950
 6744WAT      O20473   4.909   4.896   2.792
 6744WAT     H120474   4.843   4.971   2.802
 6744WAT     H220475   5.001   4.930   2.812
 6745WAT      O20476   3.258   1.673   8.766
 6745WAT     H120477   3.200   1.700   8.843
 6745WAT     H220478   3.200   1.645   8.689
 6746WAT      O20479   2.449   2.864   3.649
 6746WAT     H120480   2.480   2.954   3.619
 6746WAT     H220481   2.359   2.845   3.612
 6747WAT      O20482   7.366   2.916   2.648
 6747WAT     H120483   7.399   2.960   2.732
 6747WAT     H220484   7.434   2.929   2.575
 6748WAT      O20485   7.173   6.893   1.127
 6748WAT     H120486   7.156   6.814   1.068
 6748WAT     H220487   7.217   6.862   1.212
 6749WAT      O20488   3.753   2.402   5.644
 6749WAT     H120489   3.706   2.382   5.558
 6749WAT     H220490   3.816   2.328   5.666
 6750WAT      O20491   3.017   9.395   8.846
 6750WAT     H120492   2.942   9.447   8.806
 6750WAT     H220493   3.061   9.339   8.776
 6751WAT      O20494   1.499   5.398   6.216
 6751WAT     H120495   1.421   5.336   6.222
 6751WAT     H220496   1.479   5.471   6.151
 6752WAT      O20497   2.354   8.708   5.402
 6752WAT     H120498   2.321   8.657   5.481
 6752WAT     H220499   2.345   8.806   5.420
 6753WAT      O20500   8.868   9.165   6.043
 6753WAT     H120501   8.898   9.072   6.065
 6753WAT     H220502   8.789   9.189   6.100
 6754WAT      O20503   3.995   6.834   1.188
 6754WAT     H120504   3.974   6.900   1.261
 6754WAT     H220505   3.989   6.741   1.225
 6755WAT      O20506   5.635   4.127   5.717
 6755WAT     H120507   5.549   4.141   5.764
 6755WAT     H220508   5.618   4.110   5.620
 6756WAT      O20509   8.918   7.346   6.672
 6756WAT     H120510   8.866   7.263   6.652
 6756WAT     H220511   8.968   7.334   6.758
 6757WAT      O20512   9.137   5.702   0.448
 6757WAT     H120513   9.090   5.629   0.498
 6757WAT     H220514   9.079   5.733   0.372
 6758WAT      O20515   6.386   6.675   8.331
 6758WAT     H120516   6.403   6.762   8.377
 6758WAT     H220517   6.300   6.636   8.364
 6759WAT      O20518   9.714   7.009   1.560
 6759WAT     H120519   9.654   7.053   1.626
 6759WAT     H220520   9.682   6.916   1.543
 6760WAT      O20521   9.418   2.924   1.907
 6760WAT     H120522   9.513   2.916   1.876
 6760WAT     H220523   9.413   2.904   2.004
 6761WAT      O20524   8.162   7.761   6.649
 6761WAT     H120525   8.078   7.709   6.656
 6761WAT     H220526   8.234   7.703   6.610
 6762WAT      O20527   3.558   1.020   1.950
 6762WAT     H120528   3.645   1.020   1.901
 6762WAT     H220529   3.553   1.099   2.010
 6763WAT      O20530   1.240   8.702   0.500
 6763WAT     H120531   1.185   8.710   0.583
 6763WAT     H220532   1.332   8.670   0.524
 6764WAT      O20533   1.848   4.723   5.561
 6764WAT     H120534   1.846   4.698   5.658
 6764WAT     H220535   1.852   4.822   5.552
 6765WAT      O20536   4.174   3.742   7.499
 6765WAT     H120537   4.101   3.738   7.430
 6765WAT     H220538   4.219   3.653   7.505
 6766WAT      O20539   2.503   3.211   8.157
 6766WAT     H120540   2.418   3.158   8.168
 6766WAT     H220541   2.573   3.174   8.218
 6767WAT      O20542   3.929   9.332   5.777
 6767WAT     H120543   4.019   9.364   5.748
 6767WAT     H220544   3.895   9.390   5.852
 6768WAT      O20545   3.945   9.214   9.024
 6768WAT     H120546   3.988   9.265   9.098
 6768WAT     H220547   4.009   9.205   8.948
 6769WAT      O20548   1.344   8.777   7.083
 6769WAT     H120549   1.414   8.843   7.111
 6769WAT     H220550   1.254   8.822   7.082
 6770WAT      O20551   7.409   6.720   7.594
 6770WAT     H120552   7.315   6.730   7.560
 6770WAT     H220553   7.454   6.808   7.592
 6771WAT      O20554   8.131   6.525   3.999
 6771WAT     H120555   8.196   6.498   3.928
 6771WAT     H220556   8.082   6.444   4.031
 6772WAT      O20557   6.827   7.610   8.705
 6772WAT     H120558   6.896   7.612   8.633
 6772WAT     H220559   6.739   7.640   8.669
 6773WAT      O20560   4.025   7.374   7.617
 6773WAT     H120561   4.112   7.357   7.571
 6773WAT     H220562   4.033   7.349   7.713
 6774WAT      O20563   6.818   0.331   5.305
 6774WAT     H120564   6.766   0.417   5.304
 6774WAT     H220565   6.856   0.314   5.215
 6775WAT      O20566   4.795   1.548   9.005
 6775WAT     H120567   4.755   1.503   8.924
 6775WAT     H220568   4.894   1.553   8.995
 6776WAT      O20569   2.496   8.992   7.538
 6776WAT     H120570   2.447   9.058   7.481
 6776WAT     H220571   2.504   8.905   7.488
 6777WAT      O20572   3.862   7.624   8.257
 6777WAT     H120573   3.938   7.688   8.269
 6777WAT     H220574   3.796   7.635   8.332
 6778WAT      O20575   4.860   8.213   3.382
 6778WAT     H120576   4.851   8.200   3.283
 6778WAT     H220577   4.771   8.239   3.420
 6779WAT      O20578   5.660   6.436   3.513
 6779WAT     H120579   5.758   6.453   3.520
 6779WAT     H220580   5.609   6.515   3.547
 6780WAT      O20581   2.088   5.563   4.033
 6780WAT     H120582   2.170   5.609   3.999
 6780WAT     H220583   2.007   5.617   4.010
 6781WAT      O20584   0.897   6.779   5.306
 6781WAT     H120585   0.881   6.707   5.239
 6781WAT     H220586   0.986   6.821   5.289
 6782WAT      O20587   3.360   6.424   4.633
 6782WAT     H120588   3.284   6.360   4.643
 6782WAT     H220589   3.356   6.467   4.543
 6783WAT      O20590   8.048   1.812   1.317
 6783WAT     H120591   8.087   1.761   1.394
 6783WAT     H220592   7.972   1.761   1.278
 6784WAT      O20593   6.589   6.984   7.520
 6784WAT     H120594   6.575   7.071   7.567
 6784WAT     H220595   6.629   7.001   7.430
 6785WAT      O20596   0.493   0.077   0.310
 6785WAT     H120597   0.436   0.075   0.391
 6785WAT     H220598   0.458   0.012   0.242
 6786WAT      O20599   2.304   6.848   3.513
 6786WAT     H120600   2.232   6.832   3.446
 6786WAT     H220601   2.263   6.860   3.603
 6787WAT      O20602   5.015   3.071   2.309
 6787WAT     H120603   4.971   3.149   2.352
 6787WAT     H220604   4.998   3.073   2.211
 6788WAT      O20605   3.392   7.236   2.581
 6788WAT     H120606   3.448   7.311   2.616
 6788WAT     H220607   3.428   7.207   2.492
 6789WAT      O20608   1.250   4.769   3.728
 6789WAT     H120609   1.278   4.675   3.712
 6789WAT     H220610   1.239   4.816   3.640
 6790WAT      O20611   1.399   1.883   2.673
 6790WAT     H120612   1.326   1.946   2.701
 6790WAT     H220613   1.404   1.881   2.573
 6791WAT      O20614   6.284   3.825   7.720
 6791WAT     H120615   6.292   3.734   7.759
 6791WAT     H220616   6.308   3.822   7.623
 6792WAT      O20617   6.617   6.547   7.906
 6792WAT     H120618   6.568   6.518   7.824
 6792WAT     H220619   6.673   6.627   7.885
 6793WAT      O20620   9.757   5.706   1.203
 6793WAT     H120621   9.721   5.676   1.291
 6793WAT     H220622   9.775   5.804   1.206
 6794WAT      O20623   3.972   6.471   7.661
 6794WAT     H120624   3.883   6.442   7.625
 6794WAT     H220625   4.044   6.412   7.624
 6795WAT      O20626   8.513   6.018   0.238
 6795WAT     H120627   8.457   5.963   0.176
 6795WAT     H220628   8.580   6.070   0.186
 6796WAT      O20629   1.612   7.368   7.181
 6796WAT     H120630   1.612   7.421   7.096
 6796WAT     H220631   1.584   7.426   7.257
 6797WAT      O20632   3.394   2.089   5.644
 6797WAT     H120633   3.403   2.044   5.733
 6797WAT     H220634   3.377   2.187   5.658
 6798WAT      O20635   5.837   7.908   7.531
 6798WAT     H120636   5.936   7.918   7.520
 6798WAT     H220637   5.811   7.812   7.519
 6799WAT      O20638   5.541   7.485   7.705
 6799WAT     H120639   5.637   7.512   7.699
 6799WAT     H220640   5.528   7.397   7.659
 6800WAT      O20641   1.027   2.588   2.631
 6800WAT     H120642   0.930   2.585   2.659
 6800WAT     H220643   1.033   2.607   2.534
 6801WAT      O20644   2.801   5.321   4.751
 6801WAT     H120645   2.805   5.421   4.741
 6801WAT     H220646   2.750   5.283   4.674
 6802WAT      O20647   5.747   3.118   4.464
 6802WAT     H120648   5.680   3.100   4.536
 6802WAT     H220649   5.749   3.042   4.400
 6803WAT      O20650   0.300   8.347   3.314
 6803WAT     H120651   0.271   8.259   3.277
 6803WAT     H220652   0.221   8.406   3.328
 6804WAT      O20653   5.527   2.473   2.660
 6804WAT     H120654   5.462   2.443   2.731
 6804WAT     H220655   5.550   2.395   2.602
 6805WAT      O20656   4.540   3.909   0.446
 6805WAT     H120657   4.581   3.938   0.359
 6805WAT     H220658   4.458   3.855   0.427
 6806WAT      O20659   6.812   8.511   5.685
 6806WAT     H120660   6.876   8.451   5.637
 6806WAT     H220661   6.843   8.526   5.778
 6807WAT      O20662   3.501   2.279   7.131
 6807WAT     H120663   3.507   2.357   7.193
 6807WAT     H220664   3.435   2.298   7.058
 6808WAT      O20665   0.356   5.197   5.960
 6808WAT     H120666   0.331   5.186   5.864
 6808WAT     H220667   0.350   5.108   6.007
 6809WAT      O20668   0.814   3.648   6.580
 6809WAT     H120669   0.899   3.648   6.633
 6809WAT     H220670   0.737   3.668   6.640
 6810WAT      O20671   6.535   2.020   0.561
 6810WAT     H120672   6.491   1.964   0.491
 6810WAT     H220673   6.547   2.113   0.525
 6811WAT      O20674   0.507   8.960   1.984
 6811WAT     H120675   0.500   8.992   1.890
 6811WAT     H220676   0.496   9.037   2.046
 6812WAT      O20677   6.463   3.137   2.006
 6812WAT     H120678   6.445   3.228   2.045
 6812WAT     H220679   6.546   3.099   2.046
 6813WAT      O20680   0.197   8.718   9.882
 6813WAT     H120681   0.120   8.657   9.901
 6813WAT     H220682   0.211   8.724   9.783
 6814WAT      O20683   6.448   6.319   9.023
 6814WAT     H120684   6.430   6.273   9.110
 6814WAT     H220685   6.404   6.409   9.022
 6815WAT      O20686   5.680   9.078   3.847
 6815WAT     H120687   5.751   9.147   3.842
 6815WAT     H220688   5.595   9.119   3.879
 6816WAT      O20689   8.594   0.562   7.335
 6816WAT     H120690   8.495   0.577   7.336
 6816WAT     H220691   8.616   0.491   7.268
 6817WAT      O20692   8.447   6.651   6.962
 6817WAT     H120693   8.401   6.590   7.027
 6817WAT     H220694   8.454   6.606   6.873
 6818WAT      O20695   8.064   2.839   3.190
 6818WAT     H120696   8.015   2.911   3.238
 6818WAT     H220697   8.103   2.775   3.257
 6819WAT      O20698   9.887   4.243   2.671
 6819WAT     H120699   9.951   4.168   2.659
 6819WAT     H220700   9.858   4.248   2.767
 6820WAT      O20701   3.847   0.593   3.933
 6820WAT     H120702   3.824   0.564   3.840
 6820WAT     H220703   3.913   0.668   3.929
 6821WAT      O20704   4.857   6.369   8.326
 6821WAT     H120705   4.818   6.452   8.368
 6821WAT     H220706   4.903   6.315   8.396
 6822WAT      O20707   0.538   5.876   9.275
 6822WAT     H120708   0.558   5.973   9.286
 6822WAT     H220709   0.609   5.833   9.220
 6823WAT      O20710   7.265   0.868   1.971
 6823WAT     H120711   7.176   0.821   1.976
 6823WAT     H220712   7.252   0.965   1.989
 6824WAT      O20713   0.637   7.396   4.326
 6824WAT     H120714   0.717   7.340   4.347
 6824WAT     H220715   0.651   7.489   4.360
 6825WAT      O20716   0.959   0.483   7.678
 6825WAT     H120717   0.881   0.521   7.627
 6825WAT     H220718   1.030   0.455   7.614
 6826WAT      O20719   0.745   5.428   8.823
 6826WAT     H120720   0.785   5.337   8.812
 6826WAT     H220721   0.793   5.493   8.765
 6827WAT      O20722   7.034   4.674   9.085
 6827WAT     H120723   7.000   4.612   9.156
 6827WAT     H220724   7.125   4.707   9.111
 6828WAT      O20725   8.222   9.216   4.812
 6828WAT     H120726   8.225   9.158   4.893
 6828WAT     H220727   8.205   9.311   4.839
 6829WAT      O20728   1.152   0.202   7.313
 6829WAT     H120729   1.181   0.156   7.229
 6829WAT     H220730   1.080   0.149   7.358
 6830WAT      O20731   7.717   4.701   3.658
 6830WAT     H120732   7.654   4.695   3.581
 6830WAT     H220733   7.810   4.683   3.627
 6831WAT      O20734   2.728   7.252   8.120
 6831WAT     H120735   2.691   7.284   8.207
 6831WAT     H220736   2.656   7.252   8.051
 6832WAT      O20737   9.641   5.840   3.887
 6832WAT     H120738   9.688   5.821   3.973
 6832WAT     H220739   9.700   5.894   3.828
 6833WAT      O20740   6.931   6.966   2.203
 6833WAT     H120741   6.874   6.898   2.159
 6833WAT     H220742   6.990   6.922   2.270
 6834WAT      O20743   4.912   5.067   7.772
 6834WAT     H120744   4.900   4.978   7.815
 6834WAT     H220745   4.848   5.133   7.813
 6835WAT      O20746   5.754   1.712   5.422
 6835WAT     H120747   5.839   1.754   5.391
 6835WAT     H220748   5.694   1.782   5.461
 6836WAT      O20749   8.717   0.461   5.500
 6836WAT     H120750   8.755   0.407   5.425
 6836WAT     H220751   8.646   0.521   5.466
 6837WAT      O20752   2.925   1.312   8.663
 6837WAT     H120753   2.888   1.381   8.601
 6837WAT     H220754   2.866   1.302   8.743
 6838WAT      O20755   1.935   4.081   2.242
 6838WAT     H120756   1.874   4.028   2.183
 6838WAT     H220757   1.997   4.134   2.185
 6839WAT      O20758   9.649   4.817   4.571
 6839WAT     H120759   9.631   4.766   4.487
 6839WAT     H220760   9.720   4.770   4.624
 6840WAT      O20761   5.337   3.032   0.952
 6840WAT     H120762   5.372   3.013   1.044
 6840WAT     H220763   5.403   3.003   0.884
 6841WAT      O20764   5.370   8.751   6.085
 6841WAT     H120765   5.412   8.798   6.162
 6841WAT     H220766   5.401   8.656   6.082
 6842WAT      O20767   9.485   9.099   4.308
 6842WAT     H120768   9.456   9.183   4.355
 6842WAT     H220769   9.414   9.028   4.320
 6843WAT      O20770   2.582   2.434   5.419
 6843WAT     H120771   2.541   2.512   5.372
 6843WAT     H220772   2.558   2.437   5.516
 6844WAT      O20773   2.699   6.533   3.275
 6844WAT     H120774   2.688   6.576   3.364
 6844WAT     H220775   2.655   6.590   3.205
 6845WAT      O20776   0.692   4.823   2.515
 6845WAT     H120777   0.715   4.901   2.574
 6845WAT     H220778   0.683   4.740   2.570
 6846WAT      O20779   7.406   4.429   5.884
 6846WAT     H120780   7.336   4.431   5.813
 6846WAT     H220781   7.362   4.435   5.974
 6847WAT      O20782   2.591   4.515   5.657
 6847WAT     H120783   2.498   4.504   5.692
 6847WAT     H220784   2.630   4.425   5.637
 6848WAT      O20785   4.490   3.992   6.284
 6848WAT     H120786   4.584   3.987   6.320
 6848WAT     H220787   4.484   3.935   6.202
 6849WAT      O20788   5.607   5.308   8.294
 6849WAT     H120789   5.643   5.319   8.201
 6849WAT     H220790   5.625   5.215   8.325
 6850WAT      O20791   6.798   4.273   7.552
 6850WAT     H120792   6.834   4.183   7.528
 6850WAT     H220793   6.740   4.307   7.478
 6851WAT      O20794   2.568   3.901   6.090
 6851WAT     H120795   2.584   3.802   6.085
 6851WAT     H220796   2.545   3.926   6.184
 6852WAT      O20797   3.716   2.335   2.447
 6852WAT     H120798   3.636   2.390   2.424
 6852WAT     H220799   3.793   2.363   2.390
 6853WAT      O20800   9.125   4.128   5.647
 6853WAT     H120801   9.045   4.181   5.618
 6853WAT     H220802   9.163   4.167   5.731
 6854WAT      O20803   9.651   3.939   0.275
 6854WAT     H120804   9.578   4.006   0.259
 6854WAT     H220805   9.728   3.957   0.214
 6855WAT      O20806   7.074   4.785   4.397
 6855WAT     H120807   7.050   4.715   4.329
 6855WAT     H220808   7.069   4.875   4.354
 6856WAT      O20809   5.943   1.705   1.805
 6856WAT     H120810   6.009   1.630   1.810
 6856WAT     H220811   5.961   1.771   1.877
 6857WAT      O20812   0.502   2.849   3.108
 6857WAT     H120813   0.467   2.936   3.073
 6857WAT     H220814   0.460   2.828   3.196
 6858WAT      O20815   6.523   7.637   2.677
 6858WAT     H120816   6.590   7.665   2.609
 6858WAT     H220817   6.439   7.690   2.665
 6859WAT      O20818   1.844   2.107   5.478
 6859WAT     H120819   1.843   2.026   5.419
 6859WAT     H220820   1.919   2.168   5.451
 6860WAT      O20821   0.508   0.469   6.822
 6860WAT     H120822   0.484   0.445   6.916
 6860WAT     H220823   0.525   0.385   6.769
 6861WAT      O20824   1.474   0.132   7.818
 6861WAT     H120825   1.507   0.083   7.737
 6861WAT     H220826   1.423   0.069   7.877
 6862WAT      O20827   9.040   3.742   2.656
 6862WAT     H120828   9.080   3.661   2.614
 6862WAT     H220829   9.112   3.807   2.681
 6863WAT      O20830   9.131   7.371   0.903
 6863WAT     H120831   9.124   7.322   0.990
 6863WAT     H220832   9.161   7.465   0.920
 6864WAT      O20833   4.426   3.861   8.063
 6864WAT     H120834   4.399   3.781   8.010
 6864WAT     H220835   4.390   3.944   8.019
 6865WAT      O20836   2.302   9.226   5.967
 6865WAT     H120837   2.260   9.140   5.938
 6865WAT     H220838   2.255   9.302   5.922
 6866WAT      O20839   1.948   9.670   1.702
 6866WAT     H120840   1.931   9.712   1.791
 6866WAT     H220841   1.862   9.643   1.661
 6867WAT      O20842   0.181   7.917   2.449
 6867WAT     H120843   0.238   7.997   2.467
 6867WAT     H220844   0.235   7.834   2.458
 6868WAT      O20845   9.377   8.557   6.806
 6868WAT     H120846   9.435   8.628   6.766
 6868WAT     H220847   9.433   8.478   6.829
 6869WAT      O20848   6.868   6.034   8.114
 6869WAT     H120849   6.771   6.051   8.102
 6869WAT     H220850   6.883   5.936   8.127
 6870WAT      O20851   6.528   4.460   2.901
 6870WAT     H120852   6.594   4.479   2.974
 6870WAT     H220853   6.578   4.433   2.819
 6871WAT      O20854   2.700   1.178   0.807
 6871WAT     H120855   2.703   1.213   0.714
 6871WAT     H220856   2.627   1.224   0.858
 6872WAT      O20857   2.927   7.288   5.921
 6872WAT     H120858   3.025   7.265   5.924
 6872WAT     H220859   2.906   7.334   5.835
 6873WAT      O20860   1.650   5.004   4.634
 6873WAT     H120861   1.661   4.923   4.576
 6873WAT     H220862   1.569   4.992   4.692
 6874WAT      O20863   0.837   2.972   0.243
 6874WAT     H120864   0.879   3.058   0.273
 6874WAT     H220865   0.864   2.898   0.304
 6875WAT      O20866   0.018   1.152   9.428
 6875WAT     H120867   0.011   1.067   9.480
 6875WAT     H220868  -0.071   1.197   9.424
 6876WAT      O20869   9.643   8.874   4.592
 6876WAT     H120870   9.726   8.855   4.644
 6876WAT     H220871   9.584   8.793   4.593
 6877WAT      O20872   4.631   4.228   7.775
 6877WAT     H120873   4.701   4.171   7.733
 6877WAT     H220874   4.544   4.217   7.726
 6878WAT      O20875   8.361   7.809   2.335
 6878WAT     H120876   8.391   7.899   2.368
 6878WAT     H220877   8.415   7.783   2.255
 6879WAT      O20878   9.819   3.485   5.146
 6879WAT     H120879   9.881   3.438   5.209
 6879WAT     H220880   9.738   3.428   5.131
 6880WAT      O20881   7.684   7.822   5.277
 6880WAT     H120882   7.627   7.794   5.354
 6880WAT     H220883   7.753   7.887   5.309
 6881WAT      O20884   6.454   4.205   2.984
 6881WAT     H120885   6.477   4.288   2.933
 6881WAT     H220886   6.375   4.160   2.942
 6882WAT      O20887   8.190   7.807   1.202
 6882WAT     H120888   8.133   7.861   1.263
 6882WAT     H220889   8.241   7.867   1.141
 6883WAT      O20890   2.708   6.422   2.640
 6883WAT     H120891   2.733   6.398   2.546
 6883WAT     H220892   2.614   6.457   2.641
 6884WAT      O20893   7.015   1.503   4.999
 6884WAT     H120894   6.932   1.515   5.052
 6884WAT     H220895   6.993   1.500   4.902
 6885WAT      O20896   4.651   0.795   8.869
 6885WAT     H120897   4.560   0.802   8.910
 6885WAT     H220898   4.668   0.700   8.842
 6886WAT      O20899   1.547   5.465   3.967
 6886WAT     H120900   1.483   5.510   4.029
 6886WAT     H220901   1.573   5.376   4.004
 6887WAT      O20902   3.916   7.650   2.376
 6887WAT     H120903   3.937   7.747   2.372
 6887WAT     H220904   4.000   7.598   2.395
 6888WAT      O20905   9.316   4.024   3.418
 6888WAT     H120906   9.399   4.029   3.362
 6888WAT     H220907   9.336   3.974   3.502
 6889WAT      O20908   3.206   4.210   7.704
 6889WAT     H120909   3.219   4.303   7.737
 6889WAT     H220910   3.237   4.204   7.609
 6890WAT      O20911   1.679   1.401   9.724
 6890WAT     H120912   1.748   1.356   9.667
 6890WAT     H220913   1.685   1.367   9.818
 6891WAT      O20914   5.676   8.529   5.102
 6891WAT     H120915   5.689   8.518   5.003
 6891WAT     H220916   5.765   8.535   5.147
 6892WAT      O20917   7.620   8.872   7.685
 6892WAT     H120918   7.576   8.850   7.772
 6892WAT     H220919   7.565   8.940   7.636
 6893WAT      O20920   7.021   3.782   7.179
 6893WAT     H120921   6.951   3.750   7.243
 6893WAT     H220922   7.109   3.786   7.226
 6894WAT      O20923   1.401   2.336   0.369
 6894WAT     H120924   1.425   2.241   0.348
 6894WAT     H220925   1.319   2.362   0.318
 6895WAT      O20926   4.618   0.692   0.283
 6895WAT     H120927   4.579   0.750   0.212
 6895WAT     H220928   4.684   0.745   0.337
 6896WAT      O20929   0.066   5.149   7.000
 6896WAT     H120930   0.019   5.108   6.922
 6896WAT     H220931   0.055   5.090   7.080
 6897WAT      O20932   3.097   8.573   4.092
 6897WAT     H120933   3.097   8.524   4.179
 6897WAT     H220934   3.002   8.585   4.061
 6898WAT      O20935   2.960   4.153   7.516
 6898WAT     H120936   3.035   4.181   7.576
 6898WAT     H220937   2.938   4.057   7.533
 6899WAT      O20938   0.985   6.218   4.728
 6899WAT     H120939   0.938   6.148   4.674
 6899WAT     H220940   1.061   6.176   4.778
 6900WAT      O20941   9.060   5.214   5.585
 6900WAT     H120942   9.037   5.142   5.650
 6900WAT     H220943   9.048   5.303   5.628
 6901WAT      O20944   7.098   9.393   0.588
 6901WAT     H120945   7.036   9.406   0.510
 6901WAT     H220946   7.064   9.444   0.667
 6902WAT      O20947   6.488   4.162   3.252
 6902WAT     H120948   6.574   4.111   3.256
 6902WAT     H220949   6.468   4.185   3.156
 6903WAT      O20950   9.217   2.139   1.865
 6903WAT     H120951   9.315   2.143   1.843
 6903WAT     H220952   9.181   2.049   1.843
 6904WAT      O20953   9.691   5.490   4.996
 6904WAT     H120954   9.726   5.480   4.903
 6904WAT     H220955   9.595   5.519   4.992
 6905WAT      O20956   2.532   7.949   6.009
 6905WAT     H120957   2.484   7.863   5.994
 6905WAT     H220958   2.622   7.945   5.965
 6906WAT      O20959   7.615   6.174   9.071
 6906WAT     H120960   7.687   6.151   9.006
 6906WAT     H220961   7.615   6.273   9.087
 6907WAT      O20962   8.931   4.849   6.152
 6907WAT     H120963   8.941   4.777   6.084
 6907WAT     H220964   8.982   4.930   6.123
 6908WAT      O20965   3.691   0.449   6.493
 6908WAT     H120966   3.789   0.454   6.516
 6908WAT     H220967   3.663   0.534   6.449
 6909WAT      O20968   7.710   8.868   1.965
 6909WAT     H120969   7.626   8.913   1.995
 6909WAT     H220970   7.784   8.889   2.029
 6910WAT      O20971   8.397   5.407   5.155
 6910WAT     H120972   8.480   5.392   5.102
 6910WAT     H220973   8.378   5.328   5.213
 6911WAT      O20974   1.005   7.469   0.232
 6911WAT     H120975   0.921   7.499   0.187
 6911WAT     H220976   1.082   7.483   0.171
 6912WAT      O20977   1.224   1.666   9.061
 6912WAT     H120978   1.126   1.653   9.045
 6912WAT     H220979   1.272   1.580   9.049
 6913WAT      O20980   1.452   5.487   2.742
 6913WAT     H120981   1.460   5.582   2.773
 6913WAT     H220982   1.360   5.452   2.762
 6914WAT      O20983   8.155   2.496   8.305
 6914WAT     H120984   8.084   2.442   8.260
 6914WAT     H220985   8.112   2.573   8.353
 6915WAT      O20986   1.071   7.013   0.230
 6915WAT     H120987   1.121   6.992   0.315
 6915WAT     H220988   1.036   6.929   0.190
 6916WAT      O20989   4.120   1.328   7.273
 6916WAT     H120990   4.103   1.266   7.350
 6916WAT     H220991   4.032   1.363   7.239
 6917WAT      O20992   3.217   6.643   3.224
 6917WAT     H120993   3.233   6.576   3.297
 6917WAT     H220994   3.127   6.626   3.183
 6918WAT      O20995   7.847   3.258   5.287
 6918WAT     H120996   7.926   3.275   5.346
 6918WAT     H220997   7.777   3.208   5.338
 6919WAT      O20998   4.055   6.860   6.547
 6919WAT     H120999   3.971   6.806   6.538
 6919WAT     H221000   4.080   6.866   6.643
 6920WAT      O21001   3.814   1.011   7.707
 6920WAT     H121002   3.845   0.962   7.625
 6920WAT     H221003   3.748   0.955   7.757
 6921WAT      O21004   9.867   0.424   9.481
 6921WAT     H121005   9.835   0.355   9.546
 6921WAT     H221006   9.802   0.499   9.477
 6922WAT      O21007   8.882   2.128   9.620
 6922WAT     H121008   8.948   2.122   9.694
 6922WAT     H221009   8.930   2.138   9.533
 6923WAT      O21010   4.879   0.120   5.264
 6923WAT     H121011   4.887   0.099   5.166
 6923WAT     H221012   4.860   0.217   5.276
 6924WAT      O21013   8.297   9.483   1.539
 6924WAT     H121014   8.327   9.562   1.591
 6924WAT     H221015   8.377   9.429   1.510
 6925WAT      O21016   0.377   6.985   6.212
 6925WAT     H121017   0.341   7.078   6.210
 6925WAT     H221018   0.448   6.977   6.282
 6926WAT      O21019   0.788   3.805   4.679
 6926WAT     H121020   0.732   3.773   4.602
 6926WAT     H221021   0.874   3.754   4.680
 6927WAT      O21022   8.909   8.253   3.141
 6927WAT     H121023   9.007   8.243   3.129
 6927WAT     H221024   8.861   8.215   3.062
 6928WAT      O21025   4.980   2.802   2.166
 6928WAT     H121026   5.008   2.707   2.176
 6928WAT     H221027   4.913   2.825   2.236
 6929WAT      O21028   5.911   7.251   6.949
 6929WAT     H121029   5.992   7.251   7.007
 6929WAT     H221030   5.844   7.186   6.985
 6930WAT      O21031   1.380   8.662   4.384
 6930WAT     H121032   1.307   8.625   4.326
 6930WAT     H221033   1.419   8.743   4.340
 6931WAT      O21034   1.385   6.216   3.916
 6931WAT     H121035   1.482   6.194   3.909
 6931WAT     H221036   1.371   6.282   3.990
 6932WAT      O21037   2.681   5.487   2.282
 6932WAT     H121038   2.649   5.433   2.361
 6932WAT     H221039   2.780   5.500   2.289
 6933WAT      O21040   3.866   7.018   7.597
 6933WAT     H121041   3.826   7.099   7.554
 6933WAT     H221042   3.846   6.938   7.541
 6934WAT      O21043   5.036   9.197   5.088
 6934WAT     H121044   4.941   9.209   5.118
 6934WAT     H221045   5.094   9.266   5.133
 6935WAT      O21046   8.165   1.042   7.821
 6935WAT     H121047   8.239   1.025   7.756
 6935WAT     H221048   8.137   0.956   7.863
 6936WAT      O21049   1.863   3.652   1.757
 6936WAT     H121050   1.879   3.575   1.696
 6936WAT     H221051   1.876   3.738   1.707
 6937WAT      O21052   8.743   5.921   9.044
 6937WAT     H121053   8.784   5.829   9.045
 6937WAT     H221054   8.644   5.913   9.055
 6938WAT      O21055   3.203   8.877   0.403
 6938WAT     H121056   3.147   8.939   0.348
 6938WAT     H221057   3.172   8.783   0.390
 6939WAT      O21058   8.436   0.206   1.442
 6939WAT     H121059   8.433   0.180   1.346
 6939WAT     H221060   8.471   0.130   1.497
 6940WAT      O21061   9.747   1.291   1.848
 6940WAT     H121062   9.820   1.352   1.819
 6940WAT     H221063   9.743   1.212   1.787
 6941WAT      O21064   1.753   5.563   9.847
 6941WAT     H121065   1.729   5.578   9.751
 6941WAT     H221066   1.675   5.588   9.905
 6942WAT      O21067   9.690   0.568   7.859
 6942WAT     H121068   9.691   0.470   7.837
 6942WAT     H221069   9.604   0.608   7.826
 6943WAT      O21070   2.014   1.951   5.675
 6943WAT     H121071   2.003   1.852   5.679
 6943WAT     H221072   1.937   1.991   5.624
 6944WAT      O21073   5.588   9.074   6.042
 6944WAT     H121074   5.557   9.026   6.124
 6944WAT     H221075   5.678   9.115   6.060
 6945WAT      O21076   2.780   7.610   5.529
 6945WAT     H121077   2.789   7.708   5.517
 6945WAT     H221078   2.683   7.585   5.531
 6946WAT      O21079   7.580   1.841   3.390
 6946WAT     H121080   7.609   1.845   3.486
 6946WAT     H221081   7.658   1.818   3.332
 6947WAT      O21082   2.683   8.139   0.756
 6947WAT     H121083   2.679   8.232   0.718
 6947WAT     H221084   2.768   8.127   0.806
 6948WAT      O21085   0.938   5.005   6.147
 6948WAT     H121086   1.006   5.017   6.219
 6948WAT     H221087   0.848   4.989   6.189
 6949WAT      O21088   2.469   7.918   0.251
 6949WAT     H121089   2.456   7.840   0.189
 6949WAT     H221090   2.533   7.983   0.209
 6950WAT      O21091   7.062   1.344   4.162
 6950WAT     H121092   7.121   1.263   4.158
 6950WAT     H221093   6.977   1.325   4.114
 6951WAT      O21094   4.428   6.000   0.719
 6951WAT     H121095   4.361   5.932   0.690
 6951WAT     H221096   4.518   5.977   0.681
 6952WAT      O21097   5.532   6.337   6.069
 6952WAT     H121098   5.582   6.421   6.092
 6952WAT     H221099   5.597   6.263   6.050
 6953WAT      O21100   1.895   7.657   1.976
 6953WAT     H121101   1.864   7.563   1.992
 6953WAT     H221102   1.901   7.705   2.063
 6954WAT      O21103   9.381   0.071   2.511
 6954WAT     H121104   9.406   0.071   2.607
 6954WAT     H221105   9.407   0.159   2.470
 6955WAT      O21106   6.603   5.288   6.395
 6955WAT     H121107   6.685   5.258   6.444
 6955WAT     H221108   6.563   5.211   6.346
 6956WAT      O21109   1.708   7.183   2.743
 6956WAT     H121110   1.797   7.147   2.772
 6956WAT     H221111   1.708   7.194   2.643
 6957WAT      O21112   0.371   1.538   9.394
 6957WAT     H121113   0.448   1.568   9.450
 6957WAT     H221114   0.309   1.482   9.449
 6958WAT      O21115   9.788   8.887   2.102
 6958WAT     H121116   9.755   8.981   2.092
 6958WAT     H221117   9.823   8.874   2.195
 6959WAT      O21118   9.412   6.491   7.344
 6959WAT     H121119   9.481   6.430   7.384
 6959WAT     H221120   9.377   6.450   7.260
 6960WAT      O21121   6.619   8.644   2.282
 6960WAT     H121122   6.700   8.644   2.224
 6960WAT     H221123   6.537   8.640   2.225
 6961WAT      O21124   7.489   5.989   4.386
 6961WAT     H121125   7.577   5.975   4.342
 6961WAT     H221126   7.501   6.046   4.467
 6962WAT      O21127   0.572   1.113   0.132
 6962WAT     H121128   0.604   1.018   0.127
 6962WAT     H221129   0.560   1.139   0.228
 6963WAT      O21130   8.279   3.501   9.876
 6963WAT     H121131   8.326   3.443   9.810
 6963WAT     H221132   8.277   3.456   9.965
 6964WAT      O21133   6.701   0.507   3.312
 6964WAT     H121134   6.626   0.534   3.372
 6964WAT     H221135   6.708   0.574   3.237
 6965WAT      O21136   9.543   9.370   3.299
 6965WAT     H121137   9.461   9.341   3.349
 6965WAT     H221138   9.569   9.298   3.235
 6966WAT      O21139   7.917   0.008   0.559
 6966WAT     H121140   7.894  -0.005   0.655
 6966WAT     H221141   7.899  -0.077   0.508
 6967WAT      O21142   4.876   7.035   7.860
 6967WAT     H121143   4.850   6.976   7.784
 6967WAT     H221144   4.809   7.107   7.872
 6968WAT      O21145   6.657   1.032   0.982
 6968WAT     H121146   6.608   1.117   1.002
 6968WAT     H221147   6.746   1.033   1.028
 6969WAT      O21148   6.544   2.572   9.679
 6969WAT     H121149   6.458   2.605   9.640
 6969WAT     H221150   6.613   2.645   9.676
 6970WAT      O21151   9.338   7.862   5.075
 6970WAT     H121152   9.435   7.882   5.086
 6970WAT     H221153   9.309   7.890   4.983
 6971WAT      O21154   5.846   8.439   0.929
 6971WAT     H121155   5.941   8.457   0.954
 6971WAT     H221156   5.802   8.525   0.904
 6972WAT      O21157   7.447   1.379   1.125
 6972WAT     H121158   7.405   1.457   1.172
 6972WAT     H221159   7.388   1.298   1.136
 6973WAT      O21160   1.239   5.468   1.679
 6973WAT     H121161   1.331   5.505   1.670
 6973WAT     H221162   1.193   5.511   1.757
 6974WAT      O21163   0.990   6.481   8.370
 6974WAT     H121164   1.034   6.511   8.455
 6974WAT     H221165   1.030   6.393   8.342
 6975WAT      O21166   3.671   4.652   6.203
 6975WAT     H121167   3.735   4.582   6.234
 6975WAT     H221168   3.695   4.740   6.242
 6976WAT      O21169   6.339   4.107   1.855
 6976WAT     H121170   6.253   4.143   1.892
 6976WAT     H221171   6.327   4.010   1.832
 6977WAT      O21172   1.721   0.921   3.207
 6977WAT     H121173   1.781   0.999   3.224
 6977WAT     H221174   1.689   0.923   3.112
 6978WAT      O21175   0.574   8.934   0.788
 6978WAT     H121176   0.626   8.910   0.706
 6978WAT     H221177   0.488   8.976   0.762
 6979WAT      O21178   2.943   8.861   8.399
 6979WAT     H121179   2.907   8.954   8.391
 6979WAT     H221180   3.004   8.855   8.478
 6980WAT      O21181   0.611   7.969   9.299
 6980WAT     H121182   0.595   7.970   9.397
 6980WAT     H221183   0.592   7.878   9.262
 6981WAT      O21184   4.166   2.537   2.362
 6981WAT     H121185   4.145   2.472   2.290
 6981WAT     H221186   4.264   2.531   2.385
 6982WAT      O21187   8.929   8.443   8.458
 6982WAT     H121188   8.951   8.432   8.361
 6982WAT     H221189   8.943   8.356   8.504
 6983WAT      O21190   0.864   1.929   0.260
 6983WAT     H121191   0.852   1.905   0.356
 6983WAT     H221192   0.956   1.901   0.231
 6984WAT      O21193   9.059   9.691   5.047
 6984WAT     H121194   9.056   9.741   5.134
 6984WAT     H221195   9.089   9.751   4.974
 6985WAT      O21196   8.541   4.331   2.780
 6985WAT     H121197   8.528   4.430   2.770
 6985WAT     H221198   8.595   4.312   2.862
 6986WAT      O21199   5.739   3.907   4.030
 6986WAT     H121200   5.733   3.937   4.125
 6986WAT     H221201   5.821   3.851   4.018
 6987WAT      O21202   2.470   3.414   2.143
 6987WAT     H121203   2.540   3.430   2.213
 6987WAT     H221204   2.510   3.362   2.067
 6988WAT      O21205   1.821   0.251   4.324
 6988WAT     H121206   1.825   0.333   4.268
 6988WAT     H221207   1.835   0.275   4.420
 6989WAT      O21208   0.897   3.863   6.326
 6989WAT     H121209   0.911   3.810   6.243
 6989WAT     H221210   0.860   3.804   6.398
 6990WAT      O21211   2.435   6.443   9.878
 6990WAT     H121212   2.390   6.412   9.962
 6990WAT     H221213   2.467   6.537   9.890
 6991WAT      O21214   6.764   5.706   8.583
 6991WAT     H121215   6.713   5.652   8.651
 6991WAT     H221216   6.785   5.648   8.504
 6992WAT      O21217   1.641   7.949   6.165
 6992WAT     H121218   1.578   7.993   6.101
 6992WAT     H221219   1.624   7.850   6.165
 6993WAT      O21220   9.500   1.182   7.644
 6993WAT     H121221   9.498   1.281   7.660
 6993WAT     H221222   9.594   1.149   7.651
 6994WAT      O21223   3.080   0.245   3.504
 6994WAT     H121224   3.077   0.175   3.575
 6994WAT     H221225   3.103   0.203   3.416
 6995WAT      O21226   4.187   9.067   7.889
 6995WAT     H121227   4.186   9.025   7.798
 6995WAT     H221228   4.098   9.055   7.932
 6996WAT      O21229   6.685   9.312   8.868
 6996WAT     H121230   6.748   9.389   8.881
 6996WAT     H221231   6.603   9.344   8.821
 6997WAT      O21232   3.288   3.896   8.767
 6997WAT     H121233   3.280   3.882   8.668
 6997WAT     H221234   3.208   3.947   8.800
 6998WAT      O21235   7.516   8.239   1.600
 6998WAT     H121236   7.582   8.284   1.541
 6998WAT     H221237   7.514   8.285   1.689
 6999WAT      O21238   1.299   2.549   2.667
 6999WAT     H121239   1.324   2.644   2.648
 6999WAT     H221240   1.206   2.532   2.635
 7000WAT      O21241   8.530   1.014   0.768
 7000WAT     H121242   8.449   1.073   0.769
 7000WAT     H221243   8.501   0.919   0.783
 7001WAT      O21244   3.012   7.128   2.839
 7001WAT     H121245   3.112   7.127   2.830
 7001WAT     H221246   2.986   7.098   2.931
 7002WAT      O21247   2.543   1.087   6.616
 7002WAT     H121248   2.610   1.037   6.562
 7002WAT     H221249   2.465   1.111   6.558
 7003WAT      O21250   8.275   6.139   0.674
 7003WAT     H121251   8.364   6.095   0.662
 7003WAT     H221252   8.240   6.169   0.586
 7004WAT      O21253   8.094   2.304   7.920
 7004WAT     H121254   8.055   2.284   7.830
 7004WAT     H221255   8.190   2.329   7.909
 7005WAT      O21256   7.126   1.319   6.213
 7005WAT     H121257   7.193   1.259   6.256
 7005WAT     H221258   7.173   1.393   6.166
 7006WAT      O21259   4.858   8.843   8.750
 7006WAT     H121260   4.829   8.780   8.823
 7006WAT     H221261   4.957   8.853   8.752
 7007WAT      O21262   3.489   4.405   5.829
 7007WAT     H121263   3.530   4.482   5.876
 7007WAT     H221264   3.391   4.422   5.815
 7008WAT      O21265   2.199   6.920   3.790
 7008WAT     H121266   2.106   6.901   3.758
 7008WAT     H221267   2.234   6.841   3.840
 7009WAT      O21268   2.210   4.747   5.901
 7009WAT     H121269   2.115   4.757   5.873
 7009WAT     H221270   2.266   4.817   5.855
 7010WAT      O21271   9.051   8.956   3.930
 7010WAT     H121272   8.987   8.885   3.959
 7010WAT     H221273   9.144   8.930   3.956
 7011WAT      O21274   6.931   7.078   5.690
 7011WAT     H121275   6.843   7.101   5.731
 7011WAT     H221276   6.917   7.013   5.615
 7012WAT      O21277   3.006   8.906   2.401
 7012WAT     H121278   3.038   8.828   2.347
 7012WAT     H221279   2.961   8.973   2.342
 7013WAT      O21280   4.714   2.278   9.757
 7013WAT     H121281   4.791   2.303   9.816
 7013WAT     H221282   4.725   2.183   9.727
 7014WAT      O21283   3.419   5.375   1.669
 7014WAT     H121284   3.447   5.333   1.755
 7014WAT     H221285   3.424   5.308   1.596
 7015WAT      O21286   2.538   5.511   3.254
 7015WAT     H121287   2.494   5.430   3.215
 7015WAT     H221288   2.521   5.514   3.352
 7016WAT      O21289   9.613   5.180   1.614
 7016WAT     H121290   9.573   5.153   1.526
 7016WAT     H221291   9.620   5.100   1.673
 7017WAT      O21292   3.552   8.856   5.801
 7017WAT     H121293   3.538   8.953   5.778
 7017WAT     H221294   3.464   8.815   5.825
 7018WAT      O21295   5.710   2.036   3.704
 7018WAT     H121296   5.733   2.048   3.607
 7018WAT     H221297   5.664   1.949   3.717
 7019WAT      O21298   1.411   4.164   0.912
 7019WAT     H121299   1.392   4.223   0.834
 7019WAT     H221300   1.337   4.174   0.979
 7020WAT      O21301   0.486   2.345   7.164
 7020WAT     H121302   0.446   2.298   7.242
 7020WAT     H221303   0.509   2.439   7.190
 7021WAT      O21304   0.302   4.321   5.125
 7021WAT     H121305   0.334   4.281   5.039
 7021WAT     H221306   0.202   4.315   5.129
 7022WAT      O21307   8.002   8.691   1.015
 7022WAT     H121308   7.954   8.667   1.100
 7022WAT     H221309   7.994   8.615   0.950
 7023WAT      O21310   2.654   1.109   1.100
 7023WAT     H121311   2.594   1.179   1.060
 7023WAT     H221312   2.628   1.019   1.066
 7024WAT      O21313   9.113   0.930   9.697
 7024WAT     H121314   9.077   1.001   9.637
 7024WAT     H221315   9.201   0.898   9.662
 7025WAT      O21316   4.080   5.926   7.306
 7025WAT     H121317   4.090   5.837   7.263
 7025WAT     H221318   4.054   5.994   7.238
 7026WAT      O21319   8.130   5.735   6.487
 7026WAT     H121320   8.183   5.746   6.572
 7026WAT     H221321   8.084   5.821   6.465
 7027WAT      O21322   1.627   1.412   4.331
 7027WAT     H121323   1.695   1.474   4.292
 7027WAT     H221324   1.651   1.318   4.310
 7028WAT      O21325   0.746   8.725   5.255
 7028WAT     H121326   0.748   8.794   5.183
 7028WAT     H221327   0.807   8.752   5.329
 7029WAT      O21328   0.561   2.839   1.731
 7029WAT     H121329   0.605   2.924   1.700
 7029WAT     H221330   0.496   2.808   1.662
 7030WAT      O21331   3.105   4.093   9.229
 7030WAT     H121332   3.077   4.002   9.259
 7030WAT     H221333   3.187   4.085   9.172
 7031WAT      O21334   0.909   1.499   3.768
 7031WAT     H121335   0.963   1.448   3.835
 7031WAT     H221336   0.971   1.542   3.702
 7032WAT      O21337   0.998   5.158   5.911
 7032WAT     H121338   1.095   5.176   5.930
 7032WAT     H221339   0.959   5.102   5.985
 7033WAT      O21340   6.950   2.047   9.157
 7033WAT     H121341   6.956   2.110   9.234
 7033WAT     H221342   6.916   1.958   9.190
 7034WAT      O21343   3.059   4.435   3.644
 7034WAT     H121344   3.091   4.415   3.552
 7034WAT     H221345   3.100   4.520   3.676
 7035WAT      O21346   3.210   8.402   8.490
 7035WAT     H121347   3.223   8.497   8.463
 7035WAT     H221348   3.162   8.353   8.418
 7036WAT      O21349   5.027   7.876   3.836
 7036WAT     H121350   5.009   7.906   3.742
 7036WAT     H221351   5.078   7.947   3.885
 7037WAT      O21352   4.963   6.618   3.004
 7037WAT     H121353   4.971   6.560   2.923
 7037WAT     H221354   4.867   6.636   3.023
 7038WAT      O21355   9.629   6.579   8.935
 7038WAT     H121356   9.648   6.676   8.953
 7038WAT     H221357   9.677   6.551   8.852
 7039WAT      O21358   9.436   8.673   1.192
 7039WAT     H121359   9.494   8.700   1.115
 7039WAT     H221360   9.340   8.673   1.163
 7040WAT      O21361   8.972   9.594   3.638
 7040WAT     H121362   9.067   9.621   3.649
 7040WAT     H221363   8.951   9.586   3.540
 7041WAT      O21364   3.994   2.117   5.009
 7041WAT     H121365   3.980   2.020   5.031
 7041WAT     H221366   3.910   2.167   5.029
 7042WAT      O21367   3.614   7.513   0.990
 7042WAT     H121368   3.534   7.470   0.948
 7042WAT     H221369   3.677   7.442   1.021
 7043WAT      O21370   2.945   4.493   7.272
 7043WAT     H121371   2.986   4.570   7.322
 7043WAT     H221372   2.884   4.528   7.202
 7044WAT      O21373   5.909   0.396   5.001
 7044WAT     H121374   5.939   0.305   5.030
 7044WAT     H221375   5.947   0.416   4.910
 7045WAT      O21376   2.448   3.164   5.275
 7045WAT     H121377   2.406   3.139   5.188
 7045WAT     H221378   2.487   3.256   5.268
 7046WAT      O21379   0.002   0.697   1.735
 7046WAT     H121380   0.009   0.692   1.635
 7046WAT     H221381   0.050   0.620   1.776
 7047WAT      O21382   9.235   5.647   8.575
 7047WAT     H121383   9.168   5.576   8.557
 7047WAT     H221384   9.202   5.705   8.649
 7048WAT      O21385   9.584   3.683   8.575
 7048WAT     H121386   9.566   3.739   8.494
 7048WAT     H221387   9.513   3.699   8.643
 7049WAT      O21388   0.806   1.688   8.465
 7049WAT     H121389   0.730   1.732   8.513
 7049WAT     H221390   0.874   1.757   8.441
 7050WAT      O21391   4.599   7.589   1.285
 7050WAT     H121392   4.606   7.610   1.187
 7050WAT     H221393   4.624   7.494   1.300
 7051WAT      O21394   2.689   9.814   0.289
 7051WAT     H121395   2.649   9.820   0.380
 7051WAT     H221396   2.780   9.856   0.289
 7052WAT      O21397   9.781   6.745   9.476
 7052WAT     H121398   9.850   6.799   9.525
 7052WAT     H221399   9.705   6.725   9.538
 7053WAT      O21400   5.662   2.780   1.698
 7053WAT     H121401   5.679   2.808   1.793
 7053WAT     H221402   5.723   2.704   1.674
 7054WAT      O21403   4.181   6.429   0.855
 7054WAT     H121404   4.111   6.360   0.874
 7054WAT     H221405   4.189   6.443   0.756
 7055WAT      O21406   6.573   8.079   3.502
 7055WAT     H121407   6.643   8.041   3.442
 7055WAT     H221408   6.615   8.114   3.585
 7056WAT      O21409   6.434   2.903   3.761
 7056WAT     H121410   6.495   2.955   3.822
 7056WAT     H221411   6.397   2.825   3.810
 7057WAT      O21412   9.547   5.020   0.299
 7057WAT     H121413   9.569   4.959   0.375
 7057WAT     H221414   9.569   5.114   0.325
 7058WAT      O21415   0.782   3.175   9.388
 7058WAT     H121416   0.832   3.119   9.321
 7058WAT     H221417   0.821   3.267   9.390
 7059WAT      O21418   7.005   7.289   9.147
 7059WAT     H121419   7.032   7.375   9.190
 7059WAT     H221420   6.973   7.307   9.054
 7060WAT      O21421   8.690   7.564   0.350
 7060WAT     H121422   8.776   7.583   0.303
 7060WAT     H221423   8.643   7.490   0.303
 7061WAT      O21424   4.517   4.628   8.417
 7061WAT     H121425   4.540   4.567   8.341
 7061WAT     H221426   4.601   4.667   8.454
 7062WAT      O21427   4.584   5.890   1.008
 7062WAT     H121428   4.542   5.979   0.992
 7062WAT     H221429   4.659   5.900   1.072
 7063WAT      O21430   2.337   6.552   2.217
 7063WAT     H121431   2.399   6.475   2.234
 7063WAT     H221432   2.346   6.581   2.122
 7064WAT      O21433   4.034   0.674   1.108
 7064WAT     H121434   4.023   0.576   1.120
 7064WAT     H221435   4.130   0.695   1.090
 7065WAT      O21436   8.471   9.214   4.238
 7065WAT     H121437   8.546   9.276   4.214
 7065WAT     H221438   8.402   9.217   4.166
 7066WAT      O21439   0.269   7.852   1.317
 7066WAT     H121440   0.307   7.930   1.366
 7066WAT     H221441   0.196   7.811   1.371
 7067WAT      O21442   2.261   4.474   2.508
 7067WAT     H121443   2.205   4.555   2.527
 7067WAT     H221444   2.353   4.488   2.545
 7068WAT      O21445   9.186   2.742   3.030
 7068WAT     H121446   9.175   2.818   3.093
 7068WAT     H221447   9.254   2.678   3.067
 7069WAT      O21448   0.057   3.979   4.330
 7069WAT     H121449   0.097   3.888   4.323
 7069WAT     H221450   0.005   4.000   4.247
 7070WAT      O21451   0.878   6.885   6.005
 7070WAT     H121452   0.906   6.942   5.927
 7070WAT     H221453   0.814   6.814   5.974
 7071WAT      O21454   5.857   1.321   2.686
 7071WAT     H121455   5.796   1.290   2.613
 7071WAT     H221456   5.925   1.384   2.648
 7072WAT      O21457   5.551   6.969   9.653
 7072WAT     H121458   5.608   7.031   9.707
 7072WAT     H221459   5.468   6.946   9.705
 7073WAT      O21460   3.284   0.952   8.244
 7073WAT     H121461   3.369   0.921   8.201
 7073WAT     H221462   3.224   0.992   8.175
 7074WAT      O21463   3.275   7.986   9.696
 7074WAT     H121464   3.356   8.003   9.752
 7074WAT     H221465   3.193   8.002   9.751
 7075WAT      O21466   5.639   7.828   1.621
 7075WAT     H121467   5.714   7.859   1.561
 7075WAT     H221468   5.678   7.780   1.699
 7076WAT      O21469   6.307   2.875   8.452
 7076WAT     H121470   6.291   2.952   8.390
 7076WAT     H221471   6.370   2.903   8.524
 7077WAT      O21472   7.337   5.466   1.279
 7077WAT     H121473   7.328   5.388   1.217
 7077WAT     H221474   7.376   5.435   1.366
 7078WAT      O21475   4.534   1.560   2.214
 7078WAT     H121476   4.443   1.593   2.191
 7078WAT     H221477   4.545   1.559   2.314
 7079WAT      O21478   3.135   4.066   4.988
 7079WAT     H121479   3.158   4.116   5.071
 7079WAT     H221480   3.136   3.968   5.006
 7080WAT      O21481   7.515   0.264   2.451
 7080WAT     H121482   7.500   0.199   2.526
 7080WAT     H221483   7.579   0.225   2.386
 7081WAT      O21484   4.154   7.626   7.885
 7081WAT     H121485   4.153   7.671   7.796
 7081WAT     H221486   4.223   7.669   7.943
 7082WAT      O21487   9.130   8.902   4.973
 7082WAT     H121488   9.061   8.829   4.975
 7082WAT     H221489   9.138   8.944   5.063
 7083WAT      O21490   8.994   5.235   0.567
 7083WAT     H121491   8.976   5.194   0.657
 7083WAT     H221492   9.048   5.171   0.512
 7084WAT      O21493   0.221   3.272   3.830
 7084WAT     H121494   0.194   3.368   3.840
 7084WAT     H221495   0.300   3.253   3.888
 7085WAT      O21496   3.858   7.263   3.930
 7085WAT     H121497   3.824   7.209   4.007
 7085WAT     H221498   3.829   7.358   3.939
 7086WAT      O21499   9.094   6.714   3.258
 7086WAT     H121500   9.129   6.783   3.322
 7086WAT     H221501   9.167   6.648   3.239
 7087WAT      O21502   3.231   0.759   0.664
 7087WAT     H121503   3.178   0.784   0.583
 7087WAT     H221504   3.210   0.823   0.738
 7088WAT      O21505   9.664   5.084   2.048
 7088WAT     H121506   9.588   5.148   2.050
 7088WAT     H221507   9.746   5.130   2.084
 7089WAT      O21508   0.987   7.336   5.427
 7089WAT     H121509   0.908   7.397   5.426
 7089WAT     H221510   0.973   7.262   5.361
 7090WAT      O21511   4.535   2.567   6.258
 7090WAT     H121512   4.611   2.631   6.248
 7090WAT     H221513   4.551   2.487   6.200
 7091WAT      O21514   6.758   5.599   1.678
 7091WAT     H121515   6.810   5.682   1.696
 7091WAT     H221516   6.679   5.620   1.620
 7092WAT      O21517   3.533   4.706   8.588
 7092WAT     H121518   3.627   4.679   8.566
 7092WAT     H221519   3.516   4.799   8.554
 7093WAT      O21520   8.608   6.891   7.658
 7093WAT     H121521   8.671   6.886   7.735
 7093WAT     H221522   8.656   6.867   7.574
 7094WAT      O21523   1.531   7.686   9.561
 7094WAT     H121524   1.611   7.717   9.509
 7094WAT     H221525   1.561   7.635   9.641
 7095WAT      O21526   4.345   7.174   0.455
 7095WAT     H121527   4.390   7.131   0.533
 7095WAT     H221528   4.410   7.185   0.381
 7096WAT      O21529   3.629   2.675   4.781
 7096WAT     H121530   3.565   2.751   4.771
 7096WAT     H221531   3.700   2.682   4.710
 7097WAT      O21532   1.059   1.312   7.758
 7097WAT     H121533   1.126   1.239   7.739
 7097WAT     H221534   1.065   1.381   7.686
 7098WAT      O21535   0.367   2.443   4.509
 7098WAT     H121536   0.420   2.429   4.426
 7098WAT     H221537   0.320   2.532   4.504
 7099WAT      O21538   5.116   8.835   9.445
 7099WAT     H121539   5.205   8.800   9.416
 7099WAT     H221540   5.076   8.892   9.373
 7100WAT      O21541   4.275   5.204   1.601
 7100WAT     H121542   4.251   5.299   1.577
 7100WAT     H221543   4.312   5.202   1.694
 7101WAT      O21544   7.339   8.729   3.227
 7101WAT     H121545   7.280   8.682   3.162
 7101WAT     H221546   7.337   8.828   3.210
 7102WAT      O21547   0.710   4.640   4.163
 7102WAT     H121548   0.661   4.622   4.078
 7102WAT     H221549   0.713   4.739   4.179
 7103WAT      O21550   8.008   7.741   9.777
 7103WAT     H121551   8.082   7.808   9.776
 7103WAT     H221552   8.033   7.662   9.720
 7104WAT      O21553   9.336   9.271   3.442
 7104WAT     H121554   9.238   9.262   3.456
 7104WAT     H221555   9.384   9.201   3.494
 7105WAT      O21556   3.826   1.584   5.012
 7105WAT     H121557   3.758   1.606   5.082
 7105WAT     H221558   3.862   1.492   5.028
 7106WAT      O21559   0.336   1.734   2.584
 7106WAT     H121560   0.374   1.720   2.676
 7106WAT     H221561   0.324   1.645   2.539
 7107WAT      O21562   1.426   0.163   1.518
 7107WAT     H121563   1.407   0.254   1.481
 7107WAT     H221564   1.400   0.160   1.615
 7108WAT      O21565   1.447   1.029   3.716
 7108WAT     H121566   1.380   1.095   3.682
 7108WAT     H221567   1.456   1.038   3.815
 7109WAT      O21568   5.514   8.839   0.756
 7109WAT     H121569   5.525   8.823   0.854
 7109WAT     H221570   5.435   8.898   0.741
 7110WAT      O21571   9.085   9.254   3.570
 7110WAT     H121572   9.111   9.166   3.609
 7110WAT     H221573   8.986   9.255   3.554
 7111WAT      O21574   7.782   7.836   4.058
 7111WAT     H121575   7.854   7.781   4.100
 7111WAT     H221576   7.786   7.825   3.958
 7112WAT      O21577   3.194   1.530   1.275
 7112WAT     H121578   3.104   1.569   1.298
 7112WAT     H221579   3.213   1.546   1.178
 7113WAT      O21580   5.862   2.388   4.696
 7113WAT     H121581   5.800   2.438   4.636
 7113WAT     H221582   5.809   2.340   4.766
 7114WAT      O21583   0.305   3.586   4.056
 7114WAT     H121584   0.383   3.649   4.061
 7114WAT     H221585   0.323   3.507   4.115
 7115WAT      O21586   8.436   2.360   5.531
 7115WAT     H121587   8.434   2.285   5.465
 7115WAT     H221588   8.407   2.325   5.621
 7116WAT      O21589   3.972   1.026   4.094
 7116WAT     H121590   3.973   1.089   4.171
 7116WAT     H221591   4.066   1.012   4.061
 7117WAT      O21592   3.693   1.943   4.774
 7117WAT     H121593   3.792   1.927   4.783
 7117WAT     H221594   3.675   1.994   4.690
 7118WAT      O21595   1.387   4.061   4.889
 7118WAT     H121596   1.289   4.082   4.887
 7118WAT     H221597   1.401   3.971   4.929
 7119WAT      O21598   0.533   3.906   6.556
 7119WAT     H121599   0.578   3.995   6.559
 7119WAT     H221600   0.562   3.857   6.474
 7120WAT      O21601   9.549   6.892   2.533
 7120WAT     H121602   9.624   6.891   2.468
 7120WAT     H221603   9.585   6.905   2.626
 7121WAT      O21604   2.747   1.555   2.700
 7121WAT     H121605   2.780   1.461   2.693
 7121WAT     H221606   2.810   1.608   2.757
 7122WAT      O21607   7.992   0.899   1.221
 7122WAT     H121608   8.072   0.862   1.269
 7122WAT     H221609   7.911   0.890   1.279
 7123WAT      O21610   6.092   1.297   8.878
 7123WAT     H121611   6.116   1.290   8.974
 7123WAT     H221612   6.099   1.393   8.848
 7124WAT      O21613   0.389   1.409   8.781
 7124WAT     H121614   0.386   1.499   8.739
 7124WAT     H221615   0.297   1.371   8.786
 7125WAT      O21616   2.833   3.926   4.242
 7125WAT     H121617   2.870   3.833   4.245
 7125WAT     H221618   2.899   3.986   4.196
 7126WAT      O21619   8.109   4.556   8.008
 7126WAT     H121620   8.097   4.649   7.974
 7126WAT     H221621   8.150   4.558   8.099
 7127WAT      O21622   7.511   4.974   7.824
 7127WAT     H121623   7.559   4.947   7.907
 7127WAT     H221624   7.563   4.944   7.743
 7128WAT      O21625   5.392   8.381   7.067
 7128WAT     H121626   5.298   8.356   7.093
 7128WAT     H221627   5.454   8.360   7.143
 7129WAT      O21628   0.531   2.879   9.440
 7129WAT     H121629   0.505   2.972   9.415
 7129WAT     H221630   0.453   2.834   9.484
 7130WAT      O21631   2.124   4.969   7.265
 7130WAT     H121632   2.164   5.060   7.263
 7130WAT     H221633   2.033   4.973   7.306
 7131WAT      O21634   9.725   7.405   0.540
 7131WAT     H121635   9.758   7.317   0.572
 7131WAT     H221636   9.800   7.457   0.501
 7132WAT      O21637   6.516   1.456   3.868
 7132WAT     H121638   6.598   1.452   3.810
 7132WAT     H221639   6.441   1.409   3.822
 7133WAT      O21640   8.229   7.650   6.067
 7133WAT     H121641   8.129   7.659   6.076
 7133WAT     H221642   8.270   7.741   6.064
 7134WAT      O21643   4.040   0.990   9.442
 7134WAT     H121644   4.009   0.920   9.507
 7134WAT     H221645   4.017   1.081   9.477
 7135WAT      O21646   2.168   8.029   9.213
 7135WAT     H121647   2.160   7.948   9.154
 7135WAT     H221648   2.180   8.110   9.157
 7136WAT      O21649   1.348   0.403   2.720
 7136WAT     H121650   1.359   0.460   2.802
 7136WAT     H221651   1.250   0.391   2.701
 7137WAT      O21652   4.245   0.512   3.958
 7137WAT     H121653   4.256   0.567   3.875
 7137WAT     H221654   4.326   0.523   4.016
 7138WAT      O21655   2.232   8.983   3.835
 7138WAT     H121656   2.163   9.040   3.880
 7138WAT     H221657   2.206   8.887   3.843
 7139WAT      O21658   6.428   4.052   2.566
 7139WAT     H121659   6.432   3.966   2.617
 7139WAT     H221660   6.501   4.113   2.597
 7140WAT      O21661   4.772   4.180   5.474
 7140WAT     H121662   4.716   4.157   5.553
 7140WAT     H221663   4.785   4.099   5.418
 7141WAT      O21664   8.394   5.651   5.326
 7141WAT     H121665   8.401   5.563   5.278
 7141WAT     H221666   8.298   5.681   5.326
 7142WAT      O21667   6.159   6.690   2.926
 7142WAT     H121668   6.206   6.777   2.941
 7142WAT     H221669   6.063   6.706   2.906
 7143WAT      O21670   2.113   7.304   4.372
 7143WAT     H121671   2.036   7.262   4.324
 7143WAT     H221672   2.158   7.236   4.430
 7144WAT      O21673   3.935   5.349   7.580
 7144WAT     H121674   3.849   5.352   7.530
 7144WAT     H221675   3.944   5.260   7.626
 7145WAT      O21676   4.040   6.991   3.604
 7145WAT     H121677   3.989   6.931   3.666
 7145WAT     H221678   4.131   6.953   3.588
 7146WAT      O21679   1.408   5.258   1.368
 7146WAT     H121680   1.352   5.232   1.447
 7146WAT     H221681   1.382   5.203   1.289
 7147WAT      O21682   5.830   8.448   7.740
 7147WAT     H121683   5.744   8.413   7.705
 7147WAT     H221684   5.883   8.374   7.781
 7148WAT      O21685   6.695   2.344   5.181
 7148WAT     H121686   6.649   2.432   5.191
 7148WAT     H221687   6.758   2.331   5.257
 7149WAT      O21688   3.507   4.338   9.125
 7149WAT     H121689   3.561   4.383   9.197
 7149WAT     H221690   3.538   4.244   9.115
 7150WAT      O21691   8.750   7.054   2.244
 7150WAT     H121692   8.681   7.122   2.269
 7150WAT     H221693   8.706   6.966   2.228
 7151WAT      O21694   0.699   8.559   3.213
 7151WAT     H121695   0.629   8.507   3.262
 7151WAT     H221696   0.787   8.549   3.259
 7152WAT      O21697   3.029   6.932   4.336
 7152WAT     H121698   3.062   6.919   4.242
 7152WAT     H221699   2.935   6.899   4.343
 7153WAT      O21700   6.290   5.273   7.420
 7153WAT     H121701   6.208   5.275   7.477
 7153WAT     H221702   6.267   5.302   7.327
 7154WAT      O21703   4.856   3.239   9.562
 7154WAT     H121704   4.920   3.310   9.590
 7154WAT     H221705   4.777   3.239   9.623
 7155WAT      O21706   3.140   8.059   6.408
 7155WAT     H121707   3.068   7.993   6.388
 7155WAT     H221708   3.163   8.111   6.325
 7156WAT      O21709   1.195   8.162   2.360
 7156WAT     H121710   1.248   8.094   2.411
 7156WAT     H221711   1.255   8.238   2.334
 7157WAT      O21712   9.400   5.946   3.848
 7157WAT     H121713   9.357   5.907   3.767
 7157WAT     H221714   9.489   5.901   3.863
 7158WAT      O21715   5.509   7.732   6.355
 7158WAT     H121716   5.432   7.676   6.322
 7158WAT     H221717   5.592   7.704   6.307
 7159WAT      O21718   0.363   3.717   9.020
 7159WAT     H121719   0.308   3.635   9.007
 7159WAT     H221720   0.327   3.791   8.964
 7160WAT      O21721   0.868   7.538   4.105
 7160WAT     H121722   0.832   7.449   4.077
 7160WAT     H221723   0.807   7.580   4.172
 7161WAT      O21724   7.265   5.074   8.824
 7161WAT     H121725   7.192   5.124   8.777
 7161WAT     H221726   7.287   5.120   8.910
 7162WAT      O21727   3.372   7.965   5.796
 7162WAT     H121728   3.353   7.958   5.698
 7162WAT     H221729   3.329   7.889   5.844
 7163WAT      O21730   7.017   5.504   9.580
 7163WAT     H121731   7.059   5.419   9.613
 7163WAT     H221732   7.062   5.533   9.496
 7164WAT      O21733   4.598   6.223   7.275
 7164WAT     H121734   4.557   6.132   7.288
 7164WAT     H221735   4.683   6.229   7.327
 7165WAT      O21736   3.759   9.385   0.299
 7165WAT     H121737   3.848   9.364   0.338
 7165WAT     H221738   3.749   9.339   0.211
 7166WAT      O21739   4.009   0.359   3.874
 7166WAT     H121740   4.040   0.421   3.945
 7166WAT     H221741   4.009   0.407   3.786
 7167WAT      O21742   6.563   6.186   5.369
 7167WAT     H121743   6.478   6.132   5.372
 7167WAT     H221744   6.577   6.232   5.456
 7168WAT      O21745   5.769   9.524   4.327
 7168WAT     H121746   5.780   9.525   4.427
 7168WAT     H221747   5.831   9.589   4.286
 7169WAT      O21748   4.104   2.707   2.673
 7169WAT     H121749   4.065   2.620   2.644
 7169WAT     H221750   4.047   2.746   2.746
 7170WAT      O21751   8.328   4.734   0.180
 7170WAT     H121752   8.272   4.790   0.120
 7170WAT     H221753   8.342   4.781   0.267
 7171WAT      O21754   7.894   5.854   7.373
 7171WAT     H121755   7.976   5.907   7.396
 7171WAT     H221756   7.813   5.902   7.406
 7172WAT      O21757   5.114   9.711   0.995
 7172WAT     H121758   5.031   9.736   1.046
 7172WAT     H221759   5.130   9.778   0.922
 7173WAT      O21760   9.584   0.572   4.942
 7173WAT     H121761   9.539   0.613   4.863
 7173WAT     H221762   9.537   0.488   4.967
 7174WAT      O21763   8.053   3.533   0.871
 7174WAT     H121764   8.110   3.488   0.802
 7174WAT     H221765   8.089   3.513   0.962
 7175WAT      O21766   4.347   5.064   9.524
 7175WAT     H121767   4.386   5.113   9.603
 7175WAT     H221768   4.421   5.028   9.468
 7176WAT      O21769   7.207   6.024   0.463
 7176WAT     H121770   7.256   6.059   0.543
 7176WAT     H221771   7.221   5.926   0.455
 7177WAT      O21772   5.441   2.446   7.606
 7177WAT     H121773   5.401   2.373   7.662
 7177WAT     H221774   5.369   2.492   7.554
 7178WAT      O21775   0.818   8.047   1.956
 7178WAT     H121776   0.899   8.022   2.008
 7178WAT     H221777   0.845   8.086   1.868
 7179WAT      O21778   9.606   8.795   0.135
 7179WAT     H121779   9.668   8.837   0.201
 7179WAT     H221780   9.656   8.730   0.078
 7180WAT      O21781   6.799   9.564   3.626
 7180WAT     H121782   6.883   9.605   3.591
 7180WAT     H221783   6.820   9.511   3.708
 7181WAT      O21784   1.050   7.275   0.720
 7181WAT     H121785   0.970   7.334   0.722
 7181WAT     H221786   1.071   7.249   0.625
 7182WAT      O21787   1.908   0.144   5.522
 7182WAT     H121788   1.841   0.091   5.470
 7182WAT     H221789   1.879   0.239   5.526
 7183WAT      O21790   9.421   9.164   7.502
 7183WAT     H121791   9.373   9.170   7.590
 7183WAT     H221792   9.369   9.105   7.440
 7184WAT      O21793   5.748   5.064   6.136
 7184WAT     H121794   5.753   4.989   6.070
 7184WAT     H221795   5.732   5.150   6.088
 7185WAT      O21796   2.984   2.324   9.772
 7185WAT     H121797   2.977   2.408   9.825
 7185WAT     H221798   3.079   2.312   9.741
 7186WAT      O21799   9.029   2.866   9.200
 7186WAT     H121800   8.947   2.882   9.146
 7186WAT     H221801   9.008   2.878   9.297
 7187WAT      O21802   7.336   6.470   0.156
 7187WAT     H121803   7.268   6.543   0.167
 7187WAT     H221804   7.386   6.458   0.242
 7188WAT      O21805   8.786   3.888   5.285
 7188WAT     H121806   8.733   3.804   5.288
 7188WAT     H221807   8.789   3.923   5.191
 7189WAT      O21808   0.684   3.502   6.147
 7189WAT     H121809   0.764   3.443   6.139
 7189WAT     H221810   0.640   3.487   6.235
 7190WAT      O21811   6.639   5.591   8.839
 7190WAT     H121812   6.697   5.550   8.909
 7190WAT     H221813   6.543   5.566   8.857
 7191WAT      O21814   4.763   7.835   3.956
 7191WAT     H121815   4.743   7.776   4.034
 7191WAT     H221816   4.846   7.804   3.911
 7192WAT      O21817   1.738   0.083   9.103
 7192WAT     H121818   1.779   0.043   9.185
 7192WAT     H221819   1.726   0.182   9.117
 7193WAT      O21820   2.863   4.209   6.983
 7193WAT     H121821   2.962   4.199   6.974
 7193WAT     H221822   2.838   4.304   6.965
 7194WAT      O21823   2.951   7.663   0.361
 7194WAT     H121824   2.907   7.574   0.370
 7194WAT     H221825   2.892   7.734   0.401
 7195WAT      O21826   6.671   1.804   8.173
 7195WAT     H121827   6.604   1.828   8.243
 7195WAT     H221828   6.626   1.754   8.099
 7196WAT      O21829   4.513   1.269   6.202
 7196WAT     H121830   4.579   1.263   6.127
 7196WAT     H221831   4.437   1.206   6.185
 7197WAT      O21832   8.563   8.986   5.788
 7197WAT     H121833   8.584   8.993   5.691
 7197WAT     H221834   8.636   8.936   5.835
 7198WAT      O21835   7.039   1.489   2.851
 7198WAT     H121836   7.074   1.395   2.855
 7198WAT     H221837   6.941   1.487   2.832
 7199WAT      O21838   3.502   9.298   4.578
 7199WAT     H121839   3.460   9.338   4.660
 7199WAT     H221840   3.506   9.199   4.588
 7200WAT      O21841   4.815   8.578   1.314
 7200WAT     H121842   4.721   8.580   1.281
 7200WAT     H221843   4.851   8.672   1.316
 7201WAT      O21844   9.423   7.983   9.822
 7201WAT     H121845   9.494   7.974   9.752
 7201WAT     H221846   9.333   7.979   9.778
 7202WAT      O21847   2.442   7.662   6.883
 7202WAT     H121848   2.526   7.610   6.898
 7202WAT     H221849   2.399   7.633   6.798
 7203WAT      O21850   4.721   0.881   9.609
 7203WAT     H121851   4.672   0.813   9.555
 7203WAT     H221852   4.689   0.972   9.586
 7204WAT      O21853   8.799   2.295   9.243
 7204WAT     H121854   8.745   2.261   9.165
 7204WAT     H221855   8.757   2.378   9.279
 7205WAT      O21856   3.439   7.155   0.461
 7205WAT     H121857   3.414   7.154   0.558
 7205WAT     H221858   3.446   7.250   0.430
 7206WAT      O21859   1.566   4.835   5.044
 7206WAT     H121860   1.666   4.829   5.041
 7206WAT     H221861   1.539   4.894   5.120
 7207WAT      O21862   5.945   0.142   0.578
 7207WAT     H121863   5.973   0.208   0.507
 7207WAT     H221864   5.846   0.131   0.575
 7208WAT      O21865   1.556   7.090   4.524
 7208WAT     H121866   1.626   7.019   4.525
 7208WAT     H221867   1.567   7.148   4.604
 7209WAT      O21868   1.037   0.244   5.034
 7209WAT     H121869   1.036   0.173   5.104
 7209WAT     H221870   1.041   0.200   4.943
 7210WAT      O21871   9.193   5.183   1.577
 7210WAT     H121872   9.230   5.091   1.569
 7210WAT     H221873   9.094   5.179   1.590
 7211WAT      O21874   9.769   6.489   8.024
 7211WAT     H121875   9.830   6.410   8.034
 7211WAT     H221876   9.777   6.547   8.105
 7212WAT      O21877   1.059   3.074   3.540
 7212WAT     H121878   1.022   3.000   3.484
 7212WAT     H221879   1.023   3.068   3.633
 7213WAT      O21880   4.786   0.149   8.823
 7213WAT     H121881   4.818   0.229   8.873
 7213WAT     H221882   4.859   0.116   8.762
 7214WAT      O21883   7.891   4.375   3.702
 7214WAT     H121884   7.960   4.338   3.640
 7214WAT     H221885   7.816   4.310   3.713
 7215WAT      O21886   5.553   5.595   4.959
 7215WAT     H121887   5.463   5.630   4.933
 7215WAT     H221888   5.560   5.498   4.934
 7216WAT      O21889   1.599   1.681   7.089
 7216WAT     H121890   1.663   1.672   7.165
 7216WAT     H221891   1.508   1.653   7.119
 7217WAT      O21892   0.842   1.662   0.730
 7217WAT     H121893   0.820   1.702   0.819
 7217WAT     H221894   0.772   1.595   0.705
 7218WAT      O21895   3.941   2.841   1.043
 7218WAT     H121896   3.968   2.858   0.948
 7218WAT     H221897   4.013   2.876   1.104
 7219WAT      O21898   9.271   1.725   7.883
 7219WAT     H121899   9.180   1.741   7.920
 7219WAT     H221900   9.298   1.630   7.899
 7220WAT      O21901   7.202   6.269   8.459
 7220WAT     H121902   7.217   6.176   8.426
 7220WAT     H221903   7.110   6.299   8.436
 7221WAT      O21904   1.590   6.586   4.098
 7221WAT     H121905   1.516   6.633   4.146
 7221WAT     H221906   1.678   6.627   4.124
 7222WAT      O21907   9.322   1.154   5.654
 7222WAT     H121908   9.351   1.242   5.691
 7222WAT     H221909   9.235   1.165   5.606
 7223WAT      O21910   2.874   2.635   3.832
 7223WAT     H121911   2.961   2.605   3.793
 7223WAT     H221912   2.800   2.616   3.767
 7224WAT      O21913   8.926   5.085   8.285
 7224WAT     H121914   8.931   5.067   8.383
 7224WAT     H221915   8.895   5.003   8.237
 7225WAT      O21916   3.182   3.405   7.726
 7225WAT     H121917   3.140   3.418   7.816
 7225WAT     H221918   3.243   3.481   7.706
 7226WAT      O21919   3.736   6.483   1.236
 7226WAT     H121920   3.674   6.445   1.304
 7226WAT     H221921   3.684   6.532   1.167
 7227WAT      O21922   0.862   0.133   6.860
 7227WAT     H121923   0.797   0.109   6.789
 7227WAT     H221924   0.932   0.062   6.867
 7228WAT      O21925   1.618   2.641   3.102
 7228WAT     H121926   1.658   2.716   3.050
 7228WAT     H221927   1.548   2.678   3.164
 7229WAT      O21928   3.537   1.096   2.830
 7229WAT     H121929   3.613   1.034   2.808
 7229WAT     H221930   3.466   1.044   2.878
 7230WAT      O21931   3.883   3.824   4.864
 7230WAT     H121932   3.911   3.916   4.892
 7230WAT     H221933   3.839   3.778   4.941
 7231WAT      O21934   0.286   0.973   9.643
 7231WAT     H121935   0.314   1.031   9.567
 7231WAT     H221936   0.305   1.019   9.729
 7232WAT      O21937   7.975   4.538   1.818
 7232WAT     H121938   8.013   4.468   1.758
 7232WAT     H221939   8.041   4.612   1.829
 7233WAT      O21940   8.581   3.741   3.908
 7233WAT     H121941   8.491   3.699   3.892
 7233WAT     H221942   8.605   3.797   3.829
 7234WAT      O21943   4.115   4.608   2.421
 7234WAT     H121944   4.024   4.634   2.452
 7234WAT     H221945   4.115   4.512   2.394
 7235WAT      O21946   3.865   8.579   2.050
 7235WAT     H121947   3.917   8.493   2.042
 7235WAT     H221948   3.861   8.624   1.961
 7236WAT      O21949   4.913   4.991   7.203
 7236WAT     H121950   4.947   4.901   7.175
 7236WAT     H221951   4.903   4.994   7.302
 7237WAT      O21952   9.605   4.305   3.555
 7237WAT     H121953   9.519   4.302   3.504
 7237WAT     H221954   9.594   4.257   3.642
 7238WAT      O21955   4.514   3.840   2.924
 7238WAT     H121956   4.456   3.782   2.981
 7238WAT     H221957   4.601   3.795   2.908
 7239WAT      O21958   7.758   1.962   9.034
 7239WAT     H121959   7.791   1.941   8.942
 7239WAT     H221960   7.674   2.017   9.027
 7240WAT      O21961   6.018   1.467   4.810
 7240WAT     H121962   6.054   1.438   4.898
 7240WAT     H221963   6.014   1.567   4.807
 7241WAT      O21964   1.472   7.642   6.383
 7241WAT     H121965   1.422   7.703   6.321
 7241WAT     H221966   1.438   7.656   6.476
 7242WAT      O21967   0.992   8.196   5.971
 7242WAT     H121968   1.075   8.141   5.979
 7242WAT     H221969   1.002   8.280   6.025
 7243WAT      O21970   6.032   4.387   8.759
 7243WAT     H121971   6.077   4.476   8.744
 7243WAT     H221972   6.033   4.334   8.675
 7244WAT      O21973   0.012   2.799   8.101
 7244WAT     H121974  -0.030   2.878   8.144
 7244WAT     H221975   0.017   2.814   8.002
 7245WAT      O21976   2.836   0.077   7.565
 7245WAT     H121977   2.903   0.123   7.622
 7245WAT     H221978   2.793   0.002   7.617
 7246WAT      O21979   6.972   5.057   2.771
 7246WAT     H121980   6.888   5.109   2.788
 7246WAT     H221981   7.028   5.058   2.854
 7247WAT      O21982   1.741   1.746   1.282
 7247WAT     H121983   1.663   1.808   1.280
 7247WAT     H221984   1.712   1.655   1.311
 7248WAT      O21985   8.951   2.320   1.038
 7248WAT     H121986   8.891   2.350   0.963
 7248WAT     H221987   8.924   2.229   1.068
 7249WAT      O21988   5.821   2.534   1.743
 7249WAT     H121989   5.792   2.529   1.839
 7249WAT     H221990   5.903   2.591   1.737
 7250WAT      O21991   4.521   5.333   4.210
 7250WAT     H121992   4.453   5.296   4.274
 7250WAT     H221993   4.603   5.277   4.213
 7251WAT      O21994   4.051   2.842   9.535
 7251WAT     H121995   3.995   2.788   9.598
 7251WAT     H221996   3.992   2.881   9.464
 7252WAT      O21997   5.181   1.594   6.908
 7252WAT     H121998   5.264   1.554   6.947
 7252WAT     H221999   5.112   1.605   6.980
 7253WAT      O22000   2.302   6.408   7.245
 7253WAT     H122001   2.211   6.377   7.215
 7253WAT     H222002   2.293   6.497   7.289
 7254WAT      O22003   2.685   1.975   5.255
 7254WAT     H122004   2.647   2.057   5.298
 7254WAT     H222005   2.617   1.902   5.255
 7255WAT      O22006   5.266   4.513   9.458
 7255WAT     H122007   5.216   4.438   9.415
 7255WAT     H222008   5.308   4.480   9.543
 7256WAT      O22009   7.033   0.974   1.721
 7256WAT     H122010   6.994   0.985   1.629
 7256WAT     H222011   7.133   0.983   1.716
 7257WAT      O22012   0.378   7.636   5.164
 7257WAT     H122013   0.390   7.735   5.168
 7257WAT     H222014   0.398   7.603   5.071
 7258WAT      O22015   6.341   3.305   6.344
 7258WAT     H122016   6.318   3.356   6.261
 7258WAT     H222017   6.273   3.233   6.359
 7259WAT      O22018   0.717   0.049   7.717
 7259WAT     H122019   0.740  -0.044   7.746
 7259WAT     H222020   0.800   0.095   7.685
 7260WAT      O22021   9.786   0.213   1.477
 7260WAT     H122022   9.733   0.265   1.410
 7260WAT     H222023   9.788   0.262   1.563
 7261WAT      O22024   1.810   9.315   7.847
 7261WAT     H122025   1.815   9.252   7.768
 7261WAT     H222026   1.767   9.268   7.924
 7262WAT      O22027   2.279   9.291   1.444
 7262WAT     H122028   2.214   9.312   1.370
 7262WAT     H222029   2.229   9.279   1.529
 7263WAT      O22030   3.872   6.020   8.180
 7263WAT     H122031   3.798   5.956   8.160
 7263WAT     H222032   3.845   6.081   8.254
 7264WAT      O22033   6.339   7.755   3.017
 7264WAT     H122034   6.353   7.751   3.116
 7264WAT     H222035   6.428   7.753   2.971
 7265WAT      O22036   6.477   0.330   6.738
 7265WAT     H122037   6.379   0.324   6.718
 7265WAT     H222038   6.518   0.239   6.734
 7266WAT      O22039   1.930   9.719   4.597
 7266WAT     H122040   1.893   9.673   4.677
 7266WAT     H222041   1.917   9.662   4.516
 7267WAT      O22042   8.186   0.428   5.787
 7267WAT     H122043   8.132   0.344   5.786
 7267WAT     H222044   8.151   0.488   5.859
 7268WAT      O22045   1.709   6.924   4.366
 7268WAT     H122046   1.655   6.888   4.290
 7268WAT     H222047   1.805   6.932   4.337
 7269WAT      O22048   2.062   0.038   6.933
 7269WAT     H122049   2.005   0.104   6.983
 7269WAT     H222050   2.085   0.075   6.843
 7270WAT      O22051   4.052   4.133   6.364
 7270WAT     H122052   4.140   4.088   6.379
 7270WAT     H222053   3.987   4.067   6.326
 7271WAT      O22054   7.172   0.953   7.942
 7271WAT     H122055   7.243   0.976   8.009
 7271WAT     H222056   7.214   0.943   7.851
 7272WAT      O22057   0.521   9.030   3.261
 7272WAT     H122058   0.562   8.979   3.336
 7272WAT     H222059   0.503   9.124   3.289
 7273WAT      O22060   8.464   2.226   0.611
 7273WAT     H122061   8.480   2.172   0.693
 7273WAT     H222062   8.436   2.167   0.536
 7274WAT      O22063   6.438   1.207   0.302
 7274WAT     H122064   6.451   1.113   0.272
 7274WAT     H222065   6.449   1.213   0.401
 7275WAT      O22066   2.762   9.271   2.952
 7275WAT     H122067   2.700   9.262   3.030
 7275WAT     H222068   2.715   9.317   2.877
 7276WAT      O22069   9.371   9.273   2.569
 7276WAT     H122070   9.360   9.216   2.650
 7276WAT     H222071   9.284   9.275   2.519
 7277WAT      O22072   5.320   6.312   5.501
 7277WAT     H122073   5.272   6.295   5.415
 7277WAT     H222074   5.265   6.373   5.558
 7278WAT      O22075   2.065   1.182   8.211
 7278WAT     H122076   2.051   1.085   8.190
 7278WAT     H222077   2.021   1.238   8.140
 7279WAT      O22078   1.413   5.120   4.064
 7279WAT     H122079   1.508   5.133   4.092
 7279WAT     H222080   1.406   5.037   4.008
 7280WAT      O22081   4.535   9.436   4.288
 7280WAT     H122082   4.529   9.529   4.325
 7280WAT     H222083   4.470   9.377   4.336
 7281WAT      O22084   3.657   6.423   7.581
 7281WAT     H122085   3.568   6.378   7.586
 7281WAT     H222086   3.647   6.519   7.609
 7282WAT      O22087   5.673   6.871   6.057
 7282WAT     H122088   5.597   6.936   6.045
 7282WAT     H222089   5.753   6.903   6.007
 7283WAT      O22090   6.633   4.128   4.860
 7283WAT     H122091   6.634   4.217   4.906
 7283WAT     H222092   6.628   4.056   4.928
 7284WAT      O22093   3.730   9.521   7.443
 7284WAT     H122094   3.693   9.428   7.443
 7284WAT     H222095   3.691   9.572   7.519
 7285WAT      O22096   8.400   4.380   5.290
 7285WAT     H122097   8.311   4.418   5.266
 7285WAT     H222098   8.466   4.455   5.301
 7286WAT      O22099   1.686   1.343   1.239
 7286WAT     H122100   1.771   1.331   1.188
 7286WAT     H222101   1.684   1.433   1.281
 7287WAT      O22102   7.551   9.491   5.029
 7287WAT     H122103   7.468   9.488   5.085
 7287WAT     H222104   7.627   9.450   5.080
 7288WAT      O22105   4.601   7.838   3.054
 7288WAT     H122106   4.639   7.923   3.017
 7288WAT     H222107   4.568   7.855   3.147
 7289WAT      O22108   9.865   7.110   0.347
 7289WAT     H122109   9.895   7.015   0.341
 7289WAT     H222110   9.768   7.113   0.370
 7290WAT      O22111   8.552   2.806   5.961
 7290WAT     H122112   8.512   2.790   5.871
 7290WAT     H222113   8.547   2.903   5.983
 7291WAT      O22114   0.791   0.484   2.276
 7291WAT     H122115   0.805   0.531   2.189
 7291WAT     H222116   0.699   0.445   2.278
 7292WAT      O22117   2.758   7.657   3.163
 7292WAT     H122118   2.670   7.700   3.139
 7292WAT     H222119   2.824   7.728   3.189
 7293WAT      O22120   5.111   5.243   7.407
 7293WAT     H122121   5.197   5.201   7.379
 7293WAT     H222122   5.040   5.174   7.412
 7294WAT      O22123   9.022   5.789   1.349
 7294WAT     H122124   8.947   5.829   1.296
 7294WAT     H222125   8.989   5.707   1.396
 7295WAT      O22126   2.519   5.540   8.123
 7295WAT     H122127   2.491   5.563   8.216
 7295WAT     H222128   2.533   5.623   8.070
 7296WAT      O22129   7.362   2.953   4.792
 7296WAT     H122130   7.414   2.993   4.867
 7296WAT     H222131   7.292   2.892   4.830
 7297WAT      O22132   2.458   5.466   6.533
 7297WAT     H122133   2.394   5.411   6.480
 7297WAT     H222134   2.409   5.542   6.577
 7298WAT      O22135   3.400   0.902   2.947
 7298WAT     H122136   3.395   0.913   3.046
 7298WAT     H222137   3.467   0.831   2.925
 7299WAT      O22138   9.565   0.724   3.964
 7299WAT     H122139   9.650   0.769   3.992
 7299WAT     H222140   9.586   0.651   3.900
 7300WAT      O22141   7.060   8.236   5.284
 7300WAT     H122142   7.043   8.294   5.204
 7300WAT     H222143   7.148   8.190   5.273
 7301WAT      O22144   3.773   4.393   7.188
 7301WAT     H122145   3.873   4.395   7.186
 7301WAT     H222146   3.739   4.474   7.235
 7302WAT      O22147   4.128   9.529   9.577
 7302WAT     H122148   4.190   9.460   9.614
 7302WAT     H222149   4.158   9.556   9.486
 7303WAT      O22150   2.019   8.618   1.923
 7303WAT     H122151   1.937   8.614   1.980
 7303WAT     H222152   2.036   8.713   1.896
 7304WAT      O22153   5.383   5.892   1.027
 7304WAT     H122154   5.403   5.813   0.969
 7304WAT     H222155   5.447   5.894   1.105
 7305WAT      O22156   5.119   1.056   9.721
 7305WAT     H122157   5.043   1.109   9.758
 7305WAT     H222158   5.085   0.993   9.651
 7306WAT      O22159   6.555   1.126   9.109
 7306WAT     H122160   6.456   1.116   9.118
 7306WAT     H222161   6.575   1.196   9.040
 7307WAT      O22162   3.636   0.885   5.797
 7307WAT     H122163   3.635   0.913   5.701
 7307WAT     H222164   3.549   0.840   5.820
 7308WAT      O22165   5.234   9.694   8.125
 7308WAT     H122166   5.314   9.686   8.066
 7308WAT     H222167   5.169   9.621   8.105
 7309WAT      O22168   4.453   7.088   0.668
 7309WAT     H122169   4.527   7.027   0.698
 7309WAT     H222170   4.401   7.119   0.748
 7310WAT      O22171   2.227   4.214   1.456
 7310WAT     H122172   2.207   4.261   1.543
 7310WAT     H222173   2.325   4.219   1.438
 7311WAT      O22174   0.149   6.256   5.610
 7311WAT     H122175   0.140   6.356   5.605
 7311WAT     H222176   0.183   6.222   5.522
 7312WAT      O22177   7.651   7.712   1.847
 7312WAT     H122178   7.589   7.642   1.881
 7312WAT     H222179   7.674   7.693   1.751
 7313WAT      O22180   2.349   5.307   1.148
 7313WAT     H122181   2.427   5.322   1.088
 7313WAT     H222182   2.264   5.310   1.095
 7314WAT      O22183   2.859   1.089   6.975
 7314WAT     H122184   2.901   1.011   7.021
 7314WAT     H222185   2.845   1.163   7.041
 7315WAT      O22186   9.803   1.176   9.058
 7315WAT     H122187   9.744   1.238   9.005
 7315WAT     H222188   9.888   1.223   9.080
 7316WAT      O22189   9.181   4.451   1.971
 7316WAT     H122190   9.143   4.358   1.972
 7316WAT     H222191   9.267   4.451   1.919
 7317WAT      O22192   1.982   0.361   7.566
 7317WAT     H122193   1.966   0.268   7.532
 7317WAT     H222194   1.925   0.377   7.647
 7318WAT      O22195   8.835   5.774   3.102
 7318WAT     H122196   8.888   5.689   3.106
 7318WAT     H222197   8.770   5.777   3.178
 7319WAT      O22198   9.717   9.335   8.492
 7319WAT     H122199   9.791   9.306   8.553
 7319WAT     H222200   9.691   9.429   8.513
 7320WAT      O22201   3.717   7.593   7.826
 7320WAT     H122202   3.719   7.690   7.801
 7320WAT     H222203   3.799   7.569   7.877
 7321WAT      O22204   9.144   1.600   1.724
 7321WAT     H122205   9.068   1.536   1.716
 7321WAT     H222206   9.125   1.681   1.669
 7322WAT      O22207   5.190   4.670   4.305
 7322WAT     H122208   5.187   4.585   4.357
 7322WAT     H222209   5.110   4.726   4.327
 7323WAT      O22210   9.580   2.917   8.979
 7323WAT     H122211   9.537   2.847   9.036
 7323WAT     H222212   9.644   2.971   9.034
 7324WAT      O22213   8.151   7.876   5.058
 7324WAT     H122214   8.059   7.915   5.048
 7324WAT     H222215   8.217   7.934   5.010
 7325WAT      O22216   5.277   4.137   2.974
 7325WAT     H122217   5.231   4.218   3.009
 7325WAT     H222218   5.322   4.088   3.050
 7326WAT      O22219   0.739   1.411   0.612
 7326WAT     H122220   0.723   1.437   0.517
 7326WAT     H222221   0.778   1.319   0.615
 7327WAT      O22222   5.337   5.008   2.414
 7327WAT     H122223   5.337   4.909   2.399
 7327WAT     H222224   5.267   5.051   2.357
 7328WAT      O22225   6.351   3.919   4.613
 7328WAT     H122226   6.290   3.959   4.681
 7328WAT     H222227   6.298   3.890   4.533
 7329WAT      O22228   1.189   3.591   3.798
 7329WAT     H122229   1.094   3.559   3.798
 7329WAT     H222230   1.196   3.676   3.745
 7330WAT      O22231   3.915   9.170   0.130
 7330WAT     H122232   3.999   9.116   0.119
 7330WAT     H222233   3.846   9.114   0.176
 7331WAT      O22234   1.519   1.306   4.862
 7331WAT     H122235   1.588   1.374   4.889
 7331WAT     H222236   1.522   1.294   4.763
 7332WAT      O22237   8.634   1.836   1.281
 7332WAT     H122238   8.594   1.818   1.191
 7332WAT     H222239   8.671   1.751   1.318
 7333WAT      O22240   7.872   7.669   9.501
 7333WAT     H122241   7.889   7.622   9.414
 7333WAT     H222242   7.889   7.767   9.491
 7334WAT      O22243   6.955   7.416   6.239
 7334WAT     H122244   7.034   7.432   6.298
 7334WAT     H222245   6.871   7.435   6.289
 7335WAT      O22246   6.124   0.114   2.721
 7335WAT     H122247   6.124   0.159   2.632
 7335WAT     H222248   6.187   0.037   2.719
 7336WAT      O22249   2.681   7.526   2.460
 7336WAT     H122250   2.740   7.455   2.422
 7336WAT     H222251   2.586   7.502   2.444
 7337WAT      O22252   0.989   4.141   6.668
 7337WAT     H122253   1.087   4.148   6.648
 7337WAT     H222254   0.966   4.200   6.745
 7338WAT      O22255   5.155   0.845   1.621
 7338WAT     H122256   5.056   0.832   1.614
 7338WAT     H222257   5.184   0.830   1.716
 7339WAT      O22258   3.543   2.876   2.534
 7339WAT     H122259   3.503   2.798   2.582
 7339WAT     H222260   3.586   2.844   2.449
 7340WAT      O22261   5.872   1.154   5.467
 7340WAT     H122262   5.839   1.118   5.554
 7340WAT     H222263   5.809   1.223   5.433
 7341WAT      O22264   2.692   9.660   2.592
 7341WAT     H122265   2.719   9.748   2.629
 7341WAT     H222266   2.771   9.616   2.550
 7342WAT      O22267   5.166   9.579   5.523
 7342WAT     H122268   5.125   9.498   5.563
 7342WAT     H222269   5.102   9.621   5.459
 7343WAT      O22270   4.271   5.508   4.044
 7343WAT     H122271   4.270   5.603   4.015
 7343WAT     H222272   4.182   5.483   4.081
 7344WAT      O22273   2.588   0.760   6.709
 7344WAT     H122274   2.596   0.665   6.738
 7344WAT     H222275   2.504   0.772   6.657
 7345WAT      O22276   4.887   9.215   0.702
 7345WAT     H122277   4.797   9.252   0.677
 7345WAT     H222278   4.875   9.132   0.756
 7346WAT      O22279   9.209   7.677   5.646
 7346WAT     H122280   9.185   7.602   5.708
 7346WAT     H222281   9.127   7.703   5.594
 7347WAT      O22282   7.629   3.008   7.458
 7347WAT     H122283   7.629   3.074   7.533
 7347WAT     H222284   7.589   2.922   7.488
 7348WAT      O22285   0.448   5.643   0.623
 7348WAT     H122286   0.516   5.624   0.695
 7348WAT     H222287   0.487   5.619   0.534
 7349WAT      O22288   6.619   7.130   0.560
 7349WAT     H122289   6.685   7.158   0.629
 7349WAT     H222290   6.661   7.132   0.469
 7350WAT      O22291   3.334   1.242   4.189
 7350WAT     H122292   3.387   1.158   4.200
 7350WAT     H222293   3.364   1.310   4.256
 7351WAT      O22294   2.053   3.274   5.325
 7351WAT     H122295   1.991   3.195   5.317
 7351WAT     H222296   2.122   3.255   5.394
 7352WAT      O22297   2.914   7.503   0.686
 7352WAT     H122298   2.871   7.493   0.596
 7352WAT     H222299   2.948   7.414   0.717
 7353WAT      O22300   7.314   5.358   1.003
 7353WAT     H122301   7.403   5.398   0.982
 7353WAT     H222302   7.243   5.426   0.989
 7354WAT      O22303   0.268   4.986   1.195
 7354WAT     H122304   0.199   5.055   1.216
 7354WAT     H222305   0.336   5.024   1.134
 7355WAT      O22306   9.201   7.449   7.958
 7355WAT     H122307   9.221   7.520   8.025
 7355WAT     H222308   9.285   7.398   7.939
 7356WAT      O22309   2.162   7.322   9.384
 7356WAT     H122310   2.088   7.272   9.429
 7356WAT     H222311   2.191   7.397   9.443
 7357WAT      O22312   7.749   8.447   9.598
 7357WAT     H122313   7.678   8.517   9.594
 7357WAT     H222314   7.836   8.489   9.621
 7358WAT      O22315   5.626   7.188   3.861
 7358WAT     H122316   5.581   7.270   3.896
 7358WAT     H222317   5.612   7.112   3.925
 7359WAT      O22318   7.338   0.502   4.957
 7359WAT     H122319   7.357   0.591   4.915
 7359WAT     H222320   7.414   0.439   4.939
 7360WAT      O22321   8.623   4.336   4.189
 7360WAT     H122322   8.524   4.329   4.203
 7360WAT     H222323   8.648   4.432   4.173
 7361WAT      O22324   1.912   8.665   0.095
 7361WAT     H122325   1.860   8.678   0.179
 7361WAT     H222326   1.904   8.571   0.064
 7362WAT      O22327   9.452   6.890   1.337
 7362WAT     H122328   9.369   6.861   1.289
 7362WAT     H222329   9.428   6.950   1.413
 7363WAT      O22330   6.515   7.757   5.036
 7363WAT     H122331   6.453   7.775   5.112
 7363WAT     H222332   6.512   7.660   5.012
 7364WAT      O22333   6.724   5.273   9.841
 7364WAT     H122334   6.643   5.330   9.859
 7364WAT     H222335   6.721   5.192   9.900
 7365WAT      O22336   0.245   5.307   1.077
 7365WAT     H122337   0.207   5.371   1.144
 7365WAT     H222338   0.174   5.243   1.048
 7366WAT      O22339   3.863   0.946   8.432
 7366WAT     H122340   3.799   0.887   8.482
 7366WAT     H222341   3.839   1.042   8.449
 7367WAT      O22342   7.930   5.158   5.046
 7367WAT     H122343   7.870   5.081   5.071
 7367WAT     H222344   7.883   5.244   5.063
 7368WAT      O22345   6.665   7.904   5.737
 7368WAT     H122346   6.690   7.904   5.641
 7368WAT     H222347   6.577   7.857   5.748
 7369WAT      O22348   6.545   2.529   5.473
 7369WAT     H122349   6.542   2.562   5.379
 7369WAT     H222350   6.560   2.607   5.535
 7370WAT      O22351   1.126   6.969   1.334
 7370WAT     H122352   1.115   7.013   1.423
 7370WAT     H222353   1.038   6.931   1.304
 7371WAT      O22354   8.626   0.519   7.596
 7371WAT     H122355   8.617   0.551   7.501
 7371WAT     H222356   8.703   0.456   7.603
 7372WAT      O22357   4.091   2.141   2.821
 7372WAT     H122358   4.067   2.078   2.894
 7372WAT     H222359   4.046   2.112   2.736
 7373WAT      O22360   4.102   5.549   0.612
 7373WAT     H122361   4.051   5.629   0.578
 7373WAT     H222362   4.042   5.469   0.609
 7374WAT      O22363   2.441   1.380   5.345
 7374WAT     H122364   2.385   1.448   5.297
 7374WAT     H222365   2.399   1.289   5.333
 7375WAT      O22366   9.080   0.238   9.802
 7375WAT     H122367   9.071   0.142   9.775
 7375WAT     H222368   9.096   0.294   9.720
 7376WAT      O22369   5.554   8.704   8.506
 7376WAT     H122370   5.504   8.731   8.424
 7376WAT     H222371   5.566   8.605   8.507
 7377WAT      O22372   1.062   1.451   4.766
 7377WAT     H122373   1.157   1.444   4.798
 7377WAT     H222374   1.049   1.539   4.720
 7378WAT      O22375   7.289   4.419   7.328
 7378WAT     H122376   7.290   4.339   7.388
 7378WAT     H222377   7.378   4.427   7.283
 7379WAT      O22378   3.003   6.775   3.838
 7379WAT     H122379   2.996   6.675   3.832
 7379WAT     H222380   3.015   6.812   3.746
 7380WAT      O22381   6.312   2.487   4.611
 7380WAT     H122382   6.396   2.491   4.666
 7380WAT     H222383   6.244   2.431   4.658
 7381WAT      O22384   5.970   9.789   5.898
 7381WAT     H122385   5.919   9.709   5.928
 7381WAT     H222386   5.938   9.816   5.806
 7382WAT      O22387   5.112   6.037   5.467
 7382WAT     H122388   5.114   5.988   5.379
 7382WAT     H222389   5.201   6.026   5.512
 7383WAT      O22390   7.712   5.178   7.430
 7383WAT     H122391   7.701   5.245   7.357
 7383WAT     H222392   7.622   5.143   7.457
 7384WAT      O22393   6.869   9.493   4.021
 7384WAT     H122394   6.912   9.544   4.095
 7384WAT     H222395   6.780   9.459   4.052
 7385WAT      O22396   3.469   0.143   6.846
 7385WAT     H122397   3.473   0.228   6.793
 7385WAT     H222398   3.460   0.066   6.784
 7386WAT      O22399   7.700   2.213   1.092
 7386WAT     H122400   7.624   2.181   1.149
 7386WAT     H222401   7.771   2.143   1.089
 7387WAT      O22402   4.299   7.470   8.707
 7387WAT     H122403   4.215   7.497   8.754
 7387WAT     H222404   4.377   7.487   8.767
 7388WAT      O22405   6.995   2.681   9.281
 7388WAT     H122406   7.059   2.757   9.281
 7388WAT     H222407   6.947   2.678   9.369
 7389WAT      O22408   9.752   8.905   0.334
 7389WAT     H122409   9.782   8.978   0.273
 7389WAT     H222410   9.762   8.935   0.429
 7390WAT      O22411   1.246   2.652   2.309
 7390WAT     H122412   1.285   2.561   2.299
 7390WAT     H222413   1.146   2.645   2.312
 7391WAT      O22414   9.853   5.001   8.644
 7391WAT     H122415   9.766   5.018   8.597
 7391WAT     H222416   9.900   4.924   8.600
 7392WAT      O22417   0.457   8.280   4.027
 7392WAT     H122418   0.419   8.218   3.959
 7392WAT     H222419   0.391   8.292   4.101
 7393WAT      O22420   7.124   1.195   3.451
 7393WAT     H122421   7.129   1.196   3.351
 7393WAT     H222422   7.097   1.103   3.482
 7394WAT      O22423   9.540   1.385   6.625
 7394WAT     H122424   9.545   1.304   6.683
 7394WAT     H222425   9.444   1.409   6.610
 7395WAT      O22426   0.890   6.374   2.245
 7395WAT     H122427   0.871   6.398   2.341
 7395WAT     H222428   0.913   6.276   2.240
 7396WAT      O22429   2.278   9.281   0.453
 7396WAT     H122430   2.318   9.340   0.383
 7396WAT     H222431   2.343   9.209   0.478
 7397WAT      O22432   4.938   8.265   7.337
 7397WAT     H122433   4.942   8.179   7.389
 7397WAT     H222434   5.022   8.275   7.283
 7398WAT      O22435   8.759   2.976   1.552
 7398WAT     H122436   8.836   3.041   1.550
 7398WAT     H222437   8.769   2.915   1.630
 7399WAT      O22438   6.973   9.395   2.444
 7399WAT     H122439   6.880   9.431   2.453
 7399WAT     H222440   6.985   9.317   2.505
 7400WAT      O22441   9.877   3.641   4.127
 7400WAT     H122442   9.817   3.627   4.206
 7400WAT     H222443   9.876   3.559   4.069
 7401WAT      O22444   4.089   0.407   3.066
 7401WAT     H122445   4.057   0.389   3.160
 7401WAT     H222446   4.178   0.364   3.052
 7402WAT      O22447   3.056   7.319   9.149
 7402WAT     H122448   3.072   7.371   9.233
 7402WAT     H222449   3.077   7.223   9.164
 7403WAT      O22450   8.560   4.341   9.632
 7403WAT     H122451   8.534   4.248   9.658
 7403WAT     H222452   8.617   4.380   9.704
 7404WAT      O22453   8.597   0.480   4.609
 7404WAT     H122454   8.600   0.550   4.537
 7404WAT     H222455   8.677   0.421   4.602
 7405WAT      O22456   1.310   7.939   7.530
 7405WAT     H122457   1.334   7.855   7.482
 7405WAT     H222458   1.211   7.949   7.533
 7406WAT      O22459   0.620   8.123   9.082
 7406WAT     H122460   0.550   8.102   9.013
 7406WAT     H222461   0.600   8.072   9.166
 7407WAT      O22462   5.794   4.413   8.943
 7407WAT     H122463   5.829   4.435   8.852
 7407WAT     H222464   5.825   4.321   8.968
 7408WAT      O22465   3.468   6.210   7.715
 7408WAT     H122466   3.390   6.260   7.754
 7408WAT     H222467   3.434   6.131   7.664
 7409WAT      O22468   0.584   2.063   6.573
 7409WAT     H122469   0.647   2.134   6.541
 7409WAT     H222470   0.618   2.025   6.659
 7410WAT      O22471   9.608   1.034   0.274
 7410WAT     H122472   9.652   1.103   0.216
 7410WAT     H222473   9.661   0.949   0.271
 7411WAT      O22474   3.538   5.680   2.613
 7411WAT     H122475   3.516   5.770   2.575
 7411WAT     H222476   3.537   5.612   2.540
 7412WAT      O22477   9.289   2.139   0.025
 7412WAT     H122478   9.193   2.136  -0.004
 7412WAT     H222479   9.293   2.156   0.124
 7413WAT      O22480   7.627   0.500   3.625
 7413WAT     H122481   7.578   0.547   3.699
 7413WAT     H222482   7.688   0.432   3.664
 7414WAT      O22483   7.033   0.003   5.223
 7414WAT     H122484   6.943   0.010   5.266
 7414WAT     H222485   7.060   0.092   5.187
 7415WAT      O22486   2.671   0.770   3.470
 7415WAT     H122487   2.741   0.699   3.469
 7415WAT     H222488   2.581   0.729   3.485
 7416WAT      O22489   7.799   5.921   6.170
 7416WAT     H122490   7.837   5.829   6.162
 7416WAT     H222491   7.723   5.921   6.234
 7417WAT      O22492   0.028   4.403   1.050
 7417WAT     H122493   0.003   4.430   0.956
 7417WAT     H222494   0.064   4.483   1.098
 7418WAT      O22495   8.469   4.805   3.660
 7418WAT     H122496   8.538   4.736   3.639
 7418WAT     H222497   8.508   4.896   3.652
 7419WAT      O22498   7.192   7.390   2.788
 7419WAT     H122499   7.229   7.403   2.881
 7419WAT     H222500   7.165   7.479   2.751
 7420WAT      O22501   9.203   6.372   7.573
 7420WAT     H122502   9.138   6.425   7.518
 7420WAT     H222503   9.291   6.368   7.526
 7421WAT      O22504   9.365   1.403   3.156
 7421WAT     H122505   9.419   1.319   3.160
 7421WAT     H222506   9.298   1.403   3.230
 7422WAT      O22507   2.132   1.574   6.234
 7422WAT     H122508   2.212   1.545   6.287
 7422WAT     H222509   2.109   1.668   6.257
 7423WAT      O22510   5.371   1.475   4.932
 7423WAT     H122511   5.426   1.497   4.852
 7423WAT     H222512   5.425   1.421   4.996
 7424WAT      O22513   7.038   2.354   8.136
 7424WAT     H122514   7.003   2.314   8.221
 7424WAT     H222515   7.047   2.453   8.147
 7425WAT      O22516   9.736   9.743   0.252
 7425WAT     H122517   9.694   9.655   0.274
 7425WAT     H222518   9.723   9.763   0.155
 7426WAT      O22519   8.206   7.678   9.357
 7426WAT     H122520   8.138   7.746   9.331
 7426WAT     H222521   8.228   7.621   9.278
 7427WAT      O22522   2.866   2.174   2.637
 7427WAT     H122523   2.843   2.093   2.691
 7427WAT     H222524   2.806   2.179   2.557
 7428WAT      O22525   4.888   3.464   2.901
 7428WAT     H122526   4.859   3.370   2.921
 7428WAT     H222527   4.984   3.475   2.928
 7429WAT      O22528   0.155   6.651   5.997
 7429WAT     H122529   0.103   6.583   5.946
 7429WAT     H222530   0.236   6.609   6.036
 7430WAT      O22531   4.087   4.987   0.679
 7430WAT     H122532   4.079   5.049   0.757
 7430WAT     H222533   4.028   5.020   0.604
 7431WAT      O22534   6.401   7.890   1.645
 7431WAT     H122535   6.319   7.909   1.593
 7431WAT     H222536   6.438   7.975   1.683
 7432WAT      O22537   6.333   5.878   3.644
 7432WAT     H122538   6.373   5.933   3.717
 7432WAT     H222539   6.365   5.911   3.555
 7433WAT      O22540   0.516   7.327   7.398
 7433WAT     H122541   0.561   7.253   7.348
 7433WAT     H222542   0.512   7.304   7.495
 7434WAT      O22543   4.227   3.830   5.555
 7434WAT     H122544   4.185   3.799   5.470
 7434WAT     H222545   4.243   3.751   5.615
 7435WAT      O22546   4.083   5.119   1.967
 7435WAT     H122547   4.128   5.208   1.976
 7435WAT     H222548   4.026   5.103   2.048
 7436WAT      O22549   1.711   5.388   2.675
 7436WAT     H122550   1.615   5.415   2.667
 7436WAT     H222551   1.752   5.384   2.584
 7437WAT      O22552   6.798   2.746   3.748
 7437WAT     H122553   6.814   2.843   3.729
 7437WAT     H222554   6.751   2.736   3.835
 7438WAT      O22555   9.794   5.849   6.545
 7438WAT     H122556   9.865   5.919   6.534
 7438WAT     H222557   9.720   5.865   6.480
 7439WAT      O22558   3.638   8.887   9.272
 7439WAT     H122559   3.723   8.932   9.246
 7439WAT     H222560   3.631   8.887   9.372
 7440WAT      O22561   2.608   1.073   7.578
 7440WAT     H122562   2.631   0.978   7.556
 7440WAT     H222563   2.538   1.106   7.515
 7441WAT      O22564   4.722   8.024   2.660
 7441WAT     H122565   4.768   8.025   2.571
 7441WAT     H222566   4.719   7.931   2.695
 7442WAT      O22567   8.203   3.990   9.135
 7442WAT     H122568   8.146   4.014   9.214
 7442WAT     H222569   8.288   4.041   9.138
 7443WAT      O22570   1.720   7.158   1.915
 7443WAT     H122571   1.759   7.194   1.830
 7443WAT     H222572   1.789   7.104   1.963
 7444WAT      O22573   6.047   4.974   7.606
 7444WAT     H122574   6.096   4.941   7.525
 7444WAT     H222575   6.052   5.074   7.609
 7445WAT      O22576   8.712   3.328   3.549
 7445WAT     H122577   8.774   3.392   3.594
 7445WAT     H222578   8.691   3.252   3.611
 7446WAT      O22579   4.105   0.265   2.402
 7446WAT     H122580   4.147   0.196   2.345
 7446WAT     H222581   4.079   0.344   2.346
 7447WAT      O22582   9.750   0.346   1.947
 7447WAT     H122583   9.688   0.292   2.004
 7447WAT     H222584   9.729   0.443   1.958
 7448WAT      O22585   3.513   4.586   4.370
 7448WAT     H122586   3.490   4.494   4.336
 7448WAT     H222587   3.567   4.578   4.453
 7449WAT      O22588   4.016   9.216   6.959
 7449WAT     H122589   3.960   9.290   6.998
 7449WAT     H222590   4.030   9.145   7.028
 7450WAT      O22591   2.912   1.355   6.567
 7450WAT     H122592   2.822   1.383   6.598
 7450WAT     H222593   2.925   1.384   6.472
 7451WAT      O22594   4.574   2.643   0.460
 7451WAT     H122595   4.542   2.690   0.378
 7451WAT     H222596   4.531   2.684   0.540
 7452WAT      O22597   4.823   4.074   7.642
 7452WAT     H122598   4.884   4.006   7.683
 7452WAT     H222599   4.877   4.136   7.584
 7453WAT      O22600   1.667   6.006   7.992
 7453WAT     H122601   1.679   5.913   7.955
 7453WAT     H222602   1.622   6.000   8.082
 7454WAT      O22603   6.935   9.634   5.946
 7454WAT     H122604   6.962   9.629   6.042
 7454WAT     H222605   6.963   9.550   5.899
 7455WAT      O22606   4.384   3.147   9.456
 7455WAT     H122607   4.316   3.146   9.530
 7455WAT     H222608   4.459   3.085   9.478
 7456WAT      O22609   4.504   7.365   2.865
 7456WAT     H122610   4.435   7.335   2.931
 7456WAT     H222611   4.467   7.441   2.811
 7457WAT      O22612   6.634   7.495   0.191
 7457WAT     H122613   6.656   7.591   0.210
 7457WAT     H222614   6.550   7.470   0.240
 7458WAT      O22615   5.764   3.877   4.682
 7458WAT     H122616   5.821   3.956   4.705
 7458WAT     H222617   5.747   3.823   4.764
 7459WAT      O22618   9.428   5.150   3.995
 7459WAT     H122619   9.487   5.222   4.030
 7459WAT     H222620   9.439   5.067   4.050
 7460WAT      O22621   9.045   8.344   5.358
 7460WAT     H122622   9.088   8.389   5.280
 7460WAT     H222623   9.107   8.344   5.436
 7461WAT      O22624   3.573   0.647   2.139
 7461WAT     H122625   3.507   0.642   2.213
 7461WAT     H222626   3.579   0.559   2.092
 7462WAT      O22627   6.964   8.496   8.045
 7462WAT     H122628   7.049   8.544   8.023
 7462WAT     H222629   6.899   8.560   8.086
 7463WAT      O22630   2.229   1.946   5.147
 7463WAT     H122631   2.215   2.042   5.121
 7463WAT     H222632   2.253   1.942   5.244
 7464WAT      O22633   6.150   5.221   5.599
 7464WAT     H122634   6.208   5.153   5.645
 7464WAT     H222635   6.149   5.202   5.501
 7465WAT      O22636   2.477   7.665   6.612
 7465WAT     H122637   2.503   7.759   6.590
 7465WAT     H222638   2.533   7.602   6.557
 7466WAT      O22639   4.623   5.696   5.809
 7466WAT     H122640   4.662   5.652   5.890
 7466WAT     H222641   4.605   5.627   5.739
 7467WAT      O22642   4.731   2.665   0.844
 7467WAT     H122643   4.680   2.680   0.929
 7467WAT     H222644   4.697   2.581   0.800
 7468WAT      O22645   9.548   4.046   2.847
 7468WAT     H122646   9.612   4.022   2.774
 7468WAT     H222647   9.565   4.141   2.875
 7469WAT      O22648   6.534   6.802   7.729
 7469WAT     H122649   6.573   6.854   7.653
 7469WAT     H222650   6.603   6.790   7.800
 7470WAT      O22651   7.609   9.155   4.885
 7470WAT     H122652   7.605   9.057   4.867
 7470WAT     H222653   7.537   9.201   4.832
 7471WAT      O22654   1.760   6.644   6.115
 7471WAT     H122655   1.839   6.705   6.120
 7471WAT     H222656   1.761   6.582   6.193
 7472WAT      O22657   6.860   5.670   3.351
 7472WAT     H122658   6.863   5.704   3.257
 7472WAT     H222659   6.783   5.607   3.361
 7473WAT      O22660   3.469   0.949   3.775
 7473WAT     H122661   3.520   0.941   3.861
 7473WAT     H222662   3.415   0.867   3.760
 7474WAT      O22663   5.952   9.205   2.226
 7474WAT     H122664   5.880   9.235   2.163
 7474WAT     H222665   5.922   9.221   2.320
 7475WAT      O22666   3.995   1.904   0.870
 7475WAT     H122667   4.059   1.891   0.794
 7475WAT     H222668   3.996   1.823   0.929
 7476WAT      O22669   2.834   7.479   1.570
 7476WAT     H122670   2.926   7.514   1.588
 7476WAT     H222671   2.824   7.389   1.612
 7477WAT      O22672   5.893   1.659   0.486
 7477WAT     H122673   5.844   1.572   0.479
 7477WAT     H222674   5.910   1.695   0.395
 7478WAT      O22675   3.919   8.217   2.800
 7478WAT     H122676   3.864   8.135   2.786
 7478WAT     H222677   3.906   8.250   2.894
 7479WAT      O22678   5.618   7.240   5.679
 7479WAT     H122679   5.592   7.264   5.585
 7479WAT     H222680   5.565   7.161   5.708
 7480WAT      O22681   3.413   5.869   1.110
 7480WAT     H122682   3.454   5.844   1.021
 7480WAT     H222683   3.322   5.905   1.095
 7481WAT      O22684   7.403   1.698   9.662
 7481WAT     H122685   7.462   1.660   9.733
 7481WAT     H222686   7.460   1.729   9.586
 7482WAT      O22687   4.958   5.881   9.829
 7482WAT     H122688   4.987   5.815   9.760
 7482WAT     H222689   4.994   5.971   9.805
 7483WAT      O22690   0.397   4.581   9.686
 7483WAT     H122691   0.490   4.559   9.657
 7483WAT     H222692   0.359   4.652   9.627
 7484WAT      O22693   9.836   0.240   3.837
 7484WAT     H122694   9.759   0.178   3.818
 7484WAT     H222695   9.919   0.186   3.853
 7485WAT      O22696   1.273   2.551   5.527
 7485WAT     H122697   1.324   2.635   5.508
 7485WAT     H222698   1.299   2.515   5.617
 7486WAT      O22699   0.821   5.416   5.493
 7486WAT     H122700   0.778   5.489   5.546
 7486WAT     H222701   0.800   5.328   5.534
 7487WAT      O22702   3.715   8.218   8.393
 7487WAT     H122703   3.767   8.302   8.407
 7487WAT     H222704   3.618   8.239   8.387
 7488WAT      O22705   4.236   8.162   3.516
 7488WAT     H122706   4.185   8.076   3.514
 7488WAT     H222707   4.204   8.221   3.442
 7489WAT      O22708   7.444   3.037   1.508
 7489WAT     H122709   7.357   3.084   1.525
 7489WAT     H222710   7.427   2.950   1.462
 7490WAT      O22711   7.496   5.469   4.516
 7490WAT     H122712   7.439   5.402   4.565
 7490WAT     H222713   7.582   5.479   4.564
 7491WAT      O22714   3.110   8.376   7.179
 7491WAT     H122715   3.112   8.295   7.121
 7491WAT     H222716   3.173   8.445   7.144
 7492WAT      O22717   6.095   3.488   7.424
 7492WAT     H122718   6.130   3.539   7.346
 7492WAT     H222719   6.167   3.480   7.493
 7493WAT      O22720   7.008   6.243   0.927
 7493WAT     H122721   6.913   6.250   0.956
 7493WAT     H222722   7.016   6.271   0.831
 7494WAT      O22723   0.034   1.116   5.093
 7494WAT     H122724   0.052   1.199   5.145
 7494WAT     H222725  -0.064   1.110   5.073
 7495WAT      O22726   0.030   4.995   8.264
 7495WAT     H122727   0.012   4.905   8.224
 7495WAT     H222728   0.026   4.989   8.363
 7496WAT      O22729   6.197   0.683   2.361
 7496WAT     H122730   6.273   0.619   2.354
 7496WAT     H222731   6.232   0.776   2.374
 7497WAT      O22732   1.696   7.793   9.341
 7497WAT     H122733   1.754   7.873   9.328
 7497WAT     H222734   1.603   7.814   9.310
 7498WAT      O22735   7.653   0.310   0.534
 7498WAT     H122736   7.675   0.213   0.525
 7498WAT     H222737   7.624   0.329   0.628
 7499WAT      O22738   4.450   4.029   4.504
 7499WAT     H122739   4.489   4.095   4.568
 7499WAT     H222740   4.352   4.019   4.522
 7500WAT      O22741   5.851   8.717   0.403
 7500WAT     H122742   5.925   8.782   0.385
 7500WAT     H222743   5.881   8.649   0.470
 7501WAT      O22744   9.666   8.208   0.462
 7501WAT     H122745   9.588   8.152   0.433
 7501WAT     H222746   9.688   8.186   0.558
 7502WAT      O22747   9.416   5.213   2.039
 7502WAT     H122748   9.354   5.242   1.966
 7502WAT     H222749   9.412   5.281   2.113
 7503WAT      O22750   4.679   4.602   3.583
 7503WAT     H122751   4.730   4.636   3.504
 7503WAT     H222752   4.739   4.544   3.638
 7504WAT      O22753   0.926   1.719   3.460
 7504WAT     H122754   0.921   1.781   3.382
 7504WAT     H222755   0.916   1.625   3.429
 7505WAT      O22756   6.872   0.848   5.776
 7505WAT     H122757   6.806   0.773   5.783
 7505WAT     H222758   6.822   0.934   5.761
 7506WAT      O22759   4.011   8.513   5.975
 7506WAT     H122760   4.089   8.570   6.000
 7506WAT     H222761   3.931   8.540   6.029
 7507WAT      O22762   6.005   4.295   8.477
 7507WAT     H122763   5.950   4.236   8.418
 7507WAT     H222764   6.068   4.350   8.421
 7508WAT      O22765   0.840   2.061   8.051
 7508WAT     H122766   0.852   2.159   8.067
 7508WAT     H222767   0.753   2.031   8.091
 7509WAT      O22768   4.667   4.446   4.880
 7509WAT     H122769   4.676   4.437   4.781
 7509WAT     H222770   4.718   4.372   4.924
 7510WAT      O22771   6.885   0.025   2.024
 7510WAT     H122772   6.927  -0.021   2.102
 7510WAT     H222773   6.840  -0.044   1.966
 7511WAT      O22774   8.591   0.326   7.145
 7511WAT     H122775   8.504   0.374   7.141
 7511WAT     H222776   8.612   0.287   7.055
 7512WAT      O22777   4.755   9.670   9.191
 7512WAT     H122778   4.679   9.605   9.190
 7512WAT     H222779   4.819   9.645   9.264
 7513WAT      O22780   3.550   4.180   1.533
 7513WAT     H122781   3.609   4.178   1.453
 7513WAT     H222782   3.469   4.235   1.514
 7514WAT      O22783   0.468   4.275   8.410
 7514WAT     H122784   0.410   4.351   8.380
 7514WAT     H222785   0.537   4.256   8.340
 7515WAT      O22786   3.180   8.301   4.713
 7515WAT     H122787   3.216   8.377   4.660
 7515WAT     H222788   3.117   8.248   4.657
 7516WAT      O22789   1.258   9.405   6.465
 7516WAT     H122790   1.326   9.454   6.411
 7516WAT     H222791   1.202   9.349   6.405
 7517WAT      O22792   4.891   5.601   0.174
 7517WAT     H122793   4.880   5.542   0.253
 7517WAT     H222794   4.812   5.662   0.166
 7518WAT      O22795   5.685   3.965   4.325
 7518WAT     H122796   5.598   3.933   4.361
 7518WAT     H222797   5.671   4.048   4.273
 7519WAT      O22798   9.436   9.084   3.164
 7519WAT     H122799   9.450   9.123   3.255
 7519WAT     H222800   9.498   9.006   3.151
 7520WAT      O22801   6.688   4.311   1.809
 7520WAT     H122802   6.598   4.321   1.765
 7520WAT     H222803   6.678   4.321   1.908
 7521WAT      O22804   9.095   8.086   5.642
 7521WAT     H122805   9.169   8.038   5.690
 7521WAT     H222806   9.100   8.184   5.662
 7522WAT      O22807   4.389   9.688   9.802
 7522WAT     H122808   4.439   9.726   9.880
 7522WAT     H222809   4.292   9.714   9.809
 7523WAT      O22810   6.481   6.528   9.767
 7523WAT     H122811   6.435   6.445   9.799
 7523WAT     H222812   6.445   6.554   9.677
 7524WAT      O22813   9.207   8.553   0.110
 7524WAT     H122814   9.108   8.572   0.113
 7524WAT     H222815   9.224   8.461   0.143
 7525WAT      O22816   7.752   0.388   6.610
 7525WAT     H122817   7.766   0.304   6.557
 7525WAT     H222818   7.657   0.393   6.642
 7526WAT      O22819   8.273   3.942   2.827
 7526WAT     H122820   8.336   3.870   2.798
 7526WAT     H222821   8.309   4.031   2.800
 7527WAT      O22822   5.033   9.441   0.811
 7527WAT     H122823   5.003   9.353   0.775
 7527WAT     H222824   4.961   9.480   0.869
 7528WAT      O22825   0.718   7.483   4.606
 7528WAT     H122826   0.768   7.550   4.661
 7528WAT     H222827   0.783   7.419   4.565
 7529WAT      O22828   5.487   1.552   6.070
 7529WAT     H122829   5.490   1.596   6.160
 7529WAT     H222830   5.576   1.563   6.026
 7530WAT      O22831   4.719   1.049   2.964
 7530WAT     H122832   4.762   0.971   3.008
 7530WAT     H222833   4.631   1.021   2.924
 7531WAT      O22834   8.766   4.276   8.997
 7531WAT     H122835   8.703   4.304   9.070
 7531WAT     H222836   8.716   4.227   8.926
 7532WAT      O22837   9.087   8.280   1.497
 7532WAT     H122838   9.020   8.334   1.445
 7532WAT     H222839   9.052   8.262   1.589
 7533WAT      O22840   8.700   6.677   8.011
 7533WAT     H122841   8.797   6.663   8.035
 7533WAT     H222842   8.672   6.608   7.945
 7534WAT      O22843   0.722   3.520   4.997
 7534WAT     H122844   0.752   3.500   5.090
 7534WAT     H222845   0.782   3.474   4.932
 7535WAT      O22846   9.884   7.499   2.341
 7535WAT     H122847   9.794   7.489   2.299
 7535WAT     H222848   9.931   7.411   2.341
 7536WAT      O22849   2.421   7.716   1.888
 7536WAT     H122850   2.367   7.780   1.833
 7536WAT     H222851   2.397   7.726   1.984
 7537WAT      O22852   8.977   6.258   2.249
 7537WAT     H122853   9.056   6.207   2.283
 7537WAT     H222854   9.006   6.323   2.180
 7538WAT      O22855   6.978   9.454   9.409
 7538WAT     H122856   6.884   9.443   9.440
 7538WAT     H222857   7.034   9.491   9.483
 7539WAT      O22858   9.559   2.134   9.064
 7539WAT     H122859   9.501   2.053   9.067
 7539WAT     H222860   9.555   2.174   8.972
 7540WAT      O22861   0.683   2.776   5.882
 7540WAT     H122862   0.744   2.827   5.821
 7540WAT     H222863   0.680   2.822   5.971
 7541WAT      O22864   2.080   2.782   3.107
 7541WAT     H122865   2.108   2.876   3.091
 7541WAT     H222866   2.049   2.771   3.201
 7542WAT      O22867   3.346   2.004   7.063
 7542WAT     H122868   3.362   2.067   6.987
 7542WAT     H222869   3.300   2.053   7.137
 7543WAT      O22870   8.688   0.757   0.677
 7543WAT     H122871   8.714   0.853   0.688
 7543WAT     H222872   8.591   0.751   0.654
 7544WAT      O22873   8.713   5.404   7.225
 7544WAT     H122874   8.717   5.409   7.325
 7544WAT     H222875   8.621   5.380   7.196
 7545WAT      O22876   4.385   8.198   3.106
 7545WAT     H122877   4.386   8.296   3.129
 7545WAT     H222878   4.416   8.145   3.185
 7546WAT      O22879   7.895   3.064   4.275
 7546WAT     H122880   7.800   3.074   4.244
 7546WAT     H222881   7.902   3.095   4.370
 7547WAT      O22882   4.727   6.105   5.884
 7547WAT     H122883   4.650   6.042   5.875
 7547WAT     H222884   4.704   6.177   5.949
 7548WAT      O22885   9.145   4.150   2.307
 7548WAT     H122886   9.147   4.050   2.299
 7548WAT     H222887   9.233   4.187   2.275
 7549WAT      O22888   3.244   7.134   0.974
 7549WAT     H122889   3.326   7.088   1.007
 7549WAT     H222890   3.224   7.212   1.034
 7550WAT      O22891   1.596   5.251   5.480
 7550WAT     H122892   1.499   5.229   5.485
 7550WAT     H222893   1.615   5.333   5.535
 7551WAT      O22894   6.518   4.985   8.246
 7551WAT     H122895   6.569   5.055   8.297
 7551WAT     H222896   6.534   4.996   8.148
 7552WAT      O22897   7.870   0.738   3.191
 7552WAT     H122898   7.926   0.658   3.214
 7552WAT     H222899   7.868   0.801   3.268
 7553WAT      O22900   1.611   0.734   5.329
 7553WAT     H122901   1.516   0.763   5.344
 7553WAT     H222902   1.615   0.674   5.249
 7554WAT      O22903   5.260   8.784   7.079
 7554WAT     H122904   5.253   8.884   7.068
 7554WAT     H222905   5.252   8.741   6.989
 7555WAT      O22906   6.567   3.791   7.937
 7555WAT     H122907   6.547   3.888   7.925
 7555WAT     H222908   6.590   3.773   8.032
 7556WAT      O22909   1.201   7.962   6.813
 7556WAT     H122910   1.182   7.885   6.752
 7556WAT     H222911   1.189   8.048   6.764
 7557WAT      O22912   8.491   1.499   7.670
 7557WAT     H122913   8.474   1.487   7.573
 7557WAT     H222914   8.474   1.413   7.718
 7558WAT      O22915   7.300   0.246   7.329
 7558WAT     H122916   7.298   0.251   7.229
 7558WAT     H222917   7.349   0.325   7.365
 7559WAT      O22918   6.831   1.271   5.121
 7559WAT     H122919   6.929   1.285   5.109
 7559WAT     H222920   6.794   1.347   5.175
 7560WAT      O22921   5.505   9.527   2.674
 7560WAT     H122922   5.447   9.541   2.755
 7560WAT     H222923   5.452   9.549   2.592
 7561WAT      O22924   3.069   8.594   3.778
 7561WAT     H122925   3.130   8.567   3.852
 7561WAT     H222926   3.044   8.514   3.723
 7562WAT      O22927   6.064   8.879   8.757
 7562WAT     H122928   6.110   8.883   8.846
 7562WAT     H222929   6.047   8.783   8.732
 7563WAT      O22930   0.449   2.737   6.079
 7563WAT     H122931   0.527   2.779   6.125
 7563WAT     H222932   0.405   2.672   6.141
 7564WAT      O22933   7.321   3.352   2.106
 7564WAT     H122934   7.382   3.337   2.028
 7564WAT     H222935   7.298   3.449   2.112
 7565WAT      O22936   1.010   4.818   4.304
 7565WAT     H122937   1.014   4.718   4.297
 7565WAT     H222938   0.941   4.853   4.241
 7566WAT      O22939   2.781   4.132   0.581
 7566WAT     H122940   2.845   4.064   0.615
 7566WAT     H222941   2.807   4.222   0.616
 7567WAT      O22942   4.902   3.744   4.987
 7567WAT     H122943   4.990   3.720   4.948
 7567WAT     H222944   4.914   3.815   5.056
 7568WAT      O22945   2.420   0.139   4.415
 7568WAT     H122946   2.333   0.188   4.408
 7568WAT     H222947   2.434   0.084   4.332
 7569WAT      O22948   7.203   5.686   5.574
 7569WAT     H122949   7.286   5.651   5.618
 7569WAT     H222950   7.223   5.713   5.480
 7570WAT      O22951   2.616   8.496   2.257
 7570WAT     H122952   2.654   8.581   2.221
 7570WAT     H222953   2.658   8.419   2.209
 7571WAT      O22954   2.345   6.309   7.605
 7571WAT     H122955   2.285   6.246   7.654
 7571WAT     H222956   2.301   6.399   7.600
 7572WAT      O22957   9.429   9.373   9.676
 7572WAT     H122958   9.339   9.331   9.665
 7572WAT     H222959   9.491   9.307   9.719
 7573WAT      O22960   1.666   1.991   5.048
 7573WAT     H122961   1.687   1.991   4.950
 7573WAT     H222962   1.570   1.965   5.061
 7574WAT      O22963   2.862   0.202   5.540
 7574WAT     H122964   2.864   0.170   5.635
 7574WAT     H222965   2.769   0.229   5.515
 7575WAT      O22966   2.147   9.768   0.318
 7575WAT     H122967   2.229   9.790   0.265
 7575WAT     H222968   2.165   9.691   0.379
 7576WAT      O22969   5.595   1.168   2.379
 7576WAT     H122970   5.663   1.208   2.319
 7576WAT     H222971   5.523   1.124   2.324
 7577WAT      O22972   6.690   4.260   1.203
 7577WAT     H122973   6.714   4.193   1.274
 7577WAT     H222974   6.689   4.352   1.243
 7578WAT      O22975   7.055   6.955   0.698
 7578WAT     H122976   7.056   6.977   0.600
 7578WAT     H222977   7.072   7.038   0.751
 7579WAT      O22978   7.181   1.477   9.119
 7579WAT     H122979   7.248   1.444   9.053
 7579WAT     H222980   7.191   1.576   9.131
 7580WAT      O22981   0.228   3.121   6.356
 7580WAT     H122982   0.163   3.186   6.317
 7580WAT     H222983   0.207   3.029   6.325
 7581WAT      O22984   9.663   5.533   2.896
 7581WAT     H122985   9.721   5.598   2.847
 7581WAT     H222986   9.681   5.441   2.861
 7582WAT      O22987   4.914   9.523   3.026
 7582WAT     H122988   4.978   9.449   3.005
 7582WAT     H222989   4.822   9.486   3.035
 7583WAT      O22990   3.170   5.308   9.005
 7583WAT     H122991   3.246   5.336   9.065
 7583WAT     H222992   3.113   5.242   9.054
 7584WAT      O22993   1.975   3.675   1.305
 7584WAT     H122994   1.942   3.616   1.232
 7584WAT     H222995   1.975   3.770   1.274
 7585WAT      O22996   9.750   6.093   2.008
 7585WAT     H122997   9.733   6.000   2.042
 7585WAT     H222998   9.783   6.150   2.082
 7586WAT      O22999   5.823   7.857   3.942
 7586WAT     H123000   5.842   7.827   3.849
 7586WAT     H223001   5.896   7.918   3.974
 7587WAT      O23002   8.391   0.764   2.508
 7587WAT     H123003   8.313   0.789   2.450
 7587WAT     H223004   8.395   0.826   2.586
 7588WAT      O23005   6.676   6.187   7.299
 7588WAT     H123006   6.709   6.280   7.279
 7588WAT     H223007   6.714   6.123   7.232
 7589WAT      O23008   4.690   4.825   0.949
 7589WAT     H123009   4.621   4.847   0.881
 7589WAT     H223010   4.648   4.817   1.039
 7590WAT      O23011   8.682   8.557   8.443
 7590WAT     H123012   8.773   8.516   8.435
 7590WAT     H223013   8.679   8.615   8.525
 7591WAT      O23014   0.019   6.329   5.251
 7591WAT     H123015  -0.059   6.363   5.303
 7591WAT     H223016   0.076   6.407   5.222
 7592WAT      O23017   6.375   5.132   6.498
 7592WAT     H123018   6.370   5.142   6.597
 7592WAT     H223019   6.406   5.218   6.457
 7593WAT      O23020   8.155   3.383   0.675
 7593WAT     H123021   8.167   3.446   0.598
 7593WAT     H223022   8.097   3.306   0.646
 7594WAT      O23023   4.019   7.608   1.627
 7594WAT     H123024   4.054   7.683   1.684
 7594WAT     H223025   4.051   7.521   1.663
 7595WAT      O23026   9.336   1.862   8.791
 7595WAT     H123027   9.277   1.942   8.782
 7595WAT     H223028   9.379   1.861   8.881
 7596WAT      O23029   6.836   2.936   1.968
 7596WAT     H123030   6.768   2.863   1.970
 7596WAT     H223031   6.811   3.003   1.899
 7597WAT      O23032   4.755   2.300   1.315
 7597WAT     H123033   4.707   2.282   1.400
 7597WAT     H223034   4.822   2.227   1.298
 7598WAT      O23035   0.728   3.377   2.121
 7598WAT     H123036   0.780   3.294   2.141
 7598WAT     H223037   0.642   3.353   2.075
 7599WAT      O23038   5.131   7.282   8.769
 7599WAT     H123039   5.221   7.250   8.798
 7599WAT     H223040   5.132   7.382   8.763
 7600WAT      O23041   2.747   5.988   8.909
 7600WAT     H123042   2.831   6.041   8.904
 7600WAT     H223043   2.680   6.036   8.965
 7601WAT      O23044   4.872   3.089   8.038
 7601WAT     H123045   4.928   3.026   8.092
 7601WAT     H223046   4.775   3.065   8.051
 7602WAT      O23047   8.860   0.748   4.633
 7602WAT     H123048   8.802   0.697   4.570
 7602WAT     H223049   8.823   0.740   4.726
 7603WAT      O23050   4.772   9.112   9.480
 7603WAT     H123051   4.793   9.185   9.416
 7603WAT     H223052   4.727   9.037   9.431
 7604WAT      O23053   9.362   3.677   6.814
 7604WAT     H123054   9.397   3.649   6.724
 7604WAT     H223055   9.426   3.648   6.885
 7605WAT      O23056   0.883   8.547   3.989
 7605WAT     H123057   0.897   8.450   4.007
 7605WAT     H223058   0.828   8.559   3.907
 7606WAT      O23059   1.058   8.608   5.896
 7606WAT     H123060   0.986   8.558   5.849
 7606WAT     H223061   1.116   8.655   5.829
 7607WAT      O23062   2.939   0.004   2.109
 7607WAT     H123063   3.001   0.037   2.180
 7607WAT     H223064   2.897  -0.082   2.139
 7608WAT      O23065   5.038   1.293   4.562
 7608WAT     H123066   5.063   1.220   4.626
 7608WAT     H223067   5.094   1.374   4.580
 7609WAT      O23068   2.463   4.725   9.479
 7609WAT     H123069   2.371   4.753   9.505
 7609WAT     H223070   2.521   4.806   9.469
 7610WAT      O23071   1.384   6.996   7.351
 7610WAT     H123072   1.365   6.921   7.415
 7610WAT     H223073   1.483   7.010   7.345
 7611WAT      O23074   6.744   0.867   1.576
 7611WAT     H123075   6.679   0.791   1.584
 7611WAT     H223076   6.755   0.911   1.665
 7612WAT      O23077   7.829   6.501   2.463
 7612WAT     H123078   7.735   6.519   2.491
 7612WAT     H223079   7.888   6.502   2.544
 7613WAT      O23080   4.558   3.087   2.602
 7613WAT     H123081   4.498   3.105   2.680
 7613WAT     H223082   4.505   3.047   2.527
 7614WAT      O23083   3.574   0.188   5.788
 7614WAT     H123084   3.614   0.278   5.775
 7614WAT     H223085   3.599   0.153   5.878
 7615WAT      O23086   0.060   5.995   1.868
 7615WAT     H123087  -0.011   6.048   1.915
 7615WAT     H223088   0.085   6.042   1.783
 7616WAT      O23089   5.648   1.213   0.987
 7616WAT     H123090   5.647   1.134   1.049
 7616WAT     H223091   5.686   1.292   1.035
 7617WAT      O23092   1.545   2.440   3.718
 7617WAT     H123093   1.623   2.422   3.778
 7617WAT     H223094   1.565   2.406   3.627
 7618WAT      O23095   1.381   7.391   5.801
 7618WAT     H123096   1.403   7.460   5.871
 7618WAT     H223097   1.302   7.422   5.748
 7619WAT      O23098   5.389   0.823   1.485
 7619WAT     H123099   5.454   0.878   1.538
 7619WAT     H223100   5.307   0.808   1.539
 7620WAT      O23101   5.943   2.719   9.218
 7620WAT     H123102   5.865   2.694   9.161
 7620WAT     H223103   5.917   2.716   9.314
 7621WAT      O23104   5.662   9.317   8.841
 7621WAT     H123105   5.625   9.394   8.892
 7621WAT     H223106   5.752   9.341   8.804
 7622WAT      O23107   6.482   8.762   7.432
 7622WAT     H123108   6.572   8.736   7.468
 7622WAT     H223109   6.411   8.732   7.495
 7623WAT      O23110   4.787   6.823   7.645
 7623WAT     H123111   4.765   6.727   7.624
 7623WAT     H223112   4.840   6.862   7.570
 7624WAT      O23113   8.675   7.636   3.242
 7624WAT     H123114   8.743   7.578   3.197
 7624WAT     H223115   8.599   7.579   3.274
 7625WAT      O23116   9.306   1.213   9.523
 7625WAT     H123117   9.355   1.216   9.436
 7625WAT     H223118   9.355   1.154   9.587
 7626WAT      O23119   2.598   2.724   1.628
 7626WAT     H123120   2.509   2.752   1.592
 7626WAT     H223121   2.616   2.772   1.714
 7627WAT      O23122   2.206   1.626   7.610
 7627WAT     H123123   2.236   1.617   7.515
 7627WAT     H223124   2.124   1.682   7.615
 7628WAT      O23125   7.890   2.288   3.914
 7628WAT     H123126   7.869   2.313   3.819
 7628WAT     H223127   7.855   2.197   3.933
 7629WAT      O23128   6.281   3.948   0.875
 7629WAT     H123129   6.194   3.923   0.918
 7629WAT     H223130   6.281   4.046   0.855
 7630WAT      O23131   9.116   3.823   0.587
 7630WAT     H123132   9.088   3.866   0.501
 7630WAT     H223133   9.215   3.834   0.599
 7631WAT      O23134   3.791   7.321   8.845
 7631WAT     H123135   3.765   7.416   8.830
 7631WAT     H223136   3.889   7.316   8.866
 7632WAT      O23137   3.419   1.327   6.059
 7632WAT     H123138   3.362   1.309   6.139
 7632WAT     H223139   3.513   1.299   6.078
 7633WAT      O23140   0.494   2.061   2.290
 7633WAT     H123141   0.500   2.101   2.382
 7633WAT     H223142   0.519   1.965   2.294
 7634WAT      O23143   1.550   4.580   9.001
 7634WAT     H123144   1.501   4.619   8.923
 7634WAT     H223145   1.644   4.612   9.001
 7635WAT      O23146   3.296   0.722   6.327
 7635WAT     H123147   3.306   0.814   6.291
 7635WAT     H223148   3.284   0.726   6.426
 7636WAT      O23149   2.840   7.933   5.182
 7636WAT     H123150   2.793   7.845   5.193
 7636WAT     H223151   2.939   7.917   5.182
 7637WAT      O23152   4.612   5.928   5.261
 7637WAT     H123153   4.530   5.919   5.318
 7637WAT     H223154   4.670   5.847   5.274
 7638WAT      O23155   6.344   0.437   9.200
 7638WAT     H123156   6.368   0.525   9.159
 7638WAT     H223157   6.385   0.363   9.147
 7639WAT      O23158   1.676   3.540   4.699
 7639WAT     H123159   1.612   3.477   4.654
 7639WAT     H223160   1.723   3.594   4.630
 7640WAT      O23161   5.244   6.337   4.126
 7640WAT     H123162   5.269   6.367   4.218
 7640WAT     H223163   5.308   6.376   4.060
 7641WAT      O23164   2.986   4.230   1.157
 7641WAT     H123165   2.888   4.216   1.159
 7641WAT     H223166   3.016   4.244   1.062
 7642WAT      O23167   9.086   3.402   7.772
 7642WAT     H123168   9.007   3.463   7.782
 7642WAT     H223169   9.149   3.417   7.848
 7643WAT      O23170   0.776   8.160   6.372
 7643WAT     H123171   0.766   8.238   6.311
 7643WAT     H223172   0.808   8.190   6.462
 7644WAT      O23173   8.363   2.399   9.102
 7644WAT     H123174   8.297   2.458   9.148
 7644WAT     H223175   8.385   2.322   9.161
 7645WAT      O23176   9.649   5.982   2.654
 7645WAT     H123177   9.558   6.017   2.630
 7645WAT     H223178   9.716   6.055   2.646
 7646WAT      O23179   4.270   4.608   4.843
 7646WAT     H123180   4.289   4.581   4.937
 7646WAT     H223181   4.317   4.546   4.780
 7647WAT      O23182   6.099   0.581   3.180
 7647WAT     H123183   6.019   0.536   3.141
 7647WAT     H223184   6.165   0.512   3.210
 7648WAT      O23185   1.518   4.153   4.673
 7648WAT     H123186   1.488   4.123   4.764
 7648WAT     H223187   1.448   4.212   4.634
 7649WAT      O23188   3.963   4.029   4.087
 7649WAT     H123189   3.919   4.021   3.998
 7649WAT     H223190   3.915   4.099   4.141
 7650WAT      O23191   2.750   9.278   8.234
 7650WAT     H123192   2.792   9.220   8.303
 7650WAT     H223193   2.713   9.221   8.160
 7651WAT      O23194   3.682   3.120   2.537
 7651WAT     H123195   3.684   3.199   2.476
 7651WAT     H223196   3.589   3.083   2.540
 7652WAT      O23197   1.861   5.944   6.921
 7652WAT     H123198   1.818   5.860   6.955
 7652WAT     H223199   1.889   6.001   6.999
 7653WAT      O23200   0.586   4.989   6.930
 7653WAT     H123201   0.592   4.920   6.858
 7653WAT     H223202   0.615   4.949   7.017
 7654WAT      O23203   1.316   3.225   1.781
 7654WAT     H123204   1.227   3.262   1.808
 7654WAT     H223205   1.346   3.158   1.849
 7655WAT      O23206   0.176   9.460   2.955
 7655WAT     H123207   0.248   9.521   2.920
 7655WAT     H223208   0.179   9.373   2.905
 7656WAT      O23209   9.023   5.503   1.845
 7656WAT     H123210   8.982   5.588   1.880
 7656WAT     H223211   9.095   5.473   1.907
 7657WAT      O23212   7.093   0.047   8.536
 7657WAT     H123213   7.005   0.000   8.538
 7657WAT     H223214   7.102   0.105   8.617
 7658WAT      O23215   1.657   6.487   7.877
 7658WAT     H123216   1.676   6.557   7.945
 7658WAT     H223217   1.636   6.531   7.789
 7659WAT      O23218   2.162   3.443   9.568
 7659WAT     H123219   2.086   3.382   9.588
 7659WAT     H223220   2.234   3.393   9.521
 7660WAT      O23221   8.171   9.262   5.814
 7660WAT     H123222   8.105   9.194   5.782
 7660WAT     H223223   8.126   9.327   5.875
 7661WAT      O23224   0.637   7.218   5.564
 7661WAT     H123225   0.659   7.162   5.643
 7661WAT     H223226   0.695   7.300   5.565
 7662WAT      O23227   7.519   2.525   6.436
 7662WAT     H123228   7.598   2.529   6.376
 7662WAT     H223229   7.484   2.617   6.452
 7663WAT      O23230   7.065   8.232   4.862
 7663WAT     H123231   7.089   8.295   4.936
 7663WAT     H223232   7.021   8.151   4.899
 7664WAT      O23233   1.902   7.999   6.054
 7664WAT     H123234   1.930   7.929   5.989
 7664WAT     H223235   1.818   7.970   6.100
 7665WAT      O23236   4.759   9.390   9.763
 7665WAT     H123237   4.791   9.432   9.678
 7665WAT     H223238   4.777   9.292   9.761
 7666WAT      O23239   6.155   1.877   8.539
 7666WAT     H123240   6.171   1.939   8.463
 7666WAT     H223241   6.235   1.878   8.600
 7667WAT      O23242   7.940   3.660   5.420
 7667WAT     H123243   7.966   3.711   5.338
 7667WAT     H223244   7.853   3.613   5.405
 7668WAT      O23245   8.949   5.688   5.601
 7668WAT     H123246   9.000   5.618   5.550
 7668WAT     H223247   8.854   5.658   5.612
 7669WAT      O23248   3.321   6.077   1.884
 7669WAT     H123249   3.389   6.062   1.956
 7669WAT     H223250   3.343   6.019   1.805
 7670WAT      O23251   5.700   9.410   4.045
 7670WAT     H123252   5.714   9.468   4.126
 7670WAT     H223253   5.604   9.387   4.036
 7671WAT      O23254   8.093   8.775   9.434
 7671WAT     H123255   8.055   8.864   9.459
 7671WAT     H223256   8.026   8.704   9.457
 7672WAT      O23257   4.419   5.655   2.639
 7672WAT     H123258   4.429   5.679   2.543
 7672WAT     H223259   4.404   5.739   2.693
 7673WAT      O23260   3.809   5.483   6.078
 7673WAT     H123261   3.741   5.410   6.085
 7673WAT     H223262   3.815   5.515   5.984
 7674WAT      O23263   5.162   8.778   0.978
 7674WAT     H123264   5.180   8.715   0.903
 7674WAT     H223265   5.084   8.836   0.955
 7675WAT      O23266   2.122   1.231  -0.002
 7675WAT     H123267   2.032   1.269   0.021
 7675WAT     H223268   2.169   1.204   0.082
 7676WAT      O23269   1.351   2.389   4.998
 7676WAT     H123270   1.353   2.472   5.054
 7676WAT     H223271   1.363   2.309   5.056
 7677WAT      O23272   8.927   7.910   7.762
 7677WAT     H123273   8.870   7.852   7.819
 7677WAT     H223274   8.972   7.979   7.819
 7678WAT      O23275   2.055   3.338   7.123
 7678WAT     H123276   2.043   3.239   7.133
 7678WAT     H223277   2.011   3.384   7.200
 7679WAT      O23278   9.234   8.231   0.174
 7679WAT     H123279   9.230   8.249   0.076
 7679WAT     H223280   9.310   8.170   0.194
 7680WAT      O23281   4.430   4.919   1.464
 7680WAT     H123282   4.486   4.836   1.470
 7680WAT     H223283   4.393   4.941   1.554
 7681WAT      O23284   8.543   0.762   8.486
 7681WAT     H123285   8.560   0.809   8.399
 7681WAT     H223286   8.487   0.821   8.545
 7682WAT      O23287   5.891   4.364   4.985
 7682WAT     H123288   5.851   4.286   5.034
 7682WAT     H223289   5.821   4.405   4.926
 7683WAT      O23290   9.270   2.824   7.736
 7683WAT     H123291   9.222   2.906   7.704
 7683WAT     H223292   9.349   2.851   7.791
 7684WAT      O23293   2.530   5.330   7.683
 7684WAT     H123294   2.499   5.257   7.745
 7684WAT     H223295   2.629   5.325   7.673
 7685WAT      O23296   7.706   3.564   7.428
 7685WAT     H123297   7.637   3.495   7.452
 7685WAT     H223298   7.783   3.519   7.383
 7686WAT      O23299   1.170   2.895   0.963
 7686WAT     H123300   1.109   2.972   0.945
 7686WAT     H223301   1.265   2.928   0.966
 7687WAT      O23302   1.392   7.764   1.317
 7687WAT     H123303   1.445   7.682   1.340
 7687WAT     H223304   1.355   7.755   1.224
 7688WAT      O23305   0.495   0.669   6.262
 7688WAT     H123306   0.512   0.648   6.165
 7688WAT     H223307   0.473   0.766   6.272
 7689WAT      O23308   6.191   6.208   2.796
 7689WAT     H123309   6.270   6.243   2.847
 7689WAT     H223310   6.124   6.171   2.861
 7690WAT      O23311   8.487   5.106   1.384
 7690WAT     H123312   8.543   5.185   1.413
 7690WAT     H223313   8.480   5.041   1.460
 7691WAT      O23314   6.726   6.553   4.559
 7691WAT     H123315   6.671   6.469   4.561
 7691WAT     H223316   6.820   6.530   4.536
 7692WAT      O23317   3.912   1.070   0.518
 7692WAT     H123318   3.842   1.139   0.498
 7692WAT     H223319   3.900   1.038   0.612
 7693WAT      O23320   5.833   5.273   3.593
 7693WAT     H123321   5.749   5.323   3.614
 7693WAT     H223322   5.812   5.175   3.583
 7694WAT      O23323   8.697   1.238   0.663
 7694WAT     H123324   8.628   1.187   0.713
 7694WAT     H223325   8.770   1.266   0.726
 7695WAT      O23326   9.697   9.643   2.457
 7695WAT     H123327   9.756   9.681   2.529
 7695WAT     H223328   9.615   9.606   2.499
 7696WAT      O23329   9.056   7.067   6.238
 7696WAT     H123330   8.971   7.013   6.238
 7696WAT     H223331   9.134   7.005   6.228
 7697WAT      O23332   5.686   2.440   1.977
 7697WAT     H123333   5.613   2.432   2.045
 7697WAT     H223334   5.773   2.414   2.019
 7698WAT      O23335   0.182   2.921   4.246
 7698WAT     H123336   0.158   2.991   4.312
 7698WAT     H223337   0.208   2.837   4.294
 7699WAT      O23338   2.274   8.561   6.816
 7699WAT     H123339   2.351   8.498   6.824
 7699WAT     H223340   2.299   8.638   6.757
 7700WAT      O23341   1.853   5.929   3.674
 7700WAT     H123342   1.927   5.864   3.657
 7700WAT     H223343   1.888   6.022   3.668
 7701WAT      O23344   5.931   8.391   2.144
 7701WAT     H123345   5.837   8.365   2.124
 7701WAT     H223346   5.962   8.461   2.079
 7702WAT      O23347   0.812   4.839   8.010
 7702WAT     H123348   0.805   4.911   8.078
 7702WAT     H223349   0.908   4.825   7.985
 7703WAT      O23350   9.644   3.062   4.745
 7703WAT     H123351   9.702   3.006   4.804
 7703WAT     H223352   9.634   3.153   4.784
 7704WAT      O23353   9.884   7.121   8.404
 7704WAT     H123354   9.958   7.082   8.349
 7704WAT     H223355   9.891   7.221   8.401
 7705WAT      O23356   0.841   0.388   4.003
 7705WAT     H123357   0.841   0.482   3.968
 7705WAT     H223358   0.752   0.368   4.044
 7706WAT      O23359   5.072   3.640   2.202
 7706WAT     H123360   5.040   3.658   2.295
 7706WAT     H223361   5.048   3.546   2.177
 7707WAT      O23362   5.172   7.547   8.807
 7707WAT     H123363   5.248   7.601   8.774
 7707WAT     H223364   5.172   7.545   8.907
 7708WAT      O23365   4.545   9.698   3.076
 7708WAT     H123366   4.608   9.771   3.101
 7708WAT     H223367   4.489   9.675   3.155
 7709WAT      O23368   3.985   3.001   8.480
 7709WAT     H123369   4.070   2.976   8.433
 7709WAT     H223370   3.985   2.962   8.572
 7710WAT      O23371   1.063   8.889   7.057
 7710WAT     H123372   1.005   8.851   6.985
 7710WAT     H223373   1.111   8.969   7.022
 7711WAT      O23374   1.566   5.659   0.116
 7711WAT     H123375   1.611   5.703   0.194
 7711WAT     H223376   1.500   5.721   0.076
 7712WAT      O23377   6.054   0.655   2.583
 7712WAT     H123378   6.116   0.663   2.505
 7712WAT     H223379   6.072   0.569   2.631
 7713WAT      O23380   3.407   6.332   3.630
 7713WAT     H123381   3.429   6.269   3.555
 7713WAT     H223382   3.343   6.288   3.692
 7714WAT      O23383   6.941   2.818   0.825
 7714WAT     H123384   7.026   2.867   0.839
 7714WAT     H223385   6.867   2.883   0.805
 7715WAT      O23386   8.093   7.336   9.745
 7715WAT     H123387   8.062   7.243   9.766
 7715WAT     H223388   8.192   7.335   9.727
 7716WAT      O23389   4.200   2.105   7.240
 7716WAT     H123390   4.193   2.053   7.155
 7716WAT     H223391   4.136   2.182   7.237
 7717WAT      O23392   6.390   3.311   4.121
 7717WAT     H123393   6.419   3.271   4.208
 7717WAT     H223394   6.417   3.408   4.118
 7718WAT      O23395   1.267   6.416   9.068
 7718WAT     H123396   1.224   6.497   9.027
 7718WAT     H223397   1.211   6.384   9.145
 7719WAT      O23398   8.755   0.895   2.576
 7719WAT     H123399   8.719   0.982   2.542
 7719WAT     H223400   8.825   0.913   2.645
 7720WAT      O23401   3.303   0.264   3.843
 7720WAT     H123402   3.285   0.358   3.872
 7720WAT     H223403   3.369   0.221   3.905
 7721WAT      O23404   7.974   4.830   8.645
 7721WAT     H123405   8.034   4.882   8.584
 7721WAT     H223406   7.954   4.740   8.605
 7722WAT      O23407   9.428   2.413   3.314
 7722WAT     H123408   9.516   2.370   3.333
 7722WAT     H223409   9.361   2.343   3.290
 7723WAT      O23410   3.786   7.336   9.730
 7723WAT     H123411   3.691   7.334   9.761
 7723WAT     H223412   3.845   7.300   9.802
 7724WAT      O23413   9.396   8.900   1.419
 7724WAT     H123414   9.399   8.894   1.519
 7724WAT     H223415   9.397   8.807   1.381
 7725WAT      O23416   4.916   5.751   3.248
 7725WAT     H123417   5.004   5.799   3.243
 7725WAT     H223418   4.928   5.664   3.296
 7726WAT      O23419   9.073   4.209   4.444
 7726WAT     H123420   9.093   4.116   4.472
 7726WAT     H223421   9.140   4.240   4.377
 7727WAT      O23422   5.693   1.763   0.131
 7727WAT     H123423   5.616   1.700   0.130
 7727WAT     H223424   5.756   1.740   0.057
 7728WAT      O23425   2.384   5.941   0.658
 7728WAT     H123426   2.313   6.011   0.652
 7728WAT     H223427   2.382   5.899   0.749
 7729WAT      O23428   2.977   1.455   3.037
 7729WAT     H123429   2.884   1.470   3.069
 7729WAT     H223430   2.986   1.487   2.943
 7730WAT      O23431   6.123   3.002   3.773
 7730WAT     H123432   6.217   2.981   3.747
 7730WAT     H223433   6.116   3.006   3.872
 7731WAT      O23434   2.272   4.768   4.030
 7731WAT     H123435   2.218   4.794   3.950
 7731WAT     H223436   2.370   4.772   4.007
 7732WAT      O23437   2.898   6.059   6.297
 7732WAT     H123438   2.837   6.015   6.232
 7732WAT     H223439   2.970   6.108   6.247
 7733WAT      O23440   0.497   7.894   0.925
 7733WAT     H123441   0.458   7.887   0.833
 7733WAT     H223442   0.424   7.909   0.991
 7734WAT      O23443   8.560   9.660   3.312
 7734WAT     H123444   8.522   9.599   3.242
 7734WAT     H223445   8.642   9.705   3.277
 7735WAT      O23446   4.240   5.133   3.591
 7735WAT     H123447   4.278   5.078   3.665
 7735WAT     H223448   4.151   5.169   3.617
 7736WAT      O23449   6.589   3.347   6.855
 7736WAT     H123450   6.552   3.298   6.934
 7736WAT     H223451   6.661   3.409   6.885
 7737WAT      O23452   7.737   6.347   3.832
 7737WAT     H123453   7.806   6.276   3.847
 7737WAT     H223454   7.649   6.316   3.868
 7738WAT      O23455   7.865   8.924   7.787
 7738WAT     H123456   7.782   8.881   7.752
 7738WAT     H223457   7.848   8.962   7.878
 7739WAT      O23458   2.566   3.137   9.655
 7739WAT     H123459   2.578   3.158   9.752
 7739WAT     H223460   2.630   3.191   9.601
 7740WAT      O23461   5.016   5.804   3.831
 7740WAT     H123462   5.082   5.738   3.792
 7740WAT     H223463   5.003   5.879   3.766
 7741WAT      O23464   6.951   8.496   9.876
 7741WAT     H123465   6.919   8.580   9.831
 7741WAT     H223466   6.874   8.446   9.913
 7742WAT      O23467   6.945   5.458   7.669
 7742WAT     H123468   6.960   5.528   7.599
 7742WAT     H223469   7.025   5.398   7.673
 7743WAT      O23470   1.138   1.156   6.772
 7743WAT     H123471   1.205   1.085   6.751
 7743WAT     H223472   1.175   1.217   6.841
 7744WAT      O23473   9.602   1.527   3.661
 7744WAT     H123474   9.587   1.486   3.750
 7744WAT     H223475   9.579   1.461   3.589
 7745WAT      O23476   3.301   6.896   9.023
 7745WAT     H123477   3.391   6.892   9.067
 7745WAT     H223478   3.313   6.916   8.925
 7746WAT      O23479   8.931   9.136   1.918
 7746WAT     H123480   8.961   9.230   1.901
 7746WAT     H223481   9.011   9.078   1.931
 7747WAT      O23482   6.353   3.151   5.382
 7747WAT     H123483   6.271   3.116   5.336
 7747WAT     H223484   6.332   3.238   5.426
 7748WAT      O23485   2.727   1.051   2.028
 7748WAT     H123486   2.633   1.070   2.054
 7748WAT     H223487   2.735   1.050   1.928
 7749WAT      O23488   1.217   4.640   2.633
 7749WAT     H123489   1.258   4.727   2.661
 7749WAT     H223490   1.130   4.658   2.585
 7750WAT      O23491   2.990   3.540   5.032
 7750WAT     H123492   3.047   3.527   5.113
 7750WAT     H223493   2.908   3.483   5.039
 7751WAT      O23494   1.294   1.984   6.892
 7751WAT     H123495   1.264   2.079   6.899
 7751WAT     H223496   1.375   1.970   6.950
 7752WAT      O23497   3.574   2.992   3.904
 7752WAT     H123498   3.550   3.081   3.941
 7752WAT     H223499   3.525   2.920   3.954
 7753WAT      O23500   8.373   3.263   4.016
 7753WAT     H123501   8.391   3.175   4.060
 7753WAT     H223502   8.444   3.329   4.041
 7754WAT      O23503   5.415   3.609   7.224
 7754WAT     H123504   5.445   3.574   7.135
 7754WAT     H223505   5.480   3.581   7.294
 7755WAT      O23506   7.347   1.246   8.594
 7755WAT     H123507   7.445   1.249   8.615
 7755WAT     H223508   7.328   1.307   8.517
 7756WAT      O23509   8.763   2.417   8.593
 7756WAT     H123510   8.727   2.463   8.674
 7756WAT     H223511   8.691   2.360   8.553
 7757WAT      O23512   5.572   1.391   8.167
 7757WAT     H123513   5.552   1.476   8.119
 7757WAT     H223514   5.660   1.399   8.214
 7758WAT      O23515   9.753   2.015   8.629
 7758WAT     H123516   9.741   2.114   8.634
 7758WAT     H223517   9.663   1.971   8.622
 7759WAT      O23518   5.688   7.072   9.890
 7759WAT     H123519   5.777   7.044   9.926
 7759WAT     H223520   5.625   6.995   9.893
 7760WAT      O23521   4.041   6.708   4.755
 7760WAT     H123522   4.095   6.628   4.732
 7760WAT     H223523   4.088   6.790   4.723
 7761WAT      O23524   3.317   9.096   6.584
 7761WAT     H123525   3.335   9.154   6.504
 7761WAT     H223526   3.240   9.035   6.563
 7762WAT      O23527   3.436   4.866   4.778
 7762WAT     H123528   3.517   4.913   4.741
 7762WAT     H223529   3.355   4.921   4.759
 7763WAT      O23530   8.080   4.923   5.290
 7763WAT     H123531   8.088   5.012   5.245
 7763WAT     H223532   8.161   4.869   5.270
 7764WAT      O23533   7.803   0.704   3.851
 7764WAT     H123534   7.873   0.645   3.892
 7764WAT     H223535   7.718   0.652   3.841
 7765WAT      O23536   3.386   6.539   1.084
 7765WAT     H123537   3.451   6.584   1.024
 7765WAT     H223538   3.341   6.607   1.142
 7766WAT      O23539   2.823   9.533   8.729
 7766WAT     H123540   2.753   9.462   8.718
 7766WAT     H223541   2.782   9.615   8.769
 7767WAT      O23542   5.377   9.223   0.797
 7767WAT     H123543   5.423   9.265   0.719
 7767WAT     H223544   5.443   9.170   0.849
 7768WAT      O23545   5.806   5.212   2.311
 7768WAT     H123546   5.729   5.174   2.363
 7768WAT     H223547   5.825   5.305   2.344
 7769WAT      O23548   7.207   5.266   9.276
 7769WAT     H123549   7.178   5.174   9.249
 7769WAT     H223550   7.306   5.274   9.267
 7770WAT      O23551   8.425   0.141   9.533
 7770WAT     H123552   8.333   0.113   9.561
 7770WAT     H223553   8.445   0.102   9.443
 7771WAT      O23554   8.583   6.435   7.883
 7771WAT     H123555   8.537   6.482   7.808
 7771WAT     H223556   8.516   6.386   7.938
 7772WAT      O23557   9.387   2.511   6.939
 7772WAT     H123558   9.480   2.545   6.956
 7772WAT     H223559   9.334   2.582   6.893
 7773WAT      O23560   2.172   6.676   2.396
 7773WAT     H123561   2.218   6.614   2.333
 7773WAT     H223562   2.155   6.629   2.482
 7774WAT      O23563   6.546   7.536   4.839
 7774WAT     H123564   6.477   7.466   4.854
 7774WAT     H223565   6.531   7.579   4.750
 7775WAT      O23566   9.717   1.025   6.664
 7775WAT     H123567   9.706   1.065   6.573
 7775WAT     H223568   9.644   1.058   6.724
 7776WAT      O23569   1.580   6.612   2.814
 7776WAT     H123570   1.648   6.633   2.885
 7776WAT     H223571   1.490   6.601   2.857
 7777WAT      O23572   8.422   6.991   4.190
 7777WAT     H123573   8.453   6.911   4.242
 7777WAT     H223574   8.343   7.031   4.237
 7778WAT      O23575   1.403   9.317   9.278
 7778WAT     H123576   1.490   9.275   9.305
 7778WAT     H223577   1.335   9.245   9.263
 7779WAT      O23578   9.063   0.812   3.050
 7779WAT     H123579   9.003   0.881   3.090
 7779WAT     H223580   9.073   0.828   2.952
 7780WAT      O23581   5.550   2.415   9.107
 7780WAT     H123582   5.511   2.325   9.128
 7780WAT     H223583   5.597   2.410   9.018
 7781WAT      O23584   8.763   6.795   3.907
 7781WAT     H123585   8.666   6.808   3.927
 7781WAT     H223586   8.813   6.779   3.992
 7782WAT      O23587   0.606   7.093   4.498
 7782WAT     H123588   0.568   7.180   4.530
 7782WAT     H223589   0.593   7.024   4.569
 7783WAT      O23590   2.921   1.639   5.863
 7783WAT     H123591   2.896   1.733   5.841
 7783WAT     H223592   2.860   1.576   5.815
 7784WAT      O23593   3.160   3.694   5.910
 7784WAT     H123594   3.220   3.727   5.837
 7784WAT     H223595   3.130   3.771   5.966
 7785WAT      O23596   7.561   9.707   2.593
 7785WAT     H123597   7.608   9.689   2.507
 7785WAT     H223598   7.544   9.805   2.602
 7786WAT      O23599   3.761   4.935   7.481
 7786WAT     H123600   3.823   4.858   7.467
 7786WAT     H223601   3.760   4.993   7.399
 7787WAT      O23602   1.627   6.101   6.874
 7787WAT     H123603   1.684   6.021   6.894
 7787WAT     H223604   1.669   6.183   6.914
 7788WAT      O23605   3.277   3.411   5.842
 7788WAT     H123606   3.258   3.406   5.744
 7788WAT     H223607   3.222   3.483   5.883
 7789WAT      O23608   5.780   5.856   3.193
 7789WAT     H123609   5.775   5.785   3.263
 7789WAT     H223610   5.828   5.935   3.229
 7790WAT      O23611   6.552   6.631   6.719
 7790WAT     H123612   6.621   6.587   6.661
 7790WAT     H223613   6.462   6.595   6.697
 7791WAT      O23614   7.535   4.611   3.005
 7791WAT     H123615   7.617   4.597   2.950
 7791WAT     H223616   7.562   4.638   3.098
 7792WAT      O23617   8.096   8.355   5.322
 7792WAT     H123618   8.024   8.349   5.391
 7792WAT     H223619   8.067   8.308   5.239
 7793WAT      O23620   7.285   8.792   9.851
 7793WAT     H123621   7.252   8.844   9.772
 7793WAT     H223622   7.241   8.702   9.853
 7794WAT      O23623   4.359   9.484   0.231
 7794WAT     H123624   4.262   9.484   0.254
 7794WAT     H223625   4.371   9.489   0.132
 7795WAT      O23626   1.979   9.351   4.642
 7795WAT     H123627   2.049   9.294   4.599
 7795WAT     H223628   1.888   9.323   4.610
 7796WAT      O23629   7.584   2.466   3.112
 7796WAT     H123630   7.550   2.508   3.027
 7796WAT     H223631   7.678   2.496   3.128
 7797WAT      O23632   2.390   6.835   4.042
 7797WAT     H123633   2.470   6.776   4.056
 7797WAT     H223634   2.415   6.914   3.987
 7798WAT      O23635   8.778   1.110   7.070
 7798WAT     H123636   8.837   1.160   7.133
 7798WAT     H223637   8.832   1.044   7.018
 7799WAT      O23638   1.104   3.416   4.479
 7799WAT     H123639   1.166   3.338   4.470
 7799WAT     H223640   1.011   3.388   4.454
 7800WAT      O23641   4.373   8.382   8.952
 7800WAT     H123642   4.316   8.435   8.890
 7800WAT     H223643   4.332   8.381   9.043
 7801WAT      O23644   4.102   1.681   7.379
 7801WAT     H123645   4.055   1.610   7.432
 7801WAT     H223646   4.199   1.679   7.401
 7802WAT      O23647   8.785   9.794   1.463
 7802WAT     H123648   8.857   9.842   1.413
 7802WAT     H223649   8.817   9.702   1.489
 7803WAT      O23650   5.003   4.517   2.678
 7803WAT     H123651   5.047   4.437   2.637
 7803WAT     H223652   5.067   4.594   2.680
 7804WAT      O23653   2.796   2.356   5.872
 7804WAT     H123654   2.724   2.298   5.832
 7804WAT     H223655   2.765   2.390   5.961
 7805WAT      O23656   0.848   0.639   3.075
 7805WAT     H123657   0.819   0.554   3.031
 7805WAT     H223658   0.853   0.712   3.008
 7806WAT      O23659   6.734   7.653   0.589
 7806WAT     H123660   6.725   7.704   0.675
 7806WAT     H223661   6.711   7.713   0.512
 7807WAT      O23662   6.286   8.826   5.758
 7807WAT     H123663   6.229   8.905   5.737
 7807WAT     H223664   6.351   8.850   5.829
 7808WAT      O23665   4.277   8.328   0.213
 7808WAT     H123666   4.359   8.281   0.247
 7808WAT     H223667   4.196   8.275   0.239
 7809WAT      O23668   1.953   7.203   9.754
 7809WAT     H123669   1.990   7.294   9.769
 7809WAT     H223670   1.922   7.165   9.841
 7810WAT      O23671   0.731   9.840   8.162
 7810WAT     H123672   0.632   9.848   8.174
 7810WAT     H223673   0.753   9.755   8.115
 7811WAT      O23674   0.697   4.116   7.745
 7811WAT     H123675   0.630   4.189   7.757
 7811WAT     H223676   0.714   4.072   7.833
 7812WAT      O23677   8.971   6.886   6.849
 7812WAT     H123678   8.947   6.790   6.838
 7812WAT     H223679   9.000   6.924   6.761
 7813WAT      O23680   0.572   0.692   9.536
 7813WAT     H123681   0.578   0.614   9.474
 7813WAT     H223682   0.565   0.777   9.484
 7814WAT      O23683   4.597   0.077   4.920
 7814WAT     H123684   4.587  -0.022   4.924
 7814WAT     H223685   4.694   0.102   4.917
 7815WAT      O23686   8.295   8.461   3.671
 7815WAT     H123687   8.197   8.458   3.654
 7815WAT     H223688   8.341   8.397   3.610
 7816WAT      O23689   7.807   6.342   4.386
 7816WAT     H123690   7.897   6.378   4.409
 7816WAT     H223691   7.747   6.418   4.360
 7817WAT      O23692   4.343   6.983   7.005
 7817WAT     H123693   4.382   7.068   7.042
 7817WAT     H223694   4.408   6.942   6.941
 7818WAT      O23695   3.773   3.130   3.423
 7818WAT     H123696   3.704   3.124   3.352
 7818WAT     H223697   3.761   3.057   3.489
 7819WAT      O23698   1.718   3.645   9.094
 7819WAT     H123699   1.626   3.607   9.104
 7819WAT     H223700   1.748   3.683   9.182
 7820WAT      O23701   5.270   6.845   1.529
 7820WAT     H123702   5.322   6.887   1.455
 7820WAT     H223703   5.251   6.749   1.505
 7821WAT      O23704   9.119   0.553   4.286
 7821WAT     H123705   9.070   0.614   4.224
 7821WAT     H223706   9.210   0.535   4.250
 7822WAT      O23707   5.209   8.969   4.343
 7822WAT     H123708   5.170   9.051   4.384
 7822WAT     H223709   5.144   8.893   4.350
 7823WAT      O23710   5.972   7.910   1.165
 7823WAT     H123711   6.012   7.998   1.190
 7823WAT     H223712   5.903   7.922   1.095
 7824WAT      O23713   6.678   9.760   9.258
 7824WAT     H123714   6.638   9.834   9.312
 7824WAT     H223715   6.663   9.777   9.161
 7825WAT      O23716   9.680   4.800   4.276
 7825WAT     H123717   9.633   4.723   4.319
 7825WAT     H223718   9.659   4.801   4.178
 7826WAT      O23719   8.412   8.569   3.372
 7826WAT     H123720   8.464   8.491   3.408
 7826WAT     H223721   8.351   8.603   3.444
 7827WAT      O23722   6.325   2.290   3.817
 7827WAT     H123723   6.379   2.373   3.801
 7827WAT     H223724   6.384   2.218   3.852
 7828WAT      O23725   7.672   9.153   8.972
 7828WAT     H123726   7.625   9.084   8.916
 7828WAT     H223727   7.644   9.144   9.067
 7829WAT      O23728   0.777   9.748   5.282
 7829WAT     H123729   0.755   9.719   5.375
 7829WAT     H223730   0.823   9.674   5.233
 7830WAT      O23731   4.735   5.803   3.853
 7830WAT     H123732   4.834   5.791   3.840
 7830WAT     H223733   4.703   5.877   3.794
 7831WAT      O23734   2.153   2.477   2.192
 7831WAT     H123735   2.193   2.550   2.248
 7831WAT     H223736   2.078   2.514   2.137
 7832WAT      O23737   5.509   4.860   0.605
 7832WAT     H123738   5.563   4.799   0.546
 7832WAT     H223739   5.421   4.818   0.624
 7833WAT      O23740   8.457   0.698   7.691
 7833WAT     H123741   8.526   0.633   7.659
 7833WAT     H223742   8.415   0.663   7.775
 7834WAT      O23743   7.710   2.743   0.691
 7834WAT     H123744   7.755   2.766   0.777
 7834WAT     H223745   7.611   2.745   0.703
 7835WAT      O23746   6.415   6.782   6.428
 7835WAT     H123747   6.359   6.827   6.358
 7835WAT     H223748   6.501   6.752   6.389
 7836WAT      O23749   5.408   8.426   2.784
 7836WAT     H123750   5.369   8.517   2.767
 7836WAT     H223751   5.454   8.426   2.873
 7837WAT      O23752   4.637   8.773   3.162
 7837WAT     H123753   4.583   8.791   3.245
 7837WAT     H223754   4.590   8.812   3.083
 7838WAT      O23755   1.398   4.795   8.878
 7838WAT     H123756   1.389   4.869   8.811
 7838WAT     H223757   1.343   4.818   8.959
 7839WAT      O23758   4.755   5.490   3.840
 7839WAT     H123759   4.795   5.532   3.758
 7839WAT     H223760   4.789   5.538   3.921
 7840WAT      O23761   8.768   7.400   3.094
 7840WAT     H123762   8.810   7.381   3.182
 7840WAT     H223763   8.721   7.318   3.061
 7841WAT      O23764   2.906   8.569   6.368
 7841WAT     H123765   2.940   8.663   6.360
 7841WAT     H223766   2.952   8.524   6.444
 7842WAT      O23767   9.499   0.221   3.285
 7842WAT     H123768   9.483   0.127   3.317
 7842WAT     H223769   9.452   0.285   3.344
 7843WAT      O23770   7.095   4.031   6.383
 7843WAT     H123771   7.050   4.091   6.317
 7843WAT     H223772   7.027   3.989   6.442
 7844WAT      O23773   7.168   2.698   7.735
 7844WAT     H123774   7.176   2.603   7.704
 7844WAT     H223775   7.174   2.759   7.656
 7845WAT      O23776   5.527   9.642   1.188
 7845WAT     H123777   5.611   9.638   1.135
 7845WAT     H223778   5.460   9.578   1.150
 7846WAT      O23779   2.568   1.300   2.555
 7846WAT     H123780   2.523   1.212   2.541
 7846WAT     H223781   2.650   1.286   2.610
 7847WAT      O23782   1.294   4.296   0.425
 7847WAT     H123783   1.224   4.224   0.418
 7847WAT     H223784   1.249   4.384   0.440
 7848WAT      O23785   2.380   6.516   2.509
 7848WAT     H123786   2.349   6.494   2.602
 7848WAT     H223787   2.373   6.434   2.452
 7849WAT      O23788   1.080   9.197   2.095
 7849WAT     H123789   1.068   9.256   2.015
 7849WAT     H223790   0.995   9.192   2.147
 7850WAT      O23791   3.889   4.309   8.584
 7850WAT     H123792   3.819   4.375   8.556
 7850WAT     H223793   3.963   4.357   8.630
 7851WAT      O23794   5.706   4.842   9.234
 7851WAT     H123795   5.795   4.843   9.280
 7851WAT     H223796   5.705   4.769   9.166
 7852WAT      O23797   5.369   8.782   9.346
 7852WAT     H123798   5.440   8.736   9.399
 7852WAT     H223799   5.364   8.742   9.254
 7853WAT      O23800   8.621   8.692   6.968
 7853WAT     H123801   8.619   8.634   6.887
 7853WAT     H223802   8.529   8.724   6.989
 7854WAT      O23803   8.350   5.304   8.712
 7854WAT     H123804   8.393   5.285   8.800
 7854WAT     H223805   8.360   5.401   8.691
 7855WAT      O23806   8.407   5.671   1.436
 7855WAT     H123807   8.497   5.666   1.393
 7855WAT     H223808   8.354   5.744   1.393
 7856WAT      O23809   7.126   4.596   8.572
 7856WAT     H123810   7.115   4.520   8.509
 7856WAT     H223811   7.079   4.576   8.658
 7857WAT      O23812   3.577   2.088   5.435
 7857WAT     H123813   3.541   2.080   5.342
 7857WAT     H223814   3.517   2.040   5.498
 7858WAT      O23815   8.021   3.798   7.562
 7858WAT     H123816   7.997   3.726   7.497
 7858WAT     H223817   8.110   3.777   7.603
 7859WAT      O23818   9.250   1.886   2.956
 7859WAT     H123819   9.260   1.847   2.865
 7859WAT     H223820   9.335   1.932   2.982
 7860WAT      O23821   0.459   2.483   5.804
 7860WAT     H123822   0.430   2.403   5.751
 7860WAT     H223823   0.555   2.472   5.831
 7861WAT      O23824   3.025   3.128   9.745
 7861WAT     H123825   3.082   3.113   9.826
 7861WAT     H223826   3.010   3.041   9.698
 7862WAT      O23827   5.587   9.758   2.405
 7862WAT     H123828   5.536   9.762   2.491
 7862WAT     H223829   5.651   9.834   2.400
 7863WAT      O23830   9.341   5.079   4.975
 7863WAT     H123831   9.275   5.154   4.978
 7863WAT     H223832   9.433   5.114   4.995
 7864WAT      O23833   8.858   2.481   3.326
 7864WAT     H123834   8.838   2.387   3.350
 7864WAT     H223835   8.952   2.503   3.353
 7865WAT      O23836   2.210   7.070   1.856
 7865WAT     H123837   2.279   7.132   1.820
 7865WAT     H223838   2.234   7.044   1.950
 7866WAT      O23839   5.226   6.600   3.374
 7866WAT     H123840   5.195   6.690   3.405
 7866WAT     H223841   5.271   6.610   3.285
 7867WAT      O23842   1.664   2.788   8.450
 7867WAT     H123843   1.575   2.807   8.492
 7867WAT     H223844   1.671   2.691   8.427
 7868WAT      O23845   0.085   2.488   8.709
 7868WAT     H123846   0.163   2.525   8.760
 7868WAT     H223847   0.002   2.494   8.765
 7869WAT      O23848   8.219   5.573   2.905
 7869WAT     H123849   8.133   5.586   2.953
 7869WAT     H223850   8.288   5.536   2.967
 7870WAT      O23851   7.604   6.624   3.040
 7870WAT     H123852   7.593   6.681   3.122
 7870WAT     H223853   7.697   6.587   3.037
 7871WAT      O23854   3.391   6.543   3.817
 7871WAT     H123855   3.336   6.604   3.761
 7871WAT     H223856   3.417   6.462   3.764
 7872WAT      O23857   1.958   5.067   4.386
 7872WAT     H123858   1.972   5.166   4.397
 7872WAT     H223859   2.032   5.029   4.330
 7873WAT      O23860   4.534   9.112   9.885
 7873WAT     H123861   4.440   9.080   9.872
 7873WAT     H223862   4.538   9.211   9.870
 7874WAT      O23863   8.866   8.262   4.849
 7874WAT     H123864   8.923   8.180   4.850
 7874WAT     H223865   8.808   8.263   4.931
 7875WAT      O23866   7.714   4.269   2.822
 7875WAT     H123867   7.624   4.285   2.863
 7875WAT     H223868   7.703   4.237   2.728
 7876WAT      O23869   7.890   6.861   9.135
 7876WAT     H123870   7.949   6.850   9.216
 7876WAT     H223871   7.797   6.834   9.158
 7877WAT      O23872   8.972   6.770   1.103
 7877WAT     H123873   8.875   6.763   1.082
 7877WAT     H223874   8.984   6.809   1.195
 7878WAT      O23875   9.062   7.827   9.339
 7878WAT     H123876   9.087   7.917   9.374
 7878WAT     H223877   8.982   7.793   9.388
 7879WAT      O23878   2.662   9.827   4.556
 7879WAT     H123879   2.724   9.862   4.486
 7879WAT     H223880   2.570   9.862   4.539
 7880WAT      O23881   5.001   6.115   2.354
 7880WAT     H123882   5.046   6.108   2.265
 7880WAT     H223883   4.975   6.210   2.372
 7881WAT      O23884   5.045   1.888   9.648
 7881WAT     H123885   5.034   1.855   9.742
 7881WAT     H223886   5.027   1.813   9.584
 7882WAT      O23887   5.660   7.181   5.022
 7882WAT     H123888   5.631   7.196   4.927
 7882WAT     H223889   5.636   7.088   5.049
 7883WAT      O23890   3.673   3.351   8.512
 7883WAT     H123891   3.733   3.418   8.556
 7883WAT     H223892   3.728   3.285   8.460
 7884WAT      O23893   1.679   4.511   9.364
 7884WAT     H123894   1.716   4.445   9.429
 7884WAT     H223895   1.585   4.488   9.342
 7885WAT      O23896   5.353   3.855   6.467
 7885WAT     H123897   5.342   3.784   6.537
 7885WAT     H223898   5.288   3.929   6.485
 7886WAT      O23899   8.815   7.357   4.506
 7886WAT     H123900   8.814   7.357   4.406
 7886WAT     H223901   8.743   7.297   4.539
 7887WAT      O23902   0.183   4.710   8.999
 7887WAT     H123903   0.178   4.783   8.930
 7887WAT     H223904   0.277   4.701   9.031
 7888WAT      O23905   8.280   8.380   3.103
 7888WAT     H123906   8.293   8.478   3.087
 7888WAT     H223907   8.358   8.344   3.154
 7889WAT      O23908   5.314   4.794   9.781
 7889WAT     H123909   5.251   4.786   9.704
 7889WAT     H223910   5.264   4.780   9.867
 7890WAT      O23911   1.800   2.529   0.494
 7890WAT     H123912   1.894   2.495   0.492
 7890WAT     H223913   1.774   2.562   0.403
 7891WAT      O23914   8.562   1.042   2.121
 7891WAT     H123915   8.477   1.032   2.173
 7891WAT     H223916   8.543   1.089   2.035
 7892WAT      O23917   3.726   0.808   8.898
 7892WAT     H123918   3.818   0.840   8.917
 7892WAT     H223919   3.712   0.719   8.942
 7893WAT      O23920   0.960   2.858   3.816
 7893WAT     H123921   0.909   2.814   3.742
 7893WAT     H223922   0.955   2.801   3.899
 7894WAT      O23923   6.994   7.803   9.375
 7894WAT     H123924   7.013   7.739   9.301
 7894WAT     H223925   7.047   7.887   9.361
 7895WAT      O23926   1.305   8.987   7.477
 7895WAT     H123927   1.250   8.903   7.479
 7895WAT     H223928   1.245   9.066   7.485
 7896WAT      O23929   1.429   4.343   8.666
 7896WAT     H123930   1.350   4.289   8.697
 7896WAT     H223931   1.404   4.439   8.665
 7897WAT      O23932   3.759   3.510   6.880
 7897WAT     H123933   3.803   3.476   6.796
 7897WAT     H223934   3.785   3.605   6.894
 7898WAT      O23935   6.090   0.732   6.516
 7898WAT     H123936   5.999   0.692   6.528
 7898WAT     H223937   6.082   0.831   6.511
 7899WAT      O23938   2.633   3.621   3.045
 7899WAT     H123939   2.661   3.613   2.950
 7899WAT     H223940   2.534   3.605   3.052
 7900WAT      O23941   4.250   6.282   3.855
 7900WAT     H123942   4.165   6.326   3.881
 7900WAT     H223943   4.263   6.289   3.756
 7901WAT      O23944   5.390   0.662   0.558
 7901WAT     H123945   5.459   0.730   0.583
 7901WAT     H223946   5.408   0.577   0.606
 7902WAT      O23947   0.520   7.966   4.610
 7902WAT     H123948   0.465   7.884   4.610
 7902WAT     H223949   0.461   8.047   4.614
 7903WAT      O23950   2.422   2.531   3.091
 7903WAT     H123951   2.399   2.619   3.050
 7903WAT     H223952   2.502   2.493   3.046
 7904WAT      O23953   6.387   3.739   5.417
 7904WAT     H123954   6.439   3.800   5.478
 7904WAT     H223955   6.367   3.654   5.464
 7905WAT      O23956   3.420   8.303   8.094
 7905WAT     H123957   3.415   8.266   8.187
 7905WAT     H223958   3.329   8.333   8.064
 7906WAT      O23959   9.350   5.086   6.707
 7906WAT     H123960   9.273   5.070   6.768
 7906WAT     H223961   9.431   5.038   6.742
 7907WAT      O23962   0.788   1.497   4.553
 7907WAT     H123963   0.760   1.458   4.641
 7907WAT     H223964   0.869   1.554   4.567
 7908WAT      O23965   7.728   7.514   6.271
 7908WAT     H123966   7.742   7.606   6.235
 7908WAT     H223967   7.812   7.461   6.260
 7909WAT      O23968   1.328   4.008   1.515
 7909WAT     H123969   1.284   4.089   1.477
 7909WAT     H223970   1.384   3.965   1.445
 7910WAT      O23971   6.087   4.855   6.805
 7910WAT     H123972   6.017   4.881   6.871
 7910WAT     H223973   6.066   4.896   6.716
 7911WAT      O23974   2.839   8.433   5.535
 7911WAT     H123975   2.910   8.428   5.605
 7911WAT     H223976   2.862   8.506   5.470
 7912WAT      O23977   9.009   5.816   5.169
 7912WAT     H123978   8.962   5.902   5.149
 7912WAT     H223979   8.942   5.748   5.199
 7913WAT      O23980   9.538   7.543   2.883
 7913WAT     H123981   9.503   7.629   2.845
 7913WAT     H223982   9.594   7.496   2.815
 7914WAT      O23983   2.598   9.284   6.584
 7914WAT     H123984   2.557   9.324   6.502
 7914WAT     H223985   2.653   9.204   6.557
 7915WAT      O23986   0.014   4.417   2.209
 7915WAT     H123987  -0.014   4.407   2.113
 7915WAT     H223988  -0.018   4.505   2.244
 7916WAT      O23989   9.025   4.737   5.652
 7916WAT     H123990   8.985   4.738   5.561
 7916WAT     H223991   8.964   4.688   5.715
 7917WAT      O23992   1.773   2.163   7.574
 7917WAT     H123993   1.787   2.092   7.506
 7917WAT     H223994   1.681   2.154   7.613
 7918WAT      O23995   6.672   1.716   1.492
 7918WAT     H123996   6.678   1.780   1.569
 7918WAT     H223997   6.595   1.743   1.434
 7919WAT      O23998   3.208   0.058   3.682
 7919WAT     H123999   3.300   0.025   3.662
 7919WAT     H224000   3.211   0.125   3.756
 7920WAT      O24001   8.740   1.948   4.281
 7920WAT     H124002   8.709   2.037   4.249
 7920WAT     H224003   8.814   1.960   4.347
 7921WAT      O24004   3.846   9.056   9.233
 7921WAT     H124005   3.873   9.121   9.162
 7921WAT     H224006   3.858   9.098   9.323
 7922WAT      O24007   1.124   8.325   7.027
 7922WAT     H124008   1.051   8.392   7.013
 7922WAT     H224009   1.198   8.366   7.080
 7923WAT      O24010   8.225   0.621   1.861
 7923WAT     H124011   8.265   0.700   1.815
 7923WAT     H224012   8.295   0.574   1.915
 7924WAT      O24013   1.303   9.683   4.040
 7924WAT     H124014   1.304   9.599   3.985
 7924WAT     H224015   1.275   9.661   4.133
 7925WAT      O24016   3.202   8.336   2.173
 7925WAT     H124017   3.193   8.336   2.074
 7925WAT     H224018   3.111   8.333   2.215
 7926WAT      O24019   2.152   9.458   5.888
 7926WAT     H124020   2.239   9.507   5.898
 7926WAT     H224021   2.079   9.512   5.929
 7927WAT      O24022   8.024   9.672   9.881
 7927WAT     H124023   8.010   9.650   9.978
 7927WAT     H224024   8.085   9.604   9.840
 7928WAT      O24025   1.646   7.756   8.075
 7928WAT     H124026   1.738   7.773   8.110
 7928WAT     H224027   1.641   7.783   7.979
 7929WAT      O24028   7.505   2.710   8.854
 7929WAT     H124029   7.422   2.752   8.891
 7929WAT     H224030   7.482   2.624   8.808
 7930WAT      O24031   2.054   3.344   4.056
 7930WAT     H124032   2.047   3.382   3.964
 7930WAT     H224033   1.997   3.262   4.063
 7931WAT      O24034   7.914   4.269   2.470
 7931WAT     H124035   7.888   4.350   2.523
 7931WAT     H224036   8.013   4.256   2.476
 7932WAT      O24037   1.166   8.686   3.695
 7932WAT     H124038   1.258   8.670   3.662
 7932WAT     H224039   1.101   8.630   3.642
 7933WAT      O24040   4.659   5.247   7.642
 7933WAT     H124041   4.676   5.220   7.547
 7933WAT     H224042   4.575   5.302   7.646
 7934WAT      O24043   7.133   4.135   5.174
 7934WAT     H124044   7.089   4.092   5.254
 7934WAT     H224045   7.096   4.228   5.163
 7935WAT      O24046   9.823   4.048   5.917
 7935WAT     H124047   9.844   4.019   5.823
 7935WAT     H224048   9.904   4.091   5.957
 7936WAT      O24049   9.415   8.274   7.254
 7936WAT     H124050   9.468   8.209   7.200
 7936WAT     H224051   9.472   8.353   7.278
 7937WAT      O24052   6.149   2.891   9.148
 7937WAT     H124053   6.229   2.834   9.135
 7937WAT     H224054   6.074   2.836   9.185
 7938WAT      O24055   3.278   1.141   1.957
 7938WAT     H124056   3.249   1.097   2.042
 7938WAT     H224057   3.353   1.088   1.917
 7939WAT      O24058   2.066   0.977   9.776
 7939WAT     H124059   2.142   0.914   9.765
 7939WAT     H224060   2.101   1.068   9.796
 7940WAT      O24061   1.174   9.362   6.023
 7940WAT     H124062   1.143   9.354   6.117
 7940WAT     H224063   1.268   9.396   6.022
 7941WAT      O24064   9.380   5.820   9.565
 7941WAT     H124065   9.388   5.916   9.592
 7941WAT     H224066   9.330   5.814   9.478
 7942WAT      O24067   0.153   0.012   5.923
 7942WAT     H124068   0.194  -0.075   5.897
 7942WAT     H224069   0.110   0.004   6.013
 7943WAT      O24070   5.584   8.321   7.652
 7943WAT     H124071   5.503   8.328   7.710
 7943WAT     H224072   5.622   8.229   7.658
 7944WAT      O24073   3.547   3.068   1.637
 7944WAT     H124074   3.524   3.002   1.566
 7944WAT     H224075   3.625   3.123   1.607
 7945WAT      O24076   9.334   6.427   6.746
 7945WAT     H124077   9.307   6.452   6.653
 7945WAT     H224078   9.371   6.334   6.746
 7946WAT      O24079   3.529   8.810   7.279
 7946WAT     H124080   3.584   8.747   7.224
 7946WAT     H224081   3.442   8.828   7.233
 7947WAT      O24082   5.202   3.413   0.094
 7947WAT     H124083   5.148   3.379   0.171
 7947WAT     H224084   5.298   3.416   0.119
 7948WAT      O24085   4.346   0.199   8.314
 7948WAT     H124086   4.381   0.172   8.403
 7948WAT     H224087   4.419   0.192   8.246
 7949WAT      O24088   6.779   0.173   7.874
 7949WAT     H124089   6.854   0.156   7.939
 7949WAT     H224090   6.817   0.192   7.783
 7950WAT      O24091   8.111   9.551   2.170
 7950WAT     H124092   8.126   9.627   2.233
 7950WAT     H224093   8.153   9.572   2.082
 7951WAT      O24094   7.637   1.200   4.805
 7951WAT     H124095   7.667   1.136   4.875
 7951WAT     H224096   7.611   1.287   4.847
 7952WAT      O24097   9.170   1.735   3.663
 7952WAT     H124098   9.249   1.680   3.636
 7952WAT     H224099   9.201   1.807   3.725
 7953WAT      O24100   5.045   7.594   4.074
 7953WAT     H124101   4.984   7.518   4.053
 7953WAT     H224102   5.140   7.564   4.065
 7954WAT      O24103   6.738   2.332   3.789
 7954WAT     H124104   6.825   2.348   3.743
 7954WAT     H224105   6.708   2.238   3.771
 7955WAT      O24106   8.212   8.984   8.157
 7955WAT     H124107   8.310   8.976   8.171
 7955WAT     H224108   8.191   9.072   8.114
 7956WAT      O24109   0.949   1.082   4.963
 7956WAT     H124110   1.018   1.118   5.026
 7956WAT     H224111   0.966   1.118   4.871
 7957WAT      O24112   7.659   8.123   8.583
 7957WAT     H124113   7.722   8.197   8.559
 7957WAT     H224114   7.706   8.057   8.641
 7958WAT      O24115   1.647   0.767   7.573
 7958WAT     H124116   1.611   0.830   7.504
 7958WAT     H224117   1.704   0.698   7.529
 7959WAT      O24118   1.631   6.752   3.316
 7959WAT     H124119   1.556   6.718   3.373
 7959WAT     H224120   1.620   6.851   3.302
 7960WAT      O24121   4.303   8.672   6.193
 7960WAT     H124122   4.240   8.741   6.156
 7960WAT     H224123   4.366   8.643   6.121
 7961WAT      O24124   1.595   4.265   8.464
 7961WAT     H124125   1.532   4.303   8.532
 7961WAT     H224126   1.547   4.253   8.377
 7962WAT      O24127   3.406   8.495   9.003
 7962WAT     H124128   3.322   8.450   9.032
 7962WAT     H224129   3.404   8.510   8.904
 7963WAT      O24130   6.964   6.843   9.382
 7963WAT     H124131   6.873   6.803   9.373
 7963WAT     H224132   6.973   6.921   9.320
 7964WAT      O24133   8.542   7.317   3.997
 7964WAT     H124134   8.628   7.275   3.970
 7964WAT     H224135   8.472   7.247   4.008
 7965WAT      O24136   9.859   6.068   3.456
 7965WAT     H124137   9.936   6.093   3.515
 7965WAT     H224138   9.841   6.143   3.392
 7966WAT      O24139   7.790   7.230   4.184
 7966WAT     H124140   7.792   7.303   4.251
 7966WAT     H224141   7.815   7.266   4.094
 7967WAT      O24142   3.937   4.127   9.120
 7967WAT     H124143   4.006   4.067   9.161
 7967WAT     H224144   3.916   4.201   9.184
 7968WAT      O24145   4.040   5.935   2.690
 7968WAT     H124146   4.011   5.843   2.664
 7968WAT     H224147   4.019   5.950   2.787
 7969WAT      O24148   7.537   3.441   6.706
 7969WAT     H124149   7.609   3.467   6.770
 7969WAT     H224150   7.476   3.374   6.748
 7970WAT      O24151   5.021   9.436   8.352
 7970WAT     H124152   5.114   9.433   8.387
 7970WAT     H224153   4.959   9.462   8.426
 7971WAT      O24154   6.837   7.644   4.323
 7971WAT     H124155   6.929   7.659   4.360
 7971WAT     H224156   6.786   7.585   4.385
 7972WAT      O24157   2.118   9.832   5.790
 7972WAT     H124158   2.057   9.773   5.738
 7972WAT     H224159   2.183   9.875   5.728
 7973WAT      O24160   7.329   0.777   1.717
 7973WAT     H124161   7.311   0.683   1.746
 7973WAT     H224162   7.324   0.838   1.796
 7974WAT      O24163   0.527   8.247   0.431
 7974WAT     H124164   0.550   8.231   0.527
 7974WAT     H224165   0.451   8.187   0.405
 7975WAT      O24166   1.227   3.996   5.932
 7975WAT     H124167   1.149   3.934   5.924
 7975WAT     H224168   1.306   3.955   5.888
 7976WAT      O24169   3.310   5.585   5.608
 7976WAT     H124170   3.407   5.601   5.625
 7976WAT     H224171   3.258   5.668   5.632
 7977WAT      O24172   0.561   1.865   3.338
 7977WAT     H124173   0.541   1.787   3.278
 7977WAT     H224174   0.650   1.851   3.381
 7978WAT      O24175   2.514   0.009   0.944
 7978WAT     H124176   2.475  -0.068   0.893
 7978WAT     H224177   2.590   0.048   0.892
 7979WAT      O24178   7.572   4.656   1.829
 7979WAT     H124179   7.492   4.684   1.883
 7979WAT     H224180   7.635   4.605   1.888
 7980WAT      O24181   1.151   0.036   3.858
 7980WAT     H124182   1.065   0.034   3.910
 7980WAT     H224183   1.225  -0.000   3.914
 7981WAT      O24184   5.673   3.654   6.663
 7981WAT     H124185   5.608   3.580   6.681
 7981WAT     H224186   5.758   3.636   6.711
 7982WAT      O24187   6.060   3.847   3.763
 7982WAT     H124188   6.031   3.818   3.672
 7982WAT     H224189   6.082   3.944   3.762
 7983WAT      O24190   5.357   0.371   1.456
 7983WAT     H124191   5.349   0.275   1.429
 7983WAT     H224192   5.379   0.377   1.554
 7984WAT      O24193   8.267   4.922   0.697
 7984WAT     H124194   8.245   5.019   0.698
 7984WAT     H224195   8.216   4.875   0.769
 7985WAT      O24196   8.570   4.726   6.726
 7985WAT     H124197   8.614   4.692   6.809
 7985WAT     H224198   8.586   4.825   6.719
 7986WAT      O24199   8.436   8.515   6.363
 7986WAT     H124200   8.390   8.565   6.290
 7986WAT     H224201   8.535   8.531   6.356
 7987WAT      O24202   5.153   8.842   8.791
 7987WAT     H124203   5.241   8.873   8.755
 7987WAT     H224204   5.122   8.906   8.861
 7988WAT      O24205   2.697   0.699   1.079
 7988WAT     H124206   2.665   0.606   1.062
 7988WAT     H224207   2.619   0.757   1.103
 7989WAT      O24208   7.766   7.788   2.136
 7989WAT     H124209   7.700   7.837   2.193
 7989WAT     H224210   7.726   7.772   2.045
 7990WAT      O24211   0.252   7.211   4.516
 7990WAT     H124212   0.195   7.292   4.500
 7990WAT     H224213   0.344   7.240   4.543
 7991WAT      O24214   7.454   0.089   7.926
 7991WAT     H124215   7.485   0.078   8.020
 7991WAT     H224216   7.526   0.132   7.872
 7992WAT      O24217   2.102   4.053   3.837
 7992WAT     H124218   2.059   3.992   3.904
 7992WAT     H224219   2.046   4.058   3.755
 7993WAT      O24220   7.316   5.967   7.755
 7993WAT     H124221   7.235   5.911   7.772
 7993WAT     H224222   7.290   6.046   7.700
 7994WAT      O24223   0.094   5.277   2.398
 7994WAT     H124224   0.070   5.215   2.323
 7994WAT     H224225   0.158   5.230   2.460
 7995WAT      O24226   7.475   1.590   4.672
 7995WAT     H124227   7.464   1.597   4.573
 7995WAT     H224228   7.400   1.535   4.709
 7996WAT      O24229   9.328   1.469   7.896
 7996WAT     H124230   9.253   1.471   7.831
 7996WAT     H224231   9.304   1.411   7.974
 7997WAT      O24232   2.014   8.134   9.383
 7997WAT     H124233   2.030   8.087   9.470
 7997WAT     H224234   2.074   8.095   9.312
 7998WAT      O24235   1.316   4.511   9.490
 7998WAT     H124236   1.319   4.496   9.392
 7998WAT     H224237   1.384   4.579   9.516
 7999WAT      O24238   4.222   7.740   3.327
 7999WAT     H124239   4.318   7.767   3.321
 7999WAT     H224240   4.175   7.766   3.243
 8000WAT      O24241   5.703   6.535   8.384
 8000WAT     H124242   5.663   6.612   8.434
 8000WAT     H224243   5.637   6.501   8.317
 8001WAT      O24244   3.772   7.107   1.608
 8001WAT     H124245   3.674   7.088   1.603
 8001WAT     H224246   3.787   7.206   1.600
 8002WAT      O24247   1.514   6.000   8.229
 8002WAT     H124248   1.449   6.074   8.246
 8002WAT     H224249   1.565   5.980   8.313
 8003WAT      O24250   2.836   5.987   4.324
 8003WAT     H124251   2.766   5.918   4.338
 8003WAT     H224252   2.875   6.014   4.412
 8004WAT      O24253   9.363   1.142   3.479
 8004WAT     H124254   9.377   1.102   3.569
 8004WAT     H224255   9.315   1.076   3.420
 8005WAT      O24256   7.399   7.081   4.477
 8005WAT     H124257   7.472   7.050   4.415
 8005WAT     H224258   7.440   7.121   4.559
 8006WAT      O24259   1.193   1.692   8.200
 8006WAT     H124260   1.289   1.721   8.194
 8006WAT     H224261   1.149   1.703   8.111
 8007WAT      O24262   5.736   5.900   0.456
 8007WAT     H124263   5.823   5.893   0.504
 8007WAT     H224264   5.724   5.820   0.397
 8008WAT      O24265   0.588   1.611   3.208
 8008WAT     H124266   0.589   1.584   3.112
 8008WAT     H224267   0.512   1.567   3.255
 8009WAT      O24268   7.895   7.955   9.499
 8009WAT     H124269   7.953   7.981   9.576
 8009WAT     H224270   7.801   7.981   9.519
 8010WAT      O24271   2.068   5.758   3.649
 8010WAT     H124272   2.167   5.749   3.651
 8010WAT     H224273   2.026   5.668   3.661
 8011WAT      O24274   9.613   0.608   9.445
 8011WAT     H124275   9.657   0.618   9.356
 8011WAT     H224276   9.522   0.570   9.433
 8012WAT      O24277   5.291   0.423   7.065
 8012WAT     H124278   5.245   0.401   7.151
 8012WAT     H224279   5.370   0.363   7.053
 8013WAT      O24280   7.381   0.547   7.103
 8013WAT     H124281   7.341   0.465   7.063
 8013WAT     H224282   7.357   0.552   7.200
 8014WAT      O24283   0.054   2.021   2.353
 8014WAT     H124284  -0.032   1.998   2.307
 8014WAT     H224285   0.037   2.035   2.450
 8015WAT      O24286   2.987   9.325   0.267
 8015WAT     H124287   3.069   9.348   0.213
 8015WAT     H224288   3.007   9.334   0.364
 8016WAT      O24289   2.121   0.008   4.855
 8016WAT     H124290   2.126  -0.066   4.788
 8016WAT     H224291   2.035   0.001   4.906
 8017WAT      O24292   0.789   3.075   9.650
 8017WAT     H124293   0.831   2.989   9.680
 8017WAT     H224294   0.796   3.083   9.551
 8018WAT      O24295   7.247   4.321   3.739
 8018WAT     H124296   7.150   4.343   3.752
 8018WAT     H224297   7.298   4.404   3.718
 8019WAT      O24298   6.160   1.341   6.101
 8019WAT     H124299   6.139   1.267   6.037
 8019WAT     H224300   6.194   1.420   6.051
 8020WAT      O24301   1.626   0.387   9.277
 8020WAT     H124302   1.650   0.414   9.370
 8020WAT     H224303   1.670   0.449   9.212
 8021WAT      O24304   7.600   2.262   8.776
 8021WAT     H124305   7.622   2.180   8.722
 8021WAT     H224306   7.685   2.307   8.803
 8022WAT      O24307   0.685   3.226   5.969
 8022WAT     H124308   0.747   3.283   6.023
 8022WAT     H224309   0.739   3.166   5.909
 8023WAT      O24310   4.743   8.478   3.598
 8023WAT     H124311   4.739   8.576   3.620
 8023WAT     H224312   4.827   8.459   3.547
 8024WAT      O24313   7.234   3.130   5.943
 8024WAT     H124314   7.322   3.149   5.987
 8024WAT     H224315   7.204   3.210   5.891
 8025WAT      O24316   4.975   1.203   8.178
 8025WAT     H124317   4.993   1.145   8.257
 8025WAT     H224318   4.935   1.147   8.105
 8026WAT      O24319   9.509   1.633   1.944
 8026WAT     H124320   9.415   1.666   1.958
 8026WAT     H224321   9.568   1.668   2.017
 8027WAT      O24322   3.987   8.526   9.840
 8027WAT     H124323   3.940   8.599   9.890
 8027WAT     H224324   4.083   8.524   9.867
 8028WAT      O24325   2.402   4.527   1.631
 8028WAT     H124326   2.319   4.560   1.677
 8028WAT     H224327   2.454   4.468   1.693
 8029WAT      O24328   5.272   2.984   1.590
 8029WAT     H124329   5.231   3.075   1.588
 8029WAT     H224330   5.371   2.991   1.583
 8030WAT      O24331   0.861   8.425   2.087
 8030WAT     H124332   0.816   8.379   2.164
 8030WAT     H224333   0.958   8.438   2.109
 8031WAT      O24334   2.604   2.682   6.951
 8031WAT     H124335   2.704   2.681   6.950
 8031WAT     H224336   2.570   2.708   6.860
 8032WAT      O24337   2.396   7.221   2.886
 8032WAT     H124338   2.422   7.248   2.794
 8032WAT     H224339   2.380   7.303   2.942
 8033WAT      O24340   8.605   8.868   6.354
 8033WAT     H124341   8.596   8.805   6.278
 8033WAT     H224342   8.688   8.923   6.343
 8034WAT      O24343   9.093   2.362   3.601
 8034WAT     H124344   9.057   2.419   3.674
 8034WAT     H224345   9.152   2.417   3.541
 8035WAT      O24346   8.309   8.362   9.453
 8035WAT     H124347   8.293   8.401   9.362
 8035WAT     H224348   8.222   8.355   9.502
 8036WAT      O24349   4.970   5.750   9.326
 8036WAT     H124350   5.069   5.767   9.319
 8036WAT     H224351   4.923   5.837   9.340
 8037WAT      O24352   5.840   4.187   9.854
 8037WAT     H124353   5.920   4.129   9.842
 8037WAT     H224354   5.861   4.280   9.824
 8038WAT      O24355   7.501   5.805   6.780
 8038WAT     H124356   7.562   5.876   6.816
 8038WAT     H224357   7.536   5.772   6.693
 8039WAT      O24358   8.409   6.301   4.298
 8039WAT     H124359   8.424   6.283   4.201
 8039WAT     H224360   8.475   6.369   4.330
 8040WAT      O24361   4.009   7.552   4.732
 8040WAT     H124362   4.043   7.643   4.708
 8040WAT     H224363   3.933   7.561   4.796
 8041WAT      O24364   2.284   4.587   7.629
 8041WAT     H124365   2.283   4.532   7.546
 8041WAT     H224366   2.266   4.683   7.606
 8042WAT      O24367   8.907   8.084   9.796
 8042WAT     H124368   8.861   8.171   9.785
 8042WAT     H224369   8.913   8.061   9.893
 8043WAT      O24370   3.202   7.096   8.068
 8043WAT     H124371   3.225   7.192   8.083
 8043WAT     H224372   3.106   7.081   8.091
 8044WAT      O24373   7.859   7.987   9.835
 8044WAT     H124374   7.908   7.929   9.771
 8044WAT     H224375   7.766   7.951   9.849
 8045WAT      O24376   8.071   8.574   1.448
 8045WAT     H124377   8.156   8.627   1.450
 8045WAT     H224378   8.045   8.550   1.541
 8046WAT      O24379   4.807   4.256   0.451
 8046WAT     H124380   4.731   4.299   0.401
 8046WAT     H224381   4.772   4.180   0.506
 8047WAT      O24382   4.255   9.792   8.732
 8047WAT     H124383   4.158   9.793   8.708
 8047WAT     H224384   4.270   9.726   8.806
 8048WAT      O24385   5.455   6.168   5.712
 8048WAT     H124386   5.394   6.189   5.635
 8048WAT     H224387   5.467   6.069   5.719
 8049WAT      O24388   8.508   5.711   0.683
 8049WAT     H124389   8.425   5.658   0.665
 8049WAT     H224390   8.514   5.786   0.617
 8050WAT      O24391   5.372   1.028   1.834
 8050WAT     H124392   5.301   1.098   1.834
 8050WAT     H224393   5.331   0.938   1.850
 8051WAT      O24394   8.843   3.556   7.414
 8051WAT     H124395   8.796   3.487   7.359
 8051WAT     H224396   8.928   3.517   7.451
 8052WAT      O24397   6.143   9.180   5.902
 8052WAT     H124398   6.101   9.267   5.875
 8052WAT     H224399   6.114   9.157   5.995
 8053WAT      O24400   7.660   7.978   1.677
 8053WAT     H124401   7.613   7.903   1.631
 8053WAT     H224402   7.623   8.065   1.645
 8054WAT      O24403   0.849   8.280   9.804
 8054WAT     H124404   0.896   8.197   9.833
 8054WAT     H224405   0.751   8.271   9.821
 8055WAT      O24406   6.596   8.475   1.408
 8055WAT     H124407   6.554   8.386   1.428
 8055WAT     H224408   6.694   8.470   1.421
 8056WAT      O24409   4.714   4.025   1.622
 8056WAT     H124410   4.811   4.017   1.598
 8056WAT     H224411   4.678   4.110   1.586
 8057WAT      O24412   7.512   4.797   9.683
 8057WAT     H124413   7.601   4.833   9.710
 8057WAT     H224414   7.448   4.804   9.760
 8058WAT      O24415   4.316   2.303   5.240
 8058WAT     H124416   4.401   2.287   5.289
 8058WAT     H224417   4.311   2.244   5.160
 8059WAT      O24418   9.224   7.345   0.458
 8059WAT     H124419   9.257   7.380   0.371
 8059WAT     H224420   9.166   7.414   0.502
 8060WAT      O24421   8.462   2.201   9.257
 8060WAT     H124422   8.412   2.158   9.332
 8060WAT     H224423   8.507   2.130   9.202
 8061WAT      O24424   2.280   7.528   9.521
 8061WAT     H124425   2.252   7.618   9.487
 8061WAT     H224426   2.379   7.519   9.514
 8062WAT      O24427   3.380   2.592   7.164
 8062WAT     H124428   3.384   2.688   7.137
 8062WAT     H224429   3.453   2.573   7.229
 8063WAT      O24430   3.586   6.603   0.138
 8063WAT     H124431   3.682   6.575   0.132
 8063WAT     H224432   3.577   6.697   0.108
 8064WAT      O24433   0.424   8.457   9.405
 8064WAT     H124434   0.420   8.383   9.337
 8064WAT     H224435   0.372   8.536   9.371
 8065WAT      O24436   1.068   0.287   9.623
 8065WAT     H124437   1.122   0.220   9.573
 8065WAT     H224438   1.126   0.331   9.693
 8066WAT      O24439   2.944   0.796   5.169
 8066WAT     H124440   3.031   0.816   5.124
 8066WAT     H224441   2.899   0.720   5.122
 8067WAT      O24442   8.756   4.785   9.156
 8067WAT     H124443   8.685   4.855   9.163
 8067WAT     H224444   8.845   4.829   9.142
 8068WAT      O24445   0.087   0.672   5.959
 8068WAT     H124446  -0.005   0.672   5.920
 8068WAT     H224447   0.124   0.765   5.959
 8069WAT      O24448   6.047   4.573   6.796
 8069WAT     H124449   6.121   4.526   6.747
 8069WAT     H224450   6.069   4.670   6.804
 8070WAT      O24451   1.852   9.542   0.877
 8070WAT     H124452   1.855   9.642   0.883
 8070WAT     H224453   1.865   9.514   0.782
 8071WAT      O24454   6.604   0.370   2.222
 8071WAT     H124455   6.528   0.374   2.286
 8071WAT     H224456   6.687   0.404   2.266
 8072WAT      O24457   4.208   1.012   2.383
 8072WAT     H124458   4.200   0.933   2.444
 8072WAT     H224459   4.134   1.011   2.317
 8073WAT      O24460   7.282   3.598   8.767
 8073WAT     H124461   7.278   3.682   8.821
 8073WAT     H224462   7.310   3.620   8.673
 8074WAT      O24463   2.252   2.203   8.242
 8074WAT     H124464   2.340   2.166   8.214
 8074WAT     H224465   2.264   2.253   8.328
 8075WAT      O24466   1.268   1.003   4.708
 8075WAT     H124467   1.360   0.989   4.744
 8075WAT     H224468   1.230   0.915   4.679
 8076WAT      O24469   8.615   0.719   6.299
 8076WAT     H124470   8.639   0.791   6.234
 8076WAT     H224471   8.698   0.672   6.328
 8077WAT      O24472   6.336   6.315   7.266
 8077WAT     H124473   6.354   6.412   7.245
 8077WAT     H224474   6.361   6.296   7.360
 8078WAT      O24475   3.621   7.979   7.278
 8078WAT     H124476   3.569   8.053   7.234
 8078WAT     H224477   3.659   7.918   7.208
 8079WAT      O24478   3.943   3.917   0.278
 8079WAT     H124479   3.924   3.830   0.323
 8079WAT     H224480   3.982   3.981   0.344
 8080WAT      O24481   2.852   6.985   6.122
 8080WAT     H124482   2.949   6.962   6.112
 8080WAT     H224483   2.842   7.085   6.126
 8081WAT      O24484   6.781   9.379   6.931
 8081WAT     H124485   6.737   9.340   6.850
 8081WAT     H224486   6.720   9.372   7.009
 8082WAT      O24487   1.267   5.185   0.748
 8082WAT     H124488   1.192   5.130   0.711
 8082WAT     H224489   1.230   5.271   0.785
 8083WAT      O24490   0.321   1.242   6.274
 8083WAT     H124491   0.298   1.225   6.178
 8083WAT     H224492   0.412   1.283   6.280
 8084WAT      O24493   6.079   5.896   3.706
 8084WAT     H124494   6.163   5.878   3.655
 8084WAT     H224495   6.093   5.975   3.766
 8085WAT      O24496   4.199   1.916   4.880
 8085WAT     H124497   4.136   1.962   4.943
 8085WAT     H224498   4.282   1.972   4.869
 8086WAT      O24499   2.772   2.839   6.420
 8086WAT     H124500   2.690   2.889   6.395
 8086WAT     H224501   2.747   2.751   6.460
 8087WAT      O24502   4.742   9.701   5.888
 8087WAT     H124503   4.780   9.771   5.948
 8087WAT     H224504   4.768   9.721   5.793
 8088WAT      O24505   8.988   7.087   8.527
 8088WAT     H124506   9.077   7.049   8.553
 8088WAT     H224507   8.977   7.177   8.570
 8089WAT      O24508   0.536   7.081   4.207
 8089WAT     H124509   0.534   7.132   4.292
 8089WAT     H224510   0.626   7.037   4.196
 8090WAT      O24511   3.545   0.763   2.604
 8090WAT     H124512   3.533   0.672   2.565
 8090WAT     H224513   3.459   0.814   2.596
 8091WAT      O24514   4.043   3.137   0.301
 8091WAT     H124515   3.963   3.184   0.337
 8091WAT     H224516   4.059   3.164   0.206
 8092WAT      O24517   7.106   8.431   0.287
 8092WAT     H124518   7.054   8.418   0.371
 8092WAT     H224519   7.108   8.528   0.263
 8093WAT      O24520   7.693   3.469   4.511
 8093WAT     H124521   7.793   3.477   4.508
 8093WAT     H224522   7.663   3.456   4.605
 8094WAT      O24523   8.579   8.251   6.166
 8094WAT     H124524   8.514   8.256   6.242
 8094WAT     H224525   8.653   8.316   6.182
 8095WAT      O24526   3.395   9.540   3.469
 8095WAT     H124527   3.363   9.499   3.554
 8095WAT     H224528   3.494   9.555   3.474
 8096WAT      O24529   5.430   6.410   7.793
 8096WAT     H124530   5.385   6.363   7.869
 8096WAT     H224531   5.529   6.410   7.808
 8097WAT      O24532   4.282   7.953   4.347
 8097WAT     H124533   4.333   7.980   4.265
 8097WAT     H224534   4.193   8.000   4.347
 8098WAT      O24535   0.406   1.418   2.752
 8098WAT     H124536   0.384   1.448   2.660
 8098WAT     H224537   0.339   1.350   2.781
 8099WAT      O24538   0.692   7.555   9.461
 8099WAT     H124539   0.658   7.463   9.482
 8099WAT     H224540   0.624   7.604   9.406
 8100WAT      O24541   1.264   3.100   7.334
 8100WAT     H124542   1.288   3.019   7.280
 8100WAT     H224543   1.346   3.135   7.381
 8101WAT      O24544   2.735   6.066   6.537
 8101WAT     H124545   2.775   6.124   6.607
 8101WAT     H224546   2.793   6.065   6.455
 8102WAT      O24547   7.019   3.116   6.719
 8102WAT     H124548   6.926   3.148   6.699
 8102WAT     H224549   7.034   3.027   6.676
 8103WAT      O24550   1.062   3.912   7.699
 8103WAT     H124551   1.107   3.992   7.659
 8103WAT     H224552   1.113   3.881   7.779
 8104WAT      O24553   4.593   3.469   3.739
 8104WAT     H124554   4.588   3.398   3.668
 8104WAT     H224555   4.519   3.456   3.804
 8105WAT      O24556   1.119   8.335   0.427
 8105WAT     H124557   1.204   8.284   0.414
 8105WAT     H224558   1.058   8.283   0.487
 8106WAT      O24559   8.810   3.164   4.994
 8106WAT     H124560   8.881   3.225   5.029
 8106WAT     H224561   8.734   3.162   5.058
 8107WAT      O24562   7.304   7.344   3.449
 8107WAT     H124563   7.290   7.382   3.540
 8107WAT     H224564   7.270   7.409   3.380
 8108WAT      O24565   8.784   2.857   8.041
 8108WAT     H124566   8.851   2.929   8.023
 8108WAT     H224567   8.691   2.895   8.037
 8109WAT      O24568   9.233   2.561   3.456
 8109WAT     H124569   9.281   2.503   3.390
 8109WAT     H224570   9.299   2.600   3.520
 8110WAT      O24571   5.721   3.244   5.985
 8110WAT     H124572   5.674   3.274   6.068
 8110WAT     H224573   5.712   3.314   5.914
 8111WAT      O24574   4.342   2.061   4.189
 8111WAT     H124575   4.400   2.141   4.198
 8111WAT     H224576   4.248   2.089   4.169
 8112WAT      O24577   3.345   8.182   7.049
 8112WAT     H124578   3.326   8.276   7.076
 8112WAT     H224579   3.329   8.121   7.127
 8113WAT      O24580   8.969   4.768   2.410
 8113WAT     H124581   8.996   4.863   2.395
 8113WAT     H224582   9.040   4.721   2.464
 8114WAT      O24583   6.401   8.174   9.067
 8114WAT     H124584   6.363   8.082   9.074
 8114WAT     H224585   6.406   8.201   8.971
 8115WAT      O24586   2.514   8.383   2.599
 8115WAT     H124587   2.458   8.431   2.532
 8115WAT     H224588   2.601   8.356   2.557
 8116WAT      O24589   5.378   8.057   6.246
 8116WAT     H124590   5.382   7.973   6.300
 8116WAT     H224591   5.427   8.043   6.160
 8117WAT      O24592   5.704   1.337   7.762
 8117WAT     H124593   5.703   1.330   7.663
 8117WAT     H224594   5.704   1.434   7.789
 8118WAT      O24595   9.304   1.662   5.434
 8118WAT     H124596   9.224   1.604   5.424
 8118WAT     H224597   9.382   1.607   5.465
 8119WAT      O24598   6.869   9.121   5.524
 8119WAT     H124599   6.893   9.199   5.465
 8119WAT     H224600   6.850   9.041   5.467
 8120WAT      O24601   1.060   8.791   2.308
 8120WAT     H124602   1.058   8.886   2.340
 8120WAT     H224603   1.152   8.755   2.315
 8121WAT      O24604   2.582   3.304   4.431
 8121WAT     H124605   2.531   3.254   4.502
 8121WAT     H224606   2.542   3.395   4.420
 8122WAT      O24607   1.973   6.117   8.285
 8122WAT     H124608   1.962   6.019   8.272
 8122WAT     H224609   1.883   6.160   8.297
 8123WAT      O24610   9.176   1.414   0.686
 8123WAT     H124611   9.242   1.341   0.670
 8123WAT     H224612   9.149   1.454   0.598
 8124WAT      O24613   6.769   9.233   3.698
 8124WAT     H124614   6.696   9.300   3.710
 8124WAT     H224615   6.821   9.224   3.784
 8125WAT      O24616   7.816   6.779   8.173
 8125WAT     H124617   7.760   6.855   8.142
 8125WAT     H224618   7.900   6.775   8.118
 8126WAT      O24619   0.813   5.516   6.815
 8126WAT     H124620   0.803   5.541   6.911
 8126WAT     H224621   0.908   5.529   6.786
 8127WAT      O24622   3.089   2.549   3.710
 8127WAT     H124623   3.125   2.462   3.743
 8127WAT     H224624   3.053   2.536   3.617
 8128WAT      O24625   5.780   2.110   5.264
 8128WAT     H124626   5.796   2.142   5.357
 8128WAT     H224627   5.779   2.010   5.262
 8129WAT      O24628   1.690   4.176   0.942
 8129WAT     H124629   1.591   4.163   0.942
 8129WAT     H224630   1.735   4.092   0.911
 8130WAT      O24631   4.723   0.437   9.306
 8130WAT     H124632   4.719   0.534   9.333
 8130WAT     H224633   4.779   0.386   9.370
 8131WAT      O24634   4.498   7.035   2.031
 8131WAT     H124635   4.422   7.016   2.094
 8131WAT     H224636   4.506   7.133   2.017
 8132WAT      O24637   4.024   0.045   1.310
 8132WAT     H124638   3.997   0.079   1.400
 8132WAT     H224639   4.115   0.004   1.316
 8133WAT      O24640   5.063   2.950   6.789
 8133WAT     H124641   4.988   3.009   6.760
 8133WAT     H224642   5.055   2.931   6.886
 8134WAT      O24643   8.235   4.757   4.752
 8134WAT     H124644   8.186   4.787   4.670
 8134WAT     H224645   8.322   4.805   4.758
 8135WAT      O24646   5.049   7.614   2.436
 8135WAT     H124647   5.073   7.538   2.496
 8135WAT     H224648   5.109   7.614   2.356
 8136WAT      O24649   4.530   0.679   7.287
 8136WAT     H124650   4.438   0.718   7.283
 8136WAT     H224651   4.547   0.643   7.378
 8137WAT      O24652   6.375   8.289   3.000
 8137WAT     H124653   6.466   8.315   3.032
 8137WAT     H224654   6.356   8.194   3.026
 8138WAT      O24655   4.911   6.363   5.317
 8138WAT     H124656   4.827   6.325   5.277
 8138WAT     H224657   4.965   6.289   5.356
 8139WAT      O24658   8.228   0.665   4.455
 8139WAT     H124659   8.135   0.652   4.420
 8139WAT     H224660   8.280   0.580   4.444
 8140WAT      O24661   4.518   7.207   9.432
 8140WAT     H124662   4.617   7.211   9.439
 8140WAT     H224663   4.492   7.166   9.345
 8141WAT      O24664   1.083   5.887   5.822
 8141WAT     H124665   1.031   5.956   5.771
 8141WAT     H224666   1.107   5.924   5.912
 8142WAT      O24667   2.844   1.891   5.504
 8142WAT     H124668   2.835   1.982   5.465
 8142WAT     H224669   2.901   1.834   5.445
 8143WAT      O24670   9.597   0.368   4.151
 8143WAT     H124671   9.696   0.357   4.138
 8143WAT     H224672   9.554   0.388   4.063
 8144WAT      O24673   4.444   0.135   4.714
 8144WAT     H124674   4.512   0.118   4.786
 8144WAT     H224675   4.360   0.083   4.734
 8145WAT      O24676   8.382   1.505   8.692
 8145WAT     H124677   8.424   1.422   8.727
 8145WAT     H224678   8.381   1.575   8.763
 8146WAT      O24679   3.862   4.866   8.260
 8146WAT     H124680   3.786   4.829   8.207
 8146WAT     H224681   3.843   4.960   8.287
 8147WAT      O24682   8.472   3.116   7.208
 8147WAT     H124683   8.520   3.143   7.291
 8147WAT     H224684   8.458   3.017   7.208
 8148WAT      O24685   5.438   1.575   3.578
 8148WAT     H124686   5.471   1.608   3.490
 8148WAT     H224687   5.348   1.615   3.596
 8149WAT      O24688   0.056   8.891   8.489
 8149WAT     H124689   0.141   8.891   8.541
 8149WAT     H224690   0.019   8.798   8.486
 8150WAT      O24691   6.289   3.260   4.500
 8150WAT     H124692   6.300   3.359   4.489
 8150WAT     H224693   6.192   3.236   4.491
 8151WAT      O24694   3.481   4.765   4.020
 8151WAT     H124695   3.464   4.863   4.032
 8151WAT     H224696   3.403   4.713   4.057
 8152WAT      O24697   3.213   1.940   7.488
 8152WAT     H124698   3.216   2.037   7.462
 8152WAT     H224699   3.306   1.910   7.512
 8153WAT      O24700   9.738   5.219   8.800
 8153WAT     H124701   9.799   5.225   8.879
 8153WAT     H224702   9.759   5.137   8.747
 8154WAT      O24703   0.313   8.654   8.646
 8154WAT     H124704   0.233   8.638   8.704
 8154WAT     H224705   0.396   8.638   8.699
 8155WAT      O24706   2.980   2.913   1.686
 8155WAT     H124707   3.040   2.943   1.612
 8155WAT     H224708   2.885   2.931   1.662
 8156WAT      O24709   7.808   2.175   3.328
 8156WAT     H124710   7.883   2.117   3.358
 8156WAT     H224711   7.841   2.237   3.256
 8157WAT      O24712   3.155   1.582   6.215
 8157WAT     H124713   3.254   1.569   6.214
 8157WAT     H224714   3.116   1.548   6.130
 8158WAT      O24715   3.927   5.104   7.702
 8158WAT     H124716   3.980   5.047   7.639
 8158WAT     H224717   3.851   5.051   7.739
 8159WAT      O24718   6.022   5.132   4.312
 8159WAT     H124719   6.051   5.036   4.319
 8159WAT     H224720   5.922   5.136   4.307
 8160WAT      O24721   6.000   4.182   5.436
 8160WAT     H124722   6.042   4.183   5.527
 8160WAT     H224723   5.933   4.109   5.431
 8161WAT      O24724   7.793   6.764   9.575
 8161WAT     H124725   7.723   6.830   9.550
 8161WAT     H224726   7.810   6.770   9.674
 8162WAT      O24727   4.804   8.116   7.876
 8162WAT     H124728   4.732   8.183   7.892
 8162WAT     H224729   4.863   8.110   7.956
 8163WAT      O24730   9.709   3.346   6.387
 8163WAT     H124731   9.621   3.356   6.340
 8163WAT     H224732   9.697   3.367   6.484
 8164WAT      O24733   6.580   6.793   9.535
 8164WAT     H124734   6.645   6.717   9.526
 8164WAT     H224735   6.487   6.758   9.530
 8165WAT      O24736   5.292   0.942   2.668
 8165WAT     H124737   5.390   0.923   2.680
 8165WAT     H224738   5.267   0.926   2.572
 8166WAT      O24739   4.844   4.389   9.321
 8166WAT     H124740   4.859   4.399   9.419
 8166WAT     H224741   4.885   4.303   9.289
 8167WAT      O24742   6.050   0.116   2.049
 8167WAT     H124743   6.014   0.197   2.096
 8167WAT     H224744   6.149   0.126   2.037
 8168WAT      O24745   6.509   1.647   8.013
 8168WAT     H124746   6.433   1.708   7.993
 8168WAT     H224747   6.478   1.574   8.074
 8169WAT      O24748   2.894   9.040   3.063
 8169WAT     H124749   2.972   9.063   3.120
 8169WAT     H224750   2.867   9.120   3.010
 8170WAT      O24751   9.314   5.007   1.095
 8170WAT     H124752   9.356   4.923   1.060
 8170WAT     H224753   9.267   4.987   1.181
 8171WAT      O24754   5.205   2.896   7.588
 8171WAT     H124755   5.220   2.974   7.527
 8171WAT     H224756   5.226   2.921   7.682
 8172WAT      O24757   2.197   5.884   2.953
 8172WAT     H124758   2.192   5.786   2.937
 8172WAT     H224759   2.108   5.925   2.934
 8173WAT      O24760   2.410   2.613   8.344
 8173WAT     H124761   2.417   2.612   8.444
 8173WAT     H224762   2.322   2.574   8.316
 8174WAT      O24763   1.467   3.978   0.511
 8174WAT     H124764   1.423   3.894   0.478
 8174WAT     H224765   1.483   3.971   0.609
 8175WAT      O24766   0.124   8.047   8.387
 8175WAT     H124767   0.071   8.012   8.464
 8175WAT     H224768   0.177   8.127   8.416
 8176WAT      O24769   6.104   4.875   4.359
 8176WAT     H124770   6.054   4.804   4.308
 8176WAT     H224771   6.139   4.836   4.444
 8177WAT      O24772   5.872   0.896   6.676
 8177WAT     H124773   5.808   0.966   6.706
 8177WAT     H224774   5.920   0.928   6.594
 8178WAT      O24775   5.073   7.884   8.921
 8178WAT     H124776   4.977   7.891   8.893
 8178WAT     H224777   5.085   7.806   8.981
 8179WAT      O24778   4.267   1.386   7.064
 8179WAT     H124779   4.322   1.317   7.017
 8179WAT     H224780   4.197   1.341   7.120
 8180WAT      O24781   0.966   8.965   4.790
 8180WAT     H124782   0.895   8.910   4.834
 8180WAT     H224783   1.038   8.904   4.756
 8181WAT      O24784   0.183   7.106   6.665
 8181WAT     H124785   0.224   7.183   6.714
 8181WAT     H224786   0.168   7.131   6.569
 8182WAT      O24787   1.857   2.945   4.213
 8182WAT     H124788   1.780   2.897   4.255
 8182WAT     H224789   1.943   2.905   4.244
 8183WAT      O24790   9.668   2.135   3.419
 8183WAT     H124791   9.711   2.159   3.332
 8183WAT     H224792   9.595   2.069   3.403
 8184WAT      O24793   0.201   6.855   8.635
 8184WAT     H124794   0.117   6.906   8.622
 8184WAT     H224795   0.279   6.918   8.634
 8185WAT      O24796   9.137   3.402   2.254
 8185WAT     H124797   9.180   3.312   2.255
 8185WAT     H224798   9.067   3.407   2.325
 8186WAT      O24799   5.949   3.413   4.785
 8186WAT     H124800   5.867   3.389   4.733
 8186WAT     H224801   6.015   3.458   4.724
 8187WAT      O24802   6.907   3.900   2.429
 8187WAT     H124803   6.984   3.898   2.365
 8187WAT     H224804   6.875   3.807   2.446
 8188WAT      O24805   0.448   7.588   5.630
 8188WAT     H124806   0.433   7.495   5.596
 8188WAT     H224807   0.521   7.631   5.578
 8189WAT      O24808   3.130   4.170   7.013
 8189WAT     H124809   3.194   4.095   7.028
 8189WAT     H224810   3.085   4.193   7.100
 8190WAT      O24811   0.930   0.111   4.004
 8190WAT     H124812   0.890   0.202   3.993
 8190WAT     H224813   0.880   0.061   4.074
 8191WAT      O24814   5.278   2.294   8.077
 8191WAT     H124815   5.215   2.338   8.141
 8191WAT     H224816   5.320   2.364   8.019
 8192WAT      O24817   6.519   3.185   0.192
 8192WAT     H124818   6.537   3.093   0.227
 8192WAT     H224819   6.428   3.188   0.149
 8193WAT      O24820   5.979   6.523   8.640
 8193WAT     H124821   5.902   6.462   8.619
 8193WAT     H224822   5.972   6.555   8.734
 8194WAT      O24823   6.413   3.887   9.414
 8194WAT     H124824   6.354   3.828   9.468
 8194WAT     H224825   6.505   3.890   9.455
 8195WAT      O24826   0.859   3.000   8.645
 8195WAT     H124827   0.779   3.055   8.670
 8195WAT     H224828   0.941   3.058   8.646
 8196WAT      O24829   3.496   9.409   9.071
 8196WAT     H124830   3.571   9.364   9.023
 8196WAT     H224831   3.412   9.355   9.059
 8197WAT      O24832   9.207   2.011   8.198
 8197WAT     H124833   9.228   1.926   8.247
 8197WAT     H224834   9.135   1.994   8.131
 8198WAT      O24835   8.395   7.931   8.949
 8198WAT     H124836   8.359   8.021   8.923
 8198WAT     H224837   8.334   7.859   8.916
 8199WAT      O24838   8.493   4.569   7.077
 8199WAT     H124839   8.523   4.475   7.093
 8199WAT     H224840   8.393   4.571   7.068
 8200WAT      O24841   3.167   6.850   4.861
 8200WAT     H124842   3.071   6.876   4.847
 8200WAT     H224843   3.171   6.764   4.912
 8201WAT      O24844   4.082   1.501   4.512
 8201WAT     H124845   4.109   1.405   4.508
 8201WAT     H224846   4.043   1.521   4.602
 8202WAT      O24847   4.524   4.774   0.120
 8202WAT     H124848   4.454   4.830   0.164
 8202WAT     H224849   4.484   4.686   0.095
 8203WAT      O24850   9.225   5.954   4.068
 8203WAT     H124851   9.306   5.960   4.010
 8203WAT     H224852   9.146   5.927   4.013
 8204WAT      O24853   9.366   7.060   8.137
 8204WAT     H124854   9.437   7.047   8.205
 8204WAT     H224855   9.276   7.050   8.180
 8205WAT      O24856   1.854   1.518   6.861
 8205WAT     H124857   1.759   1.520   6.892
 8205WAT     H224858   1.897   1.433   6.892
 8206WAT      O24859   9.049   0.703   3.684
 8206WAT     H124860   9.111   0.755   3.743
 8206WAT     H224861   9.046   0.745   3.593
 8207WAT      O24862   4.604   9.044   4.995
 8207WAT     H124863   4.558   9.108   4.933
 8207WAT     H224864   4.551   9.036   5.080
 8208WAT      O24865   6.298   4.809   0.704
 8208WAT     H124866   6.296   4.721   0.656
 8208WAT     H224867   6.207   4.829   0.740
 8209WAT      O24868   0.548   7.496   0.194
 8209WAT     H124869   0.449   7.493   0.210
 8209WAT     H224870   0.589   7.568   0.249
 8210WAT      O24871   8.466   8.692   9.191
 8210WAT     H124872   8.512   8.611   9.229
 8210WAT     H224873   8.408   8.665   9.115
 8211WAT      O24874   3.693   4.676   4.199
 8211WAT     H124875   3.646   4.692   4.111
 8211WAT     H224876   3.625   4.652   4.269
 8212WAT      O24877   2.034   5.519   7.793
 8212WAT     H124878   2.127   5.549   7.772
 8212WAT     H224879   1.968   5.585   7.758
 8213WAT      O24880   3.415   5.887   1.687
 8213WAT     H124881   3.470   5.815   1.730
 8213WAT     H224882   3.452   5.907   1.597
 8214WAT      O24883   1.716   6.291   3.500
 8214WAT     H124884   1.689   6.195   3.487
 8214WAT     H224885   1.793   6.295   3.563
 8215WAT      O24886   8.871   9.354   3.738
 8215WAT     H124887   8.773   9.365   3.757
 8215WAT     H224888   8.910   9.443   3.713
 8216WAT      O24889   5.063   0.032   8.008
 8216WAT     H124890   5.032   0.118   8.046
 8216WAT     H224891   5.110  -0.021   8.079
 8217WAT      O24892   9.013   1.197   4.360
 8217WAT     H124893   8.919   1.211   4.391
 8217WAT     H224894   9.077   1.241   4.423
 8218WAT      O24895   1.483   6.605   6.061
 8218WAT     H124896   1.581   6.620   6.074
 8218WAT     H224897   1.432   6.683   6.097
 8219WAT      O24898   2.395   0.093   6.173
 8219WAT     H124899   2.491   0.065   6.170
 8219WAT     H224900   2.343   0.041   6.105
 8220WAT      O24901   8.264   1.488   8.020
 8220WAT     H124902   8.169   1.498   7.990
 8220WAT     H224903   8.283   1.392   8.041
 8221WAT      O24904   5.593   0.027   7.348
 8221WAT     H124905   5.592  -0.055   7.291
 8221WAT     H224906   5.686   0.045   7.379
 8222WAT      O24907   5.351   0.876   9.379
 8222WAT     H124908   5.254   0.852   9.368
 8222WAT     H224909   5.362   0.975   9.378
 8223WAT      O24910   9.827   5.557   4.045
 8223WAT     H124911   9.769   5.548   3.963
 8223WAT     H224912   9.871   5.647   4.044
 8224WAT      O24913   9.830   2.226   2.754
 8224WAT     H124914   9.863   2.135   2.780
 8224WAT     H224915   9.780   2.266   2.831
 8225WAT      O24916   8.902   9.487   1.268
 8225WAT     H124917   8.892   9.491   1.367
 8225WAT     H224918   8.979   9.427   1.244
 8226WAT      O24919   0.577   6.557   1.587
 8226WAT     H124920   0.657   6.593   1.540
 8226WAT     H224921   0.551   6.617   1.662
 8227WAT      O24922   3.407   3.858   7.979
 8227WAT     H124923   3.470   3.781   7.966
 8227WAT     H224924   3.314   3.829   7.959
 8228WAT      O24925   6.424   6.471   1.987
 8228WAT     H124926   6.394   6.462   1.892
 8228WAT     H224927   6.444   6.381   2.025
 8229WAT      O24928   7.236   5.612   6.847
 8229WAT     H124929   7.259   5.601   6.750
 8229WAT     H224930   7.320   5.625   6.900
 8230WAT      O24931   3.059   6.834   1.737
 8230WAT     H124932   3.059   6.749   1.685
 8230WAT     H224933   3.087   6.816   1.832
 8231WAT      O24934   6.941   3.369   1.404
 8231WAT     H124935   6.966   3.429   1.328
 8231WAT     H224936   6.857   3.402   1.447
 8232WAT      O24937   8.370   6.510   0.899
 8232WAT     H124938   8.290   6.450   0.891
 8232WAT     H224939   8.341   6.604   0.916
 8233WAT      O24940   1.992   9.626   8.149
 8233WAT     H124941   2.087   9.644   8.126
 8233WAT     H224942   1.953   9.705   8.196
 8234WAT      O24943   0.799   8.029   4.484
 8234WAT     H124944   0.852   7.949   4.510
 8234WAT     H224945   0.702   8.012   4.501
 8235WAT      O24946   3.819   2.512   3.600
 8235WAT     H124947   3.787   2.553   3.515
 8235WAT     H224948   3.840   2.415   3.585
 8236WAT      O24949   7.067   4.701   5.694
 8236WAT     H124950   6.982   4.706   5.746
 8236WAT     H224951   7.141   4.741   5.747
 8237WAT      O24952   0.213   9.801   9.512
 8237WAT     H124953   0.230   9.898   9.493
 8237WAT     H224954   0.115   9.787   9.528
 8238WAT      O24955   0.697   3.370   5.603
 8238WAT     H124956   0.615   3.427   5.612
 8238WAT     H224957   0.688   3.310   5.524
 8239WAT      O24958   0.615   7.046   3.308
 8239WAT     H124959   0.621   6.952   3.342
 8239WAT     H224960   0.599   7.045   3.209
 8240WAT      O24961   1.316   8.833   1.612
 8240WAT     H124962   1.403   8.853   1.657
 8240WAT     H224963   1.278   8.917   1.574
 8241WAT      O24964   2.187   9.595   1.363
 8241WAT     H124965   2.201   9.569   1.268
 8241WAT     H224966   2.259   9.555   1.420
 8242WAT      O24967   8.228   3.147   4.629
 8242WAT     H124968   8.165   3.144   4.551
 8242WAT     H224969   8.320   3.171   4.597
 8243WAT      O24970   7.265   6.895   3.496
 8243WAT     H124971   7.252   6.889   3.595
 8243WAT     H224972   7.195   6.955   3.457
 8244WAT      O24973   0.384   1.172   8.079
 8244WAT     H124974   0.456   1.131   8.023
 8244WAT     H224975   0.424   1.217   8.159
 8245WAT      O24976   3.618   2.063   9.726
 8245WAT     H124977   3.660   1.997   9.789
 8245WAT     H224978   3.520   2.070   9.747
 8246WAT      O24979   9.111   8.866   7.252
 8246WAT     H124980   9.160   8.812   7.183
 8246WAT     H224981   9.104   8.813   7.336
 8247WAT      O24982   6.614   6.822   8.131
 8247WAT     H124983   6.540   6.760   8.155
 8247WAT     H224984   6.701   6.773   8.134
 8248WAT      O24985   7.214   1.618   6.139
 8248WAT     H124986   7.166   1.643   6.223
 8248WAT     H224987   7.303   1.665   6.136
 8249WAT      O24988   7.269   0.546   0.707
 8249WAT     H124989   7.290   0.510   0.616
 8249WAT     H224990   7.239   0.471   0.766
 8250WAT      O24991   0.651   4.338   9.881
 8250WAT     H124992   0.672   4.380   9.793
 8250WAT     H224993   0.602   4.404   9.938
 8251WAT      O24994   1.324   6.516   2.288
 8251WAT     H124995   1.264   6.442   2.317
 8251WAT     H224996   1.287   6.560   2.207
 8252WAT      O24997   9.310   7.924   1.403
 8252WAT     H124998   9.392   7.869   1.416
 8252WAT     H224999   9.336   8.020   1.388
 8253WAT      O25000   9.606   5.420   4.320
 8253WAT     H125001   9.532   5.393   4.381
 8253WAT     H225002   9.693   5.387   4.356
 8254WAT      O25003   1.077   7.283   0.420
 8254WAT     H125004   1.041   7.347   0.353
 8254WAT     H225005   1.084   7.192   0.380
 8255WAT      O25006   0.852   7.667   9.721
 8255WAT     H125007   0.862   7.569   9.708
 8255WAT     H225008   0.842   7.687   9.819
 8256WAT      O25009   0.047   8.807   9.267
 8256WAT     H125010  -0.052   8.808   9.279
 8256WAT     H225011   0.081   8.901   9.261
 8257WAT      O25012   1.257   3.957   3.898
 8257WAT     H125013   1.284   3.953   3.801
 8257WAT     H225014   1.330   3.919   3.954
 8258WAT      O25015   0.758   1.490   4.272
 8258WAT     H125016   0.758   1.491   4.372
 8258WAT     H225017   0.849   1.510   4.238
 8259WAT      O25018   0.301   4.649   6.334
 8259WAT     H125019   0.293   4.550   6.332
 8259WAT     H225020   0.221   4.690   6.290
 8260WAT      O25021   0.275   9.633   8.538
 8260WAT     H125022   0.333   9.582   8.475
 8260WAT     H225023   0.324   9.714   8.571
 8261WAT      O25024   7.789   8.492   0.512
 8261WAT     H125025   7.745   8.561   0.570
 8261WAT     H225026   7.796   8.406   0.562
 8262WAT      O25027   4.631   8.502   0.505
 8262WAT     H125028   4.699   8.446   0.459
 8262WAT     H225029   4.667   8.534   0.592
 8263WAT      O25030   8.811   7.360   1.766
 8263WAT     H125031   8.764   7.430   1.821
 8263WAT     H225032   8.798   7.270   1.809
 8264WAT      O25033   9.518   1.355   0.883
 8264WAT     H125034   9.597   1.306   0.847
 8264WAT     H225035   9.435   1.305   0.859
 8265WAT      O25036   2.388   3.792   2.465
 8265WAT     H125037   2.342   3.704   2.454
 8265WAT     H225038   2.380   3.845   2.380
 8266WAT      O25039   5.574   6.982   2.100
 8266WAT     H125040   5.633   6.952   2.025
 8266WAT     H225041   5.486   6.934   2.094
 8267WAT      O25042   2.835   9.627   6.320
 8267WAT     H125043   2.930   9.658   6.322
 8267WAT     H225044   2.786   9.667   6.398
 8268WAT      O25045   7.236   4.936   7.873
 8268WAT     H125046   7.226   4.844   7.912
 8268WAT     H225047   7.332   4.952   7.852
 8269WAT      O25048   1.667   5.747   8.393
 8269WAT     H125049   1.666   5.647   8.397
 8269WAT     H225050   1.741   5.778   8.335
 8270WAT      O25051   1.536   9.698   4.342
 8270WAT     H125052   1.578   9.671   4.429
 8270WAT     H225053   1.524   9.797   4.340
 8271WAT      O25054   0.930   5.964   0.142
 8271WAT     H125055   0.831   5.969   0.132
 8271WAT     H225056   0.956   6.000   0.232
 8272WAT      O25057   0.911   8.163   7.653
 8272WAT     H125058   0.902   8.123   7.562
 8272WAT     H225059   0.838   8.230   7.667
 8273WAT      O25060   0.301   4.182   4.159
 8273WAT     H125061   0.246   4.142   4.233
 8273WAT     H225062   0.385   4.129   4.148
 8274WAT      O25063   6.649   8.312   3.165
 8274WAT     H125064   6.647   8.411   3.169
 8274WAT     H225065   6.744   8.280   3.166
 8275WAT      O25066   2.069   8.452   1.161
 8275WAT     H125067   1.982   8.431   1.205
 8275WAT     H225068   2.074   8.403   1.074
 8276WAT      O25069   8.829   4.028   6.961
 8276WAT     H125070   8.764   3.993   6.894
 8276WAT     H225071   8.830   4.128   6.957
 8277WAT      O25072   5.777   0.079   1.767
 8277WAT     H125073   5.740   0.079   1.860
 8277WAT     H225074   5.876   0.066   1.771
 8278WAT      O25075   1.071   4.767   9.459
 8278WAT     H125076   1.069   4.709   9.377
 8278WAT     H225077   1.080   4.862   9.432
 8279WAT      O25078   0.471   4.563   5.561
 8279WAT     H125079   0.541   4.596   5.498
 8279WAT     H225080   0.501   4.477   5.602
 8280WAT      O25081   6.839   4.806   8.992
 8280WAT     H125082   6.860   4.902   9.006
 8280WAT     H225083   6.919   4.750   9.016
 8281WAT      O25084   6.371   0.103   3.310
 8281WAT     H125085   6.367   0.006   3.332
 8281WAT     H225086   6.460   0.140   3.334
 8282WAT      O25087   3.541   1.477   2.499
 8282WAT     H125088   3.481   1.535   2.555
 8282WAT     H225089   3.530   1.382   2.527
 8283WAT      O25090   0.797   5.098   8.392
 8283WAT     H125091   0.725   5.168   8.394
 8283WAT     H225092   0.836   5.093   8.301
 8284WAT      O25093   6.899   7.298   0.993
 8284WAT     H125094   6.900   7.224   1.059
 8284WAT     H225095   6.970   7.281   0.924
 8285WAT      O25096   1.493   9.520   6.380
 8285WAT     H125097   1.564   9.474   6.327
 8285WAT     H225098   1.515   9.617   6.387
 8286WAT      O25099   7.205   7.092   6.363
 8286WAT     H125100   7.281   7.135   6.411
 8286WAT     H225101   7.120   7.112   6.410
 8287WAT      O25102   3.551   7.831   7.477
 8287WAT     H125103   3.579   7.893   7.403
 8287WAT     H225104   3.587   7.740   7.459
 8288WAT      O25105   7.141   2.455   8.446
 8288WAT     H125106   7.050   2.415   8.433
 8288WAT     H225107   7.200   2.388   8.491
 8289WAT      O25108   9.090   6.021   4.479
 8289WAT     H125109   9.038   5.941   4.510
 8289WAT     H225110   9.142   6.058   4.556
 8290WAT      O25111   0.195   7.876   0.134
 8290WAT     H125112   0.183   7.847   0.229
 8290WAT     H225113   0.277   7.933   0.126
 8291WAT      O25114   5.159   7.199   0.963
 8291WAT     H125115   5.254   7.221   0.939
 8291WAT     H225116   5.098   7.238   0.895
 8292WAT      O25117   9.217   5.979   1.368
 8292WAT     H125118   9.183   6.062   1.324
 8292WAT     H225119   9.143   5.912   1.377
 8293WAT      O25120   1.337   0.077   4.142
 8293WAT     H125121   1.314  -0.017   4.117
 8293WAT     H225122   1.421   0.078   4.195
 8294WAT      O25123   8.266   2.355   8.574
 8294WAT     H125124   8.230   2.338   8.665
 8294WAT     H225125   8.289   2.452   8.565
 8295WAT      O25126   7.856   8.362   5.509
 8295WAT     H125127   7.767   8.337   5.546
 8295WAT     H225128   7.928   8.329   5.570
 8296WAT      O25129   4.624   6.741   5.492
 8296WAT     H125130   4.585   6.745   5.401
 8296WAT     H225131   4.634   6.645   5.520
 8297WAT      O25132   7.864   0.882   9.356
 8297WAT     H125133   7.923   0.817   9.308
 8297WAT     H225134   7.777   0.837   9.378
 8298WAT      O25135   4.868   0.185   7.848
 8298WAT     H125136   4.842   0.104   7.900
 8298WAT     H225137   4.787   0.242   7.833
 8299WAT      O25138   8.186   1.530   9.827
 8299WAT     H125139   8.183   1.628   9.804
 8299WAT     H225140   8.141   1.516   9.915
 8300WAT      O25141   0.641   3.524   0.132
 8300WAT     H125142   0.580   3.491   0.204
 8300WAT     H225143   0.588   3.548   0.051
 8301WAT      O25144   6.857   1.312   3.206
 8301WAT     H125145   6.956   1.313   3.214
 8301WAT     H225146   6.831   1.287   3.113
 8302WAT      O25147   1.282   6.966   2.651
 8302WAT     H125148   1.381   6.969   2.661
 8302WAT     H225149   1.245   7.059   2.650
 8303WAT      O25150   9.031   4.295   6.724
 8303WAT     H125151   9.046   4.347   6.640
 8303WAT     H225152   9.041   4.198   6.705
 8304WAT      O25153   9.100   5.083   9.008
 8304WAT     H125154   9.063   4.998   9.046
 8304WAT     H225155   9.087   5.157   9.074
 8305WAT      O25156   0.475   8.404   6.467
 8305WAT     H125157   0.458   8.485   6.411
 8305WAT     H225158   0.490   8.325   6.407
 8306WAT      O25159   1.338   4.731   7.163
 8306WAT     H125160   1.437   4.740   7.173
 8306WAT     H225161   1.294   4.814   7.197
 8307WAT      O25162   0.920   3.114   1.164
 8307WAT     H125163   0.983   3.151   1.232
 8307WAT     H225164   0.949   3.143   1.073
 8308WAT      O25165   9.748   7.070   5.857
 8308WAT     H125166   9.797   6.985   5.878
 8308WAT     H225167   9.730   7.120   5.941
 8309WAT      O25168   7.846   3.379   3.838
 8309WAT     H125169   7.877   3.294   3.882
 8309WAT     H225170   7.833   3.363   3.741
 8310WAT      O25171   6.173   4.759   9.007
 8310WAT     H125172   6.169   4.858   9.020
 8310WAT     H225173   6.179   4.714   9.097
 8311WAT      O25174   7.402   6.385   7.353
 8311WAT     H125175   7.455   6.431   7.423
 8311WAT     H225176   7.355   6.453   7.296
 8312WAT      O25177   7.989   5.894   5.526
 8312WAT     H125178   7.895   5.912   5.554
 8312WAT     H225179   8.030   5.979   5.491
 8313WAT      O25180   9.171   0.985   7.576
 8313WAT     H125181   9.269   0.987   7.592
 8313WAT     H225182   9.152   0.928   7.495
 8314WAT      O25183   6.457   1.579   0.806
 8314WAT     H125184   6.386   1.619   0.863
 8314WAT     H225185   6.505   1.508   0.858
 8315WAT      O25186   0.838   3.315   0.113
 8315WAT     H125187   0.777   3.242   0.082
 8315WAT     H225188   0.786   3.399   0.125
 8316WAT      O25189   8.901   6.139   1.490
 8316WAT     H125190   8.834   6.071   1.520
 8316WAT     H225191   8.853   6.219   1.454
 8317WAT      O25192   5.641   8.538   4.131
 8317WAT     H125193   5.662   8.447   4.166
 8317WAT     H225194   5.568   8.531   4.062
 8318WAT      O25195   1.008   5.282   7.784
 8318WAT     H125196   1.104   5.303   7.803
 8318WAT     H225197   0.991   5.185   7.800
 8319WAT      O25198   7.308   7.026   8.354
 8319WAT     H125199   7.403   7.018   8.322
 8319WAT     H225200   7.303   6.993   8.448
 8320WAT      O25201   4.630   7.510   0.633
 8320WAT     H125202   4.658   7.419   0.664
 8320WAT     H225203   4.540   7.532   0.672
 8321WAT      O25204   5.579   9.077   4.868
 8321WAT     H125205   5.581   9.063   4.967
 8321WAT     H225206   5.630   9.003   4.823
 8322WAT      O25207   5.720   8.035   1.273
 8322WAT     H125208   5.715   8.079   1.183
 8322WAT     H225209   5.631   7.994   1.294
 8323WAT      O25210   7.221   2.554   4.612
 8323WAT     H125211   7.171   2.491   4.551
 8323WAT     H225212   7.253   2.503   4.692
 8324WAT      O25213   5.600   7.741   6.906
 8324WAT     H125214   5.690   7.764   6.943
 8324WAT     H225215   5.610   7.705   6.813
 8325WAT      O25216   5.262   1.105   2.893
 8325WAT     H125217   5.265   1.036   2.822
 8325WAT     H225218   5.322   1.182   2.868
 8326WAT      O25219   9.768   4.145   3.340
 8326WAT     H125220   9.718   4.147   3.254
 8326WAT     H225221   9.748   4.227   3.393
 8327WAT      O25222   8.958   9.015   2.659
 8327WAT     H125223   8.869   9.008   2.614
 8327WAT     H225224   9.023   8.954   2.613
 8328WAT      O25225   6.260   0.982   5.349
 8328WAT     H125226   6.309   1.047   5.291
 8328WAT     H225227   6.325   0.937   5.410
 8329WAT      O25228   8.296   8.641   8.991
 8329WAT     H125229   8.286   8.738   8.970
 8329WAT     H225230   8.253   8.586   8.918
 8330WAT      O25231   6.102   4.957   3.955
 8330WAT     H125232   6.176   4.943   4.021
 8330WAT     H225233   6.026   4.895   3.977
 8331WAT      O25234   6.916   7.419   5.453
 8331WAT     H125235   6.993   7.397   5.393
 8331WAT     H225236   6.944   7.411   5.549
 8332WAT      O25237   8.338   0.708   7.969
 8332WAT     H125238   8.313   0.632   8.029
 8332WAT     H225239   8.256   0.745   7.926
 8333WAT      O25240   3.547   6.282   0.927
 8333WAT     H125241   3.479   6.350   0.954
 8333WAT     H225242   3.565   6.221   1.005
 8334WAT      O25243   6.127   9.508   3.992
 8334WAT     H125244   6.190   9.474   3.922
 8334WAT     H225245   6.069   9.579   3.954
 8335WAT      O25246   2.795   2.043   6.597
 8335WAT     H125247   2.722   1.987   6.559
 8335WAT     H225248   2.808   2.124   6.540
 8336WAT      O25249   7.111   7.137   3.440
 8336WAT     H125250   7.059   7.111   3.522
 8336WAT     H225251   7.175   7.210   3.462
 8337WAT      O25252   5.640   4.924   8.139
 8337WAT     H125253   5.546   4.891   8.147
 8337WAT     H225254   5.694   4.857   8.088
 8338WAT      O25255   8.573   0.063   4.412
 8338WAT     H125256   8.612   0.124   4.480
 8338WAT     H225257   8.475   0.054   4.427
 8339WAT      O25258   6.140   0.487   8.356
 8339WAT     H125259   6.060   0.500   8.297
 8339WAT     H225260   6.186   0.401   8.332
 8340WAT      O25261   1.121   0.444   7.450
 8340WAT     H125262   1.148   0.364   7.396
 8340WAT     H225263   1.198   0.473   7.507
 8341WAT      O25264   3.853   7.303   1.849
 8341WAT     H125265   3.902   7.257   1.923
 8341WAT     H225266   3.761   7.327   1.879
 8342WAT      O25267   7.259   4.892   8.320
 8342WAT     H125268   7.232   4.846   8.404
 8342WAT     H225269   7.177   4.916   8.268
 8343WAT      O25270   6.885   4.927   3.049
 8343WAT     H125271   6.818   5.000   3.035
 8343WAT     H225272   6.882   4.897   3.145
 8344WAT      O25273   7.816   0.656   6.793
 8344WAT     H125274   7.788   0.571   6.838
 8344WAT     H225275   7.799   0.649   6.694
 8345WAT      O25276   4.363   4.034   3.120
 8345WAT     H125277   4.381   3.950   3.170
 8345WAT     H225278   4.321   4.013   3.032
 8346WAT      O25279   8.975   9.575   3.021
 8346WAT     H125280   8.913   9.515   3.072
 8346WAT     H225281   8.927   9.659   2.997
 8347WAT      O25282   6.571   0.331   7.217
 8347WAT     H125283   6.479   0.368   7.207
 8347WAT     H225284   6.575   0.240   7.175
 8348WAT      O25285   1.242   0.871   0.410
 8348WAT     H125286   1.228   0.889   0.507
 8348WAT     H225287   1.337   0.889   0.386
 8349WAT      O25288   7.319   9.477   7.641
 8349WAT     H125289   7.323   9.391   7.693
 8349WAT     H225290   7.380   9.544   7.682
 8350WAT      O25291   9.296   5.276   2.678
 8350WAT     H125292   9.232   5.303   2.606
 8350WAT     H225293   9.370   5.343   2.683
 8351WAT      O25294   3.284   4.004   9.494
 8351WAT     H125295   3.230   3.927   9.458
 8351WAT     H225296   3.225   4.084   9.502
 8352WAT      O25297   8.715   5.283   6.019
 8352WAT     H125298   8.729   5.365   6.076
 8352WAT     H225299   8.620   5.280   5.989
 8353WAT      O25300   8.653   9.579   4.011
 8353WAT     H125301   8.660   9.645   3.936
 8353WAT     H225302   8.616   9.625   4.092
 8354WAT      O25303   2.930   6.565   1.834
 8354WAT     H125304   2.947   6.619   1.916
 8354WAT     H225305   2.837   6.583   1.801
 8355WAT      O25306   4.853   6.824   0.562
 8355WAT     H125307   4.942   6.856   0.594
 8355WAT     H225308   4.783   6.849   0.627
 8356WAT      O25309   1.461   4.722   7.798
 8356WAT     H125310   1.551   4.739   7.758
 8356WAT     H225311   1.472   4.684   7.890
 8357WAT      O25312   0.867   9.089   1.758
 8357WAT     H125313   0.856   9.064   1.854
 8357WAT     H225314   0.867   9.006   1.702
 8358WAT      O25315   7.810   3.735   2.705
 8358WAT     H125316   7.849   3.813   2.753
 8358WAT     H225317   7.785   3.761   2.612
 8359WAT      O25318   5.303   2.838   1.925
 8359WAT     H125319   5.250   2.825   1.841
 8359WAT     H225320   5.387   2.784   1.920
 8360WAT      O25321   7.255   3.640   2.083
 8360WAT     H125322   7.204   3.719   2.116
 8360WAT     H225323   7.275   3.651   1.986
 8361WAT      O25324   7.483   5.397   7.411
 8361WAT     H125325   7.389   5.427   7.398
 8361WAT     H225326   7.483   5.301   7.440
 8362WAT      O25327   3.736   5.773   8.752
 8362WAT     H125328   3.760   5.812   8.664
 8362WAT     H225329   3.654   5.716   8.742
 8363WAT      O25330   7.664   8.618   7.234
 8363WAT     H125331   7.571   8.654   7.237
 8363WAT     H225332   7.726   8.682   7.279
 8364WAT      O25333   1.778   6.180   0.253
 8364WAT     H125334   1.686   6.203   0.285
 8364WAT     H225335   1.807   6.095   0.295
 8365WAT      O25336   8.475   7.724   0.346
 8365WAT     H125337   8.558   7.684   0.308
 8365WAT     H225338   8.398   7.661   0.333
 8366WAT      O25339   0.509   6.672   8.468
 8366WAT     H125340   0.447   6.688   8.391
 8366WAT     H225341   0.602   6.698   8.441
 8367WAT      O25342   2.198   1.058   7.290
 8367WAT     H125343   2.138   1.066   7.369
 8367WAT     H225344   2.154   1.001   7.220
 8368WAT      O25345   6.721   6.524   5.460
 8368WAT     H125346   6.782   6.576   5.518
 8368WAT     H225347   6.767   6.440   5.429
 8369WAT      O25348   2.641   4.625   7.469
 8369WAT     H125349   2.693   4.681   7.404
 8369WAT     H225350   2.655   4.660   7.562
 8370WAT      O25351   8.444   9.062   6.661
 8370WAT     H125352   8.357   9.072   6.709
 8370WAT     H225353   8.433   9.089   6.565
 8371WAT      O25354   3.589   2.359   0.653
 8371WAT     H125355   3.544   2.378   0.740
 8371WAT     H225356   3.635   2.270   0.658
 8372WAT      O25357   1.908   1.696   3.075
 8372WAT     H125358   1.877   1.791   3.070
 8372WAT     H225359   1.996   1.692   3.123
 8373WAT      O25360   3.020   5.756   8.948
 8373WAT     H125361   3.027   5.855   8.964
 8373WAT     H225362   2.944   5.738   8.886
 8374WAT      O25363   3.928   1.754   0.089
 8374WAT     H125364   3.928   1.654   0.088
 8374WAT     H225365   4.020   1.787   0.067
 8375WAT      O25366   2.236   6.806   0.402
 8375WAT     H125367   2.258   6.713   0.430
 8375WAT     H225368   2.243   6.867   0.481
 8376WAT      O25369   1.223   7.903   3.502
 8376WAT     H125370   1.175   7.943   3.580
 8376WAT     H225371   1.207   7.959   3.420
 8377WAT      O25372   5.783   0.662   2.057
 8377WAT     H125373   5.873   0.682   2.095
 8377WAT     H225374   5.783   0.679   1.959
 8378WAT      O25375   8.932   1.437   1.743
 8378WAT     H125376   8.864   1.413   1.674
 8378WAT     H225377   8.886   1.472   1.825
 8379WAT      O25378   7.003   4.623   3.249
 8379WAT     H125379   6.995   4.622   3.150
 8379WAT     H225380   7.064   4.550   3.279
 8380WAT      O25381   0.734   9.718   9.050
 8380WAT     H125382   0.677   9.676   9.121
 8380WAT     H225383   0.695   9.698   8.960
 8381WAT      O25384   9.069   2.407   0.753
 8381WAT     H125385   9.009   2.478   0.788
 8381WAT     H225386   9.123   2.443   0.677
 8382WAT      O25387   0.392   4.956   2.095
 8382WAT     H125388   0.457   4.943   2.171
 8382WAT     H225389   0.437   4.933   2.009
 8383WAT      O25390   1.159   7.588   8.224
 8383WAT     H125391   1.164   7.562   8.320
 8383WAT     H225392   1.250   7.615   8.192
 8384WAT      O25393   6.645   6.690   7.197
 8384WAT     H125394   6.703   6.754   7.247
 8384WAT     H225395   6.628   6.725   7.105
 8385WAT      O25396   1.139   4.419   4.882
 8385WAT     H125397   1.040   4.427   4.896
 8385WAT     H225398   1.187   4.476   4.949
 8386WAT      O25399   7.104   1.593   7.357
 8386WAT     H125400   7.141   1.677   7.397
 8386WAT     H225401   7.007   1.586   7.379
 8387WAT      O25402   6.493   4.277   1.003
 8387WAT     H125403   6.565   4.273   1.073
 8387WAT     H225404   6.536   4.270   0.913
 8388WAT      O25405   5.719   3.647   9.762
 8388WAT     H125406   5.763   3.711   9.825
 8388WAT     H225407   5.670   3.578   9.815
 8389WAT      O25408   5.498   9.772   6.045
 8389WAT     H125409   5.444   9.811   5.970
 8389WAT     H225410   5.584   9.823   6.053
 8390WAT      O25411   9.489   8.714   6.435
 8390WAT     H125412   9.425   8.772   6.384
 8390WAT     H225413   9.539   8.655   6.371
 8391WAT      O25414   0.120   8.897   2.877
 8391WAT     H125415   0.185   8.973   2.888
 8391WAT     H225416   0.062   8.914   2.797
 8392WAT      O25417   3.228   0.356   4.678
 8392WAT     H125418   3.177   0.274   4.654
 8392WAT     H225419   3.324   0.346   4.651
 8393WAT      O25420   8.884   7.878   3.861
 8393WAT     H125421   8.872   7.937   3.781
 8393WAT     H225422   8.852   7.786   3.839
 8394WAT      O25423   7.425   8.034   8.173
 8394WAT     H125424   7.394   7.997   8.086
 8394WAT     H225425   7.400   8.131   8.179
 8395WAT      O25426   0.126   3.411   5.358
 8395WAT     H125427   0.117   3.402   5.457
 8395WAT     H225428   0.191   3.483   5.336
 8396WAT      O25429   5.251   9.733   9.770
 8396WAT     H125430   5.206   9.655   9.725
 8396WAT     H225431   5.213   9.818   9.734
 8397WAT      O25432   9.298   4.154   0.829
 8397WAT     H125433   9.311   4.235   0.772
 8397WAT     H225434   9.364   4.156   0.905
 8398WAT      O25435   3.567   8.989   8.318
 8398WAT     H125436   3.645   9.006   8.379
 8398WAT     H225437   3.577   8.899   8.275
 8399WAT      O25438   0.182   1.739   6.293
 8399WAT     H125439   0.129   1.725   6.377
 8399WAT     H225440   0.165   1.664   6.229
 8400WAT      O25441   0.365   7.791   0.693
 8400WAT     H125442   0.331   7.767   0.602
 8400WAT     H225443   0.290   7.828   0.748
 8401WAT      O25444   2.778   4.400   0.414
 8401WAT     H125445   2.805   4.361   0.326
 8401WAT     H225446   2.728   4.331   0.466
 8402WAT      O25447   7.816   3.991   5.923
 8402WAT     H125448   7.764   4.038   5.851
 8402WAT     H225449   7.804   3.892   5.913
 8403WAT      O25450   7.729   5.807   9.004
 8403WAT     H125451   7.735   5.819   9.103
 8403WAT     H225452   7.635   5.817   8.974
 8404WAT      O25453   6.052   0.543   7.293
 8404WAT     H125454   5.998   0.549   7.209
 8404WAT     H225455   6.068   0.634   7.329
 8405WAT      O25456   5.238   5.818   9.295
 8405WAT     H125457   5.317   5.765   9.264
 8405WAT     H225458   5.269   5.905   9.334
 8406WAT      O25459   7.351   0.358   4.290
 8406WAT     H125460   7.426   0.418   4.263
 8406WAT     H225461   7.387   0.274   4.330
 8407WAT      O25462   0.640   3.426   4.006
 8407WAT     H125463   0.721   3.445   3.951
 8407WAT     H225464   0.573   3.377   3.952
 8408WAT      O25465   5.423   6.188   7.404
 8408WAT     H125466   5.438   6.097   7.442
 8408WAT     H225467   5.489   6.252   7.445
 8409WAT      O25468   9.522   3.220   4.056
 8409WAT     H125469   9.461   3.273   3.997
 8409WAT     H225470   9.571   3.153   4.000
 8410WAT      O25471   8.681   1.749   6.350
 8410WAT     H125472   8.718   1.669   6.397
 8410WAT     H225473   8.756   1.807   6.318
 8411WAT      O25474   3.233   4.471   5.092
 8411WAT     H125475   3.166   4.399   5.111
 8411WAT     H225476   3.323   4.429   5.076
 8412WAT      O25477   2.100   1.630   5.743
 8412WAT     H125478   2.120   1.532   5.738
 8412WAT     H225479   2.168   1.675   5.801
 8413WAT      O25480   2.679   4.817   8.985
 8413WAT     H125481   2.709   4.736   9.035
 8413WAT     H225482   2.643   4.885   9.048
 8414WAT      O25483   8.588   1.887   9.455
 8414WAT     H125484   8.591   1.916   9.551
 8414WAT     H225485   8.495   1.893   9.421
 8415WAT      O25486   1.255   6.763   0.695
 8415WAT     H125487   1.285   6.673   0.663
 8415WAT     H225488   1.332   6.827   0.690
 8416WAT      O25489   2.536   3.812   7.382
 8416WAT     H125490   2.534   3.722   7.339
 8416WAT     H225491   2.566   3.803   7.477
 8417WAT      O25492   6.791   0.301   5.776
 8417WAT     H125493   6.837   0.216   5.800
 8417WAT     H225494   6.782   0.358   5.858
 8418WAT      O25495   1.611   1.125   0.902
 8418WAT     H125496   1.631   1.139   0.805
 8418WAT     H225497   1.512   1.126   0.916
 8419WAT      O25498   8.896   1.744   2.451
 8419WAT     H125499   8.976   1.708   2.403
 8419WAT     H225500   8.875   1.836   2.418
 8420WAT      O25501   1.178   4.522   0.202
 8420WAT     H125502   1.228   4.449   0.156
 8420WAT     H225503   1.101   4.551   0.145
 8421WAT      O25504   5.369   0.044   5.838
 8421WAT     H125505   5.285   0.068   5.788
 8421WAT     H225506   5.443   0.026   5.773
 8422WAT      O25507   8.000   9.736   1.031
 8422WAT     H125508   8.042   9.662   1.084
 8422WAT     H225509   8.020   9.824   1.075
 8423WAT      O25510   4.046   4.995   1.714
 8423WAT     H125511   4.035   5.039   1.804
 8423WAT     H225512   4.114   5.045   1.661
 8424WAT      O25513   0.027   1.279   7.508
 8424WAT     H125514   0.080   1.204   7.467
 8424WAT     H225515   0.090   1.345   7.548
 8425WAT      O25516   8.031   3.370   3.259
 8425WAT     H125517   8.031   3.375   3.159
 8425WAT     H225518   7.967   3.438   3.295
 8426WAT      O25519   2.239   8.503   2.704
 8426WAT     H125520   2.311   8.448   2.744
 8426WAT     H225521   2.161   8.508   2.766
 8427WAT      O25522   8.466   1.728   5.519
 8427WAT     H125523   8.438   1.824   5.518
 8427WAT     H225524   8.417   1.679   5.591
 8428WAT      O25525   5.251   1.625   1.791
 8428WAT     H125526   5.167   1.674   1.768
 8428WAT     H225527   5.233   1.563   1.867
 8429WAT      O25528   1.153   7.690   2.456
 8429WAT     H125529   1.063   7.712   2.419
 8429WAT     H225530   1.187   7.605   2.417
 8430WAT      O25531   4.592   7.208   4.223
 8430WAT     H125532   4.542   7.188   4.307
 8430WAT     H225533   4.530   7.253   4.158
 8431WAT      O25534   9.158   7.309   5.520
 8431WAT     H125535   9.078   7.261   5.555
 8431WAT     H225536   9.225   7.320   5.593
 8432WAT      O25537   1.180   6.998   1.837
 8432WAT     H125538   1.231   7.080   1.813
 8432WAT     H225539   1.244   6.922   1.849
 8433WAT      O25540   0.836   0.873   7.809
 8433WAT     H125541   0.815   0.962   7.767
 8433WAT     H225542   0.777   0.859   7.888
 8434WAT      O25543   0.774   2.776   3.167
 8434WAT     H125544   0.681   2.811   3.159
 8434WAT     H225545   0.803   2.737   3.079
 8435WAT      O25546   5.403   0.464   8.525
 8435WAT     H125547   5.418   0.460   8.624
 8435WAT     H225548   5.477   0.414   8.478
 8436WAT      O25549   2.141   0.336   3.643
 8436WAT     H125550   2.071   0.278   3.601
 8436WAT     H225551   2.198   0.375   3.571
 8437WAT      O25552   3.760   3.772   7.889
 8437WAT     H125553   3.813   3.735   7.813
 8437WAT     H225554   3.676   3.814   7.855
 8438WAT      O25555   6.483   0.020   1.037
 8438WAT     H125556   6.437   0.046   0.952
 8438WAT     H225557   6.418   0.024   1.113
 8439WAT      O25558   6.631   7.043   5.074
 8439WAT     H125559   6.547   7.065   5.122
 8439WAT     H225560   6.661   6.951   5.101
 8440WAT      O25561   7.270   8.384   8.683
 8440WAT     H125562   7.193   8.338   8.727
 8440WAT     H225563   7.350   8.325   8.686
 8441WAT      O25564   1.053   2.136   0.972
 8441WAT     H125565   0.977   2.109   0.914
 8441WAT     H225566   1.064   2.070   1.046
 8442WAT      O25567   8.757   7.745   5.234
 8442WAT     H125568   8.684   7.684   5.206
 8442WAT     H225569   8.719   7.829   5.270
 8443WAT      O25570   2.543   3.627   1.795
 8443WAT     H125571   2.475   3.632   1.721
 8443WAT     H225572   2.496   3.630   1.883
 8444WAT      O25573   7.576   3.020   1.042
 8444WAT     H125574   7.522   2.938   1.022
 8444WAT     H225575   7.572   3.083   0.964
 8445WAT      O25576   9.488   0.554   6.344
 8445WAT     H125577   9.581   0.532   6.313
 8445WAT     H225578   9.483   0.651   6.368
 8446WAT      O25579   4.875   7.649   0.619
 8446WAT     H125580   4.782   7.612   0.620
 8446WAT     H225581   4.901   7.672   0.525
 8447WAT      O25582   7.036   0.544   7.943
 8447WAT     H125583   7.100   0.517   8.014
 8447WAT     H225584   6.966   0.603   7.982
 8448WAT      O25585   2.487   8.172   8.142
 8448WAT     H125586   2.403   8.162   8.195
 8448WAT     H225587   2.566   8.170   8.203
 8449WAT      O25588   1.884   7.377   4.649
 8449WAT     H125589   1.941   7.435   4.708
 8449WAT     H225590   1.872   7.421   4.560
 8450WAT      O25591   3.291   7.646   4.749
 8450WAT     H125592   3.293   7.712   4.673
 8450WAT     H225593   3.229   7.571   4.725
 8451WAT      O25594   8.816   8.571   5.393
 8451WAT     H125595   8.876   8.493   5.377
 8451WAT     H225596   8.737   8.542   5.447
 8452WAT      O25597   3.621   2.133   8.914
 8452WAT     H125598   3.660   2.224   8.926
 8452WAT     H225599   3.617   2.110   8.817
 8453WAT      O25600   3.286   1.803   4.275
 8453WAT     H125601   3.374   1.829   4.235
 8453WAT     H225602   3.241   1.736   4.215
 8454WAT      O25603   7.500   3.912   1.763
 8454WAT     H125604   7.570   3.917   1.834
 8454WAT     H225605   7.424   3.972   1.787
 8455WAT      O25606   6.959   7.461   8.130
 8455WAT     H125607   7.052   7.497   8.141
 8455WAT     H225608   6.962   7.361   8.132
 8456WAT      O25609   3.355   2.794   0.033
 8456WAT     H125610   3.453   2.778   0.031
 8456WAT     H225611   3.309   2.719   0.080
 8457WAT      O25612   8.949   8.388   1.178
 8457WAT     H125613   9.036   8.339   1.188
 8457WAT     H225614   8.908   8.402   1.268
 8458WAT      O25615   1.817   6.318   6.938
 8458WAT     H125616   1.883   6.290   6.868
 8458WAT     H225617   1.799   6.416   6.929
 8459WAT      O25618   6.613   6.332   3.323
 8459WAT     H125619   6.645   6.410   3.377
 8459WAT     H225620   6.678   6.314   3.249
 8460WAT      O25621   4.431   9.514   0.498
 8460WAT     H125622   4.363   9.513   0.571
 8460WAT     H225623   4.392   9.471   0.416
 8461WAT      O25624   5.068   1.910   6.845
 8461WAT     H125625   5.132   1.929   6.770
 8461WAT     H225626   5.086   1.820   6.883
 8462WAT      O25627   0.803   7.430   3.350
 8462WAT     H125628   0.780   7.507   3.291
 8462WAT     H225629   0.757   7.440   3.438
 8463WAT      O25630   4.979   9.429   5.816
 8463WAT     H125631   5.014   9.365   5.747
 8463WAT     H225632   4.880   9.418   5.824
 8464WAT      O25633   5.481   2.903   8.511
 8464WAT     H125634   5.475   2.962   8.430
 8464WAT     H225635   5.536   2.948   8.581
 8465WAT      O25636   2.663   8.821   3.714
 8465WAT     H125637   2.730   8.851   3.782
 8465WAT     H225638   2.586   8.884   3.714
 8466WAT      O25639   3.676   5.111   4.376
 8466WAT     H125640   3.719   5.195   4.410
 8466WAT     H225641   3.577   5.117   4.389
 8467WAT      O25642   2.515   6.217   1.186
 8467WAT     H125643   2.524   6.149   1.258
 8467WAT     H225644   2.431   6.269   1.199
 8468WAT      O25645   7.693   8.921   0.692
 8468WAT     H125646   7.784   8.934   0.652
 8468WAT     H225647   7.672   8.998   0.753
 8469WAT      O25648   2.575   6.821   8.657
 8469WAT     H125649   2.633   6.880   8.601
 8469WAT     H225650   2.509   6.877   8.708
 8470WAT      O25651   5.737   0.643   8.172
 8470WAT     H125652   5.767   0.548   8.185
 8470WAT     H225653   5.639   0.645   8.153
 8471WAT      O25654   4.698   8.825   0.923
 8471WAT     H125655   4.645   8.832   1.007
 8471WAT     H225656   4.676   8.902   0.863
 8472WAT      O25657   4.478   2.455   2.124
 8472WAT     H125658   4.448   2.548   2.105
 8472WAT     H225659   4.555   2.432   2.064
 8473WAT      O25660   0.938   2.752   6.221
 8473WAT     H125661   1.004   2.738   6.148
 8473WAT     H225662   0.986   2.758   6.309
 8474WAT      O25663   8.008   2.981   6.668
 8474WAT     H125664   8.015   3.048   6.742
 8474WAT     H225665   8.031   3.025   6.581
 8475WAT      O25666   0.100   3.257   2.912
 8475WAT     H125667   0.083   3.257   3.011
 8475WAT     H225668   0.038   3.192   2.867
 8476WAT      O25669   7.146   9.072   1.021
 8476WAT     H125670   7.144   9.163   0.979
 8476WAT     H225671   7.228   9.023   0.991
 8477WAT      O25672   5.981   2.064   7.045
 8477WAT     H125673   5.918   2.019   6.982
 8477WAT     H225674   6.045   2.121   6.992
 8478WAT      O25675   9.004   5.283   0.038
 8478WAT     H125676   8.965   5.309  -0.050
 8478WAT     H225677   9.079   5.345   0.060
 8479WAT      O25678   2.321   7.836   8.370
 8479WAT     H125679   2.369   7.778   8.304
 8479WAT     H225680   2.245   7.785   8.410
 8480WAT      O25681   7.412   4.222   8.196
 8480WAT     H125682   7.387   4.222   8.293
 8480WAT     H225683   7.337   4.261   8.143
 8481WAT      O25684   9.827   0.298   0.538
 8481WAT     H125685   9.828   0.398   0.549
 8481WAT     H225686   9.788   0.257   0.620
 8482WAT      O25687   1.772   8.063   9.279
 8482WAT     H125688   1.843   8.092   9.343
 8482WAT     H225689   1.696   8.128   9.281
 8483WAT      O25690   8.165   1.070   5.263
 8483WAT     H125691   8.110   1.057   5.345
 8483WAT     H225692   8.127   1.016   5.188
 8484WAT      O25693   2.247   6.211   9.404
 8484WAT     H125694   2.275   6.227   9.309
 8484WAT     H225695   2.212   6.295   9.444
 8485WAT      O25696   4.179   6.735   0.153
 8485WAT     H125697   4.184   6.704   0.058
 8485WAT     H225698   4.112   6.809   0.160
 8486WAT      O25699   2.579   2.731   3.390
 8486WAT     H125700   2.641   2.809   3.388
 8486WAT     H225701   2.625   2.653   3.434
 8487WAT      O25702   9.510   3.782   0.920
 8487WAT     H125703   9.436   3.747   0.977
 8487WAT     H225704   9.576   3.830   0.978
 8488WAT      O25705   8.930   5.120   5.989
 8488WAT     H125706   9.010   5.171   6.021
 8488WAT     H225707   8.846   5.170   6.014
 8489WAT      O25708   0.527   7.647   1.054
 8489WAT     H125709   0.467   7.577   1.015
 8489WAT     H225710   0.516   7.733   1.003
 8490WAT      O25711   5.186   0.641   0.069
 8490WAT     H125712   5.105   0.600   0.027
 8490WAT     H225713   5.236   0.694   0.000
 8491WAT      O25714   6.040   7.774   3.259
 8491WAT     H125715   6.049   7.867   3.224
 8491WAT     H225716   5.952   7.736   3.231
 8492WAT      O25717   1.555   7.630   5.546
 8492WAT     H125718   1.632   7.587   5.593
 8492WAT     H225719   1.522   7.708   5.600
 8493WAT      O25720   2.645   6.086   3.817
 8493WAT     H125721   2.620   6.168   3.868
 8493WAT     H225722   2.739   6.095   3.783
 8494WAT      O25723   1.475   5.567   5.409
 8494WAT     H125724   1.489   5.518   5.323
 8494WAT     H225725   1.447   5.502   5.479
 8495WAT      O25726   1.262   0.038   2.277
 8495WAT     H125727   1.182   0.039   2.217
 8495WAT     H225728   1.232   0.052   2.372
 8496WAT      O25729   7.408   3.784   8.170
 8496WAT     H125730   7.389   3.824   8.260
 8496WAT     H225731   7.322   3.771   8.120
 8497WAT      O25732   5.738   7.122   2.914
 8497WAT     H125733   5.677   7.070   2.974
 8497WAT     H225734   5.786   7.191   2.968
 8498WAT      O25735   8.231   9.782   8.184
 8498WAT     H125736   8.324   9.809   8.206
 8498WAT     H225737   8.203   9.706   8.243
 8499WAT      O25738   3.384   8.593   0.184
 8499WAT     H125739   3.353   8.557   0.272
 8499WAT     H225740   3.317   8.658   0.149
 8500WAT      O25741   5.650   8.091   1.774
 8500WAT     H125742   5.732   8.061   1.823
 8500WAT     H225743   5.616   8.016   1.718
 8501WAT      O25744   6.575   1.090   7.059
 8501WAT     H125745   6.522   1.171   7.033
 8501WAT     H225746   6.620   1.053   6.978
 8502WAT      O25747   6.233   8.037   8.008
 8502WAT     H125748   6.293   8.117   8.006
 8502WAT     H225749   6.279   7.959   7.967
 8503WAT      O25750   9.127   8.283   2.692
 8503WAT     H125751   9.062   8.354   2.716
 8503WAT     H225752   9.205   8.286   2.755
 8504WAT      O25753   1.662   9.482   8.511
 8504WAT     H125754   1.603   9.505   8.434
 8504WAT     H225755   1.617   9.505   8.597
 8505WAT      O25756   0.538   9.077   8.344
 8505WAT     H125757   0.583   9.091   8.256
 8505WAT     H225758   0.443   9.049   8.329
 8506WAT      O25759   6.736   0.745   3.157
 8506WAT     H125760   6.659   0.789   3.204
 8506WAT     H225761   6.790   0.814   3.108
 8507WAT      O25762   1.769   3.822   9.524
 8507WAT     H125763   1.673   3.841   9.545
 8507WAT     H225764   1.812   3.903   9.485
 8508WAT      O25765   7.360   9.491   9.334
 8508WAT     H125766   7.328   9.397   9.335
 8508WAT     H225767   7.379   9.520   9.428
 8509WAT      O25768   5.648   7.917   3.179
 8509WAT     H125769   5.650   8.013   3.151
 8509WAT     H225770   5.560   7.876   3.154
 8510WAT      O25771   0.683   4.665   1.580
 8510WAT     H125772   0.732   4.578   1.571
 8510WAT     H225773   0.593   4.647   1.620
 8511WAT      O25774   5.252   1.471   2.007
 8511WAT     H125775   5.331   1.438   1.955
 8511WAT     H225776   5.214   1.396   2.062
 8512WAT      O25777   4.422   8.359   4.696
 8512WAT     H125778   4.419   8.414   4.612
 8512WAT     H225779   4.362   8.400   4.765
 8513WAT      O25780   4.864   1.012   0.076
 8513WAT     H125781   4.821   0.924   0.056
 8513WAT     H225782   4.801   1.086   0.050
 8514WAT      O25783   2.263   6.759   5.052
 8514WAT     H125784   2.209   6.676   5.062
 8514WAT     H225785   2.288   6.772   4.956
 8515WAT      O25786   6.670   9.390   3.202
 8515WAT     H125787   6.671   9.453   3.124
 8515WAT     H225788   6.623   9.306   3.176
 8516WAT      O25789   0.937   9.453   2.355
 8516WAT     H125790   0.911   9.459   2.451
 8516WAT     H225791   1.036   9.439   2.348
 8517WAT      O25792   3.369   2.442   8.998
 8517WAT     H125793   3.442   2.510   9.004
 8517WAT     H225794   3.280   2.488   8.999
 8518WAT      O25795   0.109   4.653   5.809
 8518WAT     H125796   0.180   4.711   5.769
 8518WAT     H225797   0.116   4.561   5.771
 8519WAT      O25798   5.245   7.650   2.258
 8519WAT     H125799   5.284   7.742   2.261
 8519WAT     H225800   5.201   7.636   2.169
 8520WAT      O25801   3.094   1.529   6.848
 8520WAT     H125802   3.049   1.441   6.862
 8520WAT     H225803   3.171   1.517   6.785
 8521WAT      O25804   3.907   0.836   2.512
 8521WAT     H125805   3.906   0.883   2.424
 8521WAT     H225806   3.944   0.744   2.501
 8522WAT      O25807   7.861   9.777   7.351
 8522WAT     H125808   7.876   9.739   7.260
 8522WAT     H225809   7.928   9.740   7.415
 8523WAT      O25810   5.752   5.194   6.784
 8523WAT     H125811   5.714   5.189   6.691
 8523WAT     H225812   5.850   5.212   6.779
 8524WAT      O25813   4.611   8.907   1.175
 8524WAT     H125814   4.547   8.863   1.238
 8524WAT     H225815   4.704   8.900   1.212
 8525WAT      O25816   1.099   2.362   0.309
 8525WAT     H125817   1.058   2.442   0.266
 8525WAT     H225818   1.055   2.279   0.274
 8526WAT      O25819   5.840   9.403   0.214
 8526WAT     H125820   5.921   9.452   0.245
 8526WAT     H225821   5.763   9.466   0.207
 8527WAT      O25822   0.844   6.610   1.536
 8527WAT     H125823   0.858   6.554   1.617
 8527WAT     H225824   0.915   6.680   1.530
 8528WAT      O25825   9.232   3.778   7.891
 8528WAT     H125826   9.281   3.787   7.804
 8528WAT     H225827   9.149   3.833   7.888
 8529WAT      O25828   4.550   9.633   0.797
 8529WAT     H125829   4.486   9.598   0.865
 8529WAT     H225830   4.644   9.612   0.825
 8530WAT      O25831   7.002   2.970   0.557
 8530WAT     H125832   7.029   3.022   0.476
 8530WAT     H225833   6.918   3.010   0.595
 8531WAT      O25834   7.497   6.917   3.366
 8531WAT     H125835   7.410   6.909   3.414
 8531WAT     H225836   7.522   6.828   3.327
 8532WAT      O25837   4.572   2.341   6.093
 8532WAT     H125838   4.477   2.308   6.085
 8532WAT     H225839   4.614   2.342   6.003
 8533WAT      O25840   7.315   9.350   5.448
 8533WAT     H125841   7.384   9.368   5.518
 8533WAT     H225842   7.228   9.389   5.477
 8534WAT      O25843   9.513   0.046   6.805
 8534WAT     H125844   9.523   0.041   6.904
 8534WAT     H225845   9.494  -0.045   6.769
 8535WAT      O25846   2.174   7.759   7.359
 8535WAT     H125847   2.090   7.809   7.343
 8535WAT     H225848   2.218   7.739   7.271
 8536WAT      O25849   2.273   4.115   7.864
 8536WAT     H125850   2.266   4.064   7.949
 8536WAT     H225851   2.300   4.209   7.884
 8537WAT      O25852   3.285   3.508   7.371
 8537WAT     H125853   3.210   3.446   7.390
 8537WAT     H225854   3.324   3.488   7.281
 8538WAT      O25855   3.469   3.290   7.552
 8538WAT     H125856   3.435   3.233   7.477
 8538WAT     H225857   3.405   3.366   7.568
 8539WAT      O25858   6.538   1.880   4.784
 8539WAT     H125859   6.514   1.968   4.824
 8539WAT     H225860   6.565   1.816   4.856
 8540WAT      O25861   6.409   8.809   1.744
 8540WAT     H125862   6.428   8.853   1.831
 8540WAT     H225863   6.495   8.789   1.697
 8541WAT      O25864   7.397   9.101   8.285
 8541WAT     H125865   7.410   9.039   8.362
 8541WAT     H225866   7.429   9.192   8.310
 8542WAT      O25867   7.138   7.522   3.248
 8542WAT     H125868   7.057   7.513   3.305
 8542WAT     H225869   7.173   7.616   3.254
 8543WAT      O25870   4.034   2.236   9.239
 8543WAT     H125871   4.060   2.300   9.312
 8543WAT     H225872   4.035   2.284   9.151
 8544WAT      O25873   1.246   8.586   8.623
 8544WAT     H125874   1.211   8.664   8.571
 8544WAT     H225875   1.290   8.618   8.706
 8545WAT      O25876   5.532   9.511   2.339
 8545WAT     H125877   5.615   9.467   2.372
 8545WAT     H225878   5.536   9.609   2.356
 8546WAT      O25879   2.936   7.936   0.679
 8546WAT     H125880   2.974   7.853   0.721
 8546WAT     H225881   2.931   8.009   0.747
 8547WAT      O25882   1.567   9.773   6.383
 8547WAT     H125883   1.492   9.834   6.409
 8547WAT     H225884   1.653   9.808   6.420
 8548WAT      O25885   3.360   4.403   4.683
 8548WAT     H125886   3.356   4.329   4.750
 8548WAT     H225887   3.352   4.365   4.591
 8549WAT      O25888   2.568   8.091   9.210
 8549WAT     H125889   2.575   8.016   9.275
 8549WAT     H225890   2.640   8.159   9.229
 8550WAT      O25891   3.666   4.728   2.952
 8550WAT     H125892   3.694   4.818   2.918
 8550WAT     H225893   3.667   4.662   2.877
 8551WAT      O25894   5.226   4.091   2.166
 8551WAT     H125895   5.131   4.069   2.186
 8551WAT     H225896   5.230   4.149   2.084
 8552WAT      O25897   8.062   0.947   4.333
 8552WAT     H125898   8.005   1.027   4.314
 8552WAT     H225899   8.038   0.874   4.269
 8553WAT      O25900   8.499   3.123   2.013
 8553WAT     H125901   8.426   3.055   2.007
 8553WAT     H225902   8.498   3.163   2.105
 8554WAT      O25903   0.771   6.096   6.577
 8554WAT     H125904   0.790   6.007   6.536
 8554WAT     H225905   0.685   6.092   6.628
 8555WAT      O25906   6.023   5.608   9.408
 8555WAT     H125907   6.084   5.669   9.459
 8555WAT     H225908   5.943   5.587   9.464
 8556WAT      O25909   3.902   3.618   9.033
 8556WAT     H125910   3.999   3.608   9.010
 8556WAT     H225911   3.863   3.692   8.978
 8557WAT      O25912   9.838   6.933   2.403
 8557WAT     H125913   9.864   6.996   2.330
 8557WAT     H225914   9.918   6.910   2.458
 8558WAT      O25915   0.090   9.698   4.869
 8558WAT     H125916  -0.010   9.694   4.862
 8558WAT     H225917   0.123   9.615   4.914
 8559WAT      O25918   8.697   4.210   8.055
 8559WAT     H125919   8.665   4.141   8.120
 8559WAT     H225920   8.771   4.170   7.999
 8560WAT      O25921   0.883   5.327   5.178
 8560WAT     H125922   0.905   5.349   5.273
 8560WAT     H225923   0.923   5.239   5.155
 8561WAT      O25924   6.021   6.393   5.440
 8561WAT     H125925   6.111   6.394   5.398
 8561WAT     H225926   5.956   6.347   5.380
 8562WAT      O25927   1.155   4.163   2.711
 8562WAT     H125928   1.245   4.200   2.687
 8562WAT     H225929   1.166   4.093   2.782
 8563WAT      O25930   4.522   3.685   6.791
 8563WAT     H125931   4.535   3.748   6.867
 8563WAT     H225932   4.483   3.735   6.713
 8564WAT      O25933   0.817   7.999   5.952
 8564WAT     H125934   0.775   8.009   6.042
 8564WAT     H225935   0.889   8.068   5.941
 8565WAT      O25936   0.140   0.761   7.529
 8565WAT     H125937   0.091   0.711   7.600
 8565WAT     H225938   0.075   0.796   7.462
 8566WAT      O25939   8.725   3.603   5.186
 8566WAT     H125940   8.691   3.656   5.109
 8566WAT     H225941   8.651   3.582   5.249
 8567WAT      O25942   0.059   6.304   6.474
 8567WAT     H125943  -0.029   6.326   6.516
 8567WAT     H225944   0.121   6.381   6.486
 8568WAT      O25945   1.323   7.394   3.102
 8568WAT     H125946   1.300   7.478   3.052
 8568WAT     H225947   1.363   7.327   3.039
 8569WAT      O25948   8.480   3.441   9.251
 8569WAT     H125949   8.543   3.374   9.212
 8569WAT     H225950   8.396   3.443   9.197
 8570WAT      O25951   3.793   3.640   2.993
 8570WAT     H125952   3.855   3.612   3.067
 8570WAT     H225953   3.709   3.587   2.998
 8571WAT      O25954   4.148   8.039   6.627
 8571WAT     H125955   4.198   7.961   6.589
 8571WAT     H225956   4.213   8.112   6.650
 8572WAT      O25957   9.181   0.080   7.840
 8572WAT     H125958   9.271   0.119   7.819
 8572WAT     H225959   9.121   0.152   7.874
 8573WAT      O25960   9.029   5.169   8.777
 8573WAT     H125961   9.067   5.260   8.794
 8573WAT     H225962   9.037   5.114   8.860
 8574WAT      O25963   1.311   8.718   2.402
 8574WAT     H125964   1.322   8.621   2.423
 8574WAT     H225965   1.374   8.744   2.329
 8575WAT      O25966   0.483   3.090   6.069
 8575WAT     H125967   0.571   3.118   6.030
 8575WAT     H225968   0.476   3.123   6.163
 8576WAT      O25969   4.711   5.619   4.572
 8576WAT     H125970   4.785   5.579   4.519
 8576WAT     H225971   4.659   5.547   4.618
 8577WAT      O25972   7.121   2.418   9.350
 8577WAT     H125973   7.174   2.466   9.420
 8577WAT     H225974   7.049   2.479   9.315
 8578WAT      O25975   0.518   3.373   0.340
 8578WAT     H125976   0.561   3.350   0.427
 8578WAT     H225977   0.447   3.306   0.319
 8579WAT      O25978   1.656   7.982   3.609
 8579WAT     H125979   1.709   7.909   3.653
 8579WAT     H225980   1.613   7.947   3.526
 8580WAT      O25981   5.260   9.654   9.087
 8580WAT     H125982   5.187   9.586   9.096
 8580WAT     H225983   5.315   9.635   9.006
 8581WAT      O25984   1.762   0.595   8.133
 8581WAT     H125985   1.831   0.590   8.061
 8581WAT     H225986   1.799   0.641   8.213
 8582WAT      O25987   8.112   8.275   7.954
 8582WAT     H125988   8.095   8.301   8.049
 8582WAT     H225989   8.038   8.217   7.922
 8583WAT      O25990   9.185   1.654   4.683
 8583WAT     H125991   9.134   1.648   4.598
 8583WAT     H225992   9.154   1.582   4.746
 8584WAT      O25993   7.237   5.718   2.298
 8584WAT     H125994   7.308   5.708   2.368
 8584WAT     H225995   7.203   5.628   2.272
 8585WAT      O25996   6.148   8.453   5.881
 8585WAT     H125997   6.072   8.415   5.828
 8585WAT     H225998   6.228   8.462   5.822
 8586WAT      O25999   6.541   9.730   7.258
 8586WAT     H126000   6.473   9.698   7.324
 8586WAT     H226001   6.633   9.713   7.295
 8587WAT      O26002   5.357   1.957   4.573
 8587WAT     H126003   5.315   1.942   4.484
 8587WAT     H226004   5.364   1.870   4.622
 8588WAT      O26005   6.164   1.984   1.525
 8588WAT     H126006   6.178   2.069   1.577
 8588WAT     H226007   6.074   1.946   1.549
 8589WAT      O26008   4.403   6.684   2.390
 8589WAT     H126009   4.390   6.616   2.462
 8589WAT     H226010   4.320   6.689   2.334
 8590WAT      O26011   2.124   0.613   3.651
 8590WAT     H126012   2.113   0.530   3.706
 8590WAT     H226013   2.193   0.672   3.693
 8591WAT      O26014   0.334   0.856   4.687
 8591WAT     H126015   0.336   0.756   4.689
 8591WAT     H226016   0.270   0.890   4.756
 8592WAT      O26017   4.299   3.281   1.164
 8592WAT     H126018   4.323   3.253   1.257
 8592WAT     H226019   4.214   3.334   1.166
 8593WAT      O26020   3.863   7.791   0.517
 8593WAT     H126021   3.917   7.843   0.583
 8593WAT     H226022   3.901   7.699   0.508
 8594WAT      O26023   3.366   7.992   0.935
 8594WAT     H126024   3.291   8.002   1.000
 8594WAT     H226025   3.343   7.921   0.868
 8595WAT      O26026   5.993   0.793   4.858
 8595WAT     H126027   5.925   0.740   4.808
 8595WAT     H226028   6.015   0.876   4.806
 8596WAT      O26029   2.846   7.229   3.369
 8596WAT     H126030   2.800   7.293   3.307
 8596WAT     H226031   2.801   7.231   3.458
 8597WAT      O26032   6.993   1.356   3.613
 8597WAT     H126033   7.021   1.447   3.583
 8597WAT     H226034   7.023   1.288   3.546
 8598WAT      O26035   0.358   2.565   2.000
 8598WAT     H126036   0.455   2.586   2.016
 8598WAT     H226037   0.351   2.474   1.958
 8599WAT      O26038   1.291   8.539   7.420
 8599WAT     H126039   1.273   8.479   7.498
 8599WAT     H226040   1.250   8.629   7.436
 8600WAT      O26041   2.980   2.170   3.098
 8600WAT     H126042   3.066   2.119   3.106
 8600WAT     H226043   3.001   2.267   3.086
 8601WAT      O26044   6.428   3.948   1.121
 8601WAT     H126045   6.406   4.011   1.195
 8601WAT     H226046   6.378   3.974   1.038
 8602WAT      O26047   6.715   0.930   6.817
 8602WAT     H126048   6.621   0.905   6.794
 8602WAT     H226049   6.777   0.896   6.747
 8603WAT      O26050   0.766   9.291   8.242
 8603WAT     H126051   0.831   9.327   8.174
 8603WAT     H226052   0.679   9.339   8.234
 8604WAT      O26053   0.401   3.901   4.480
 8604WAT     H126054   0.402   3.868   4.574
 8604WAT     H226055   0.348   3.986   4.475
 8605WAT      O26056   9.206   5.348   1.352
 8605WAT     H126057   9.242   5.440   1.369
 8605WAT     H226058   9.219   5.292   1.433
 8606WAT      O26059   7.117   9.443   9.710
 8606WAT     H126060   7.067   9.523   9.678
 8606WAT     H226061   7.215   9.458   9.700
 8607WAT      O26062   4.866   9.562   4.482
 8607WAT     H126063   4.957   9.527   4.463
 8607WAT     H226064   4.851   9.647   4.431
 8608WAT      O26065   5.230   9.076   1.043
 8608WAT     H126066   5.236   8.984   1.003
 8608WAT     H226067   5.278   9.141   0.984
 8609WAT      O26068   0.480   5.720   2.700
 8609WAT     H126069   0.556   5.746   2.759
 8609WAT     H226070   0.442   5.802   2.656
 8610WAT      O26071   5.494   8.117   0.829
 8610WAT     H126072   5.412   8.065   0.805
 8610WAT     H226073   5.560   8.111   0.755
 8611WAT      O26074   7.452   0.959   5.919
 8611WAT     H126075   7.409   0.875   5.885
 8611WAT     H226076   7.448   1.029   5.848
 8612WAT      O26077   1.809  -0.002   3.813
 8612WAT     H126078   1.783   0.084   3.768
 8612WAT     H226079   1.775  -0.002   3.907
 8613WAT      O26080   7.312   7.736   2.931
 8613WAT     H126081   7.406   7.721   2.900
 8613WAT     H226082   7.312   7.794   3.012
 8614WAT      O26083   3.848   8.646   5.340
 8614WAT     H126084   3.781   8.718   5.325
 8614WAT     H226085   3.940   8.681   5.325
 8615WAT      O26086   3.105   5.502   8.830
 8615WAT     H126087   3.073   5.594   8.855
 8615WAT     H226088   3.123   5.449   8.913
 8616WAT      O26089   1.901   2.888   1.014
 8616WAT     H126090   1.864   2.917   1.102
 8616WAT     H226091   1.920   2.968   0.958
 8617WAT      O26092   4.245   1.999   8.602
 8617WAT     H126093   4.291   1.911   8.587
 8617WAT     H226094   4.169   1.987   8.665
 8618WAT      O26095   5.789   4.164   1.859
 8618WAT     H126096   5.787   4.257   1.823
 8618WAT     H226097   5.798   4.166   1.959
 8619WAT      O26098   2.743   8.217   2.961
 8619WAT     H126099   2.745   8.119   2.978
 8619WAT     H226100   2.664   8.239   2.904
 8620WAT      O26101   2.321   5.335   2.098
 8620WAT     H126102   2.289   5.253   2.050
 8620WAT     H226103   2.414   5.356   2.069
 8621WAT      O26104   3.708   0.331   8.097
 8621WAT     H126105   3.735   0.426   8.114
 8621WAT     H226106   3.781   0.270   8.125
 8622WAT      O26107   7.540   9.678   6.332
 8622WAT     H126108   7.472   9.746   6.305
 8622WAT     H226109   7.559   9.617   6.255
 8623WAT      O26110   2.226   5.478   0.105
 8623WAT     H126111   2.308   5.535   0.102
 8623WAT     H226112   2.146   5.532   0.081
 8624WAT      O26113   8.672   1.544   7.311
 8624WAT     H126114   8.645   1.529   7.216
 8624WAT     H226115   8.772   1.554   7.317
 8625WAT      O26116   0.549   6.179   4.420
 8625WAT     H126117   0.465   6.125   4.426
 8625WAT     H226118   0.558   6.216   4.327
 8626WAT      O26119   3.562   5.273   3.625
 8626WAT     H126120   3.524   5.270   3.532
 8626WAT     H226121   3.498   5.230   3.689
 8627WAT      O26122   6.419   2.950   9.757
 8627WAT     H126123   6.508   2.995   9.750
 8627WAT     H226124   6.352   2.998   9.701
 8628WAT      O26125   7.287   9.741   8.128
 8628WAT     H126126   7.300   9.800   8.048
 8628WAT     H226127   7.246   9.793   8.202
 8629WAT      O26128   2.201   5.671   8.098
 8629WAT     H126129   2.193   5.593   8.160
 8629WAT     H226130   2.269   5.651   8.027
 8630WAT      O26131   5.849   6.000   4.478
 8630WAT     H126132   5.830   5.958   4.567
 8630WAT     H226133   5.948   6.015   4.469
 8631WAT      O26134   9.128   3.053   1.994
 8631WAT     H126135   9.181   2.987   1.941
 8631WAT     H226136   9.052   3.087   1.938
 8632WAT      O26137   8.137   8.955   7.060
 8632WAT     H126138   8.107   8.886   7.126
 8632WAT     H226139   8.074   9.032   7.060
 8633WAT      O26140   7.429   0.471   9.221
 8633WAT     H126141   7.446   0.459   9.319
 8633WAT     H226142   7.457   0.389   9.172
 8634WAT      O26143   0.276   6.138   6.167
 8634WAT     H126144   0.348   6.194   6.208
 8634WAT     H226145   0.317   6.062   6.116
 8635WAT      O26146   7.695   9.305   7.760
 8635WAT     H126147   7.656   9.259   7.840
 8635WAT     H226148   7.772   9.251   7.725
 8636WAT      O26149   0.742   7.807   7.193
 8636WAT     H126150   0.701   7.767   7.111
 8636WAT     H226151   0.833   7.841   7.170
 8637WAT      O26152   1.033   5.081   9.431
 8637WAT     H126153   0.971   5.043   9.362
 8637WAT     H226154   1.041   5.180   9.417
 8638WAT      O26155   8.630   4.382   9.215
 8638WAT     H126156   8.662   4.472   9.246
 8638WAT     H226157   8.647   4.314   9.287
 8639WAT      O26158   0.941   0.804   9.232
 8639WAT     H126159   0.977   0.718   9.269
 8639WAT     H226160   0.964   0.879   9.294
 8640WAT      O26161   7.701   4.839   7.679
 8640WAT     H126162   7.653   4.759   7.716
 8640WAT     H226163   7.700   4.835   7.579
 8641WAT      O26164   3.212   1.284   4.696
 8641WAT     H126165   3.146   1.240   4.636
 8641WAT     H226166   3.256   1.360   4.649
 8642WAT      O26167   2.094   7.627   0.888
 8642WAT     H126168   2.102   7.562   0.963
 8642WAT     H226169   2.090   7.720   0.924
 8643WAT      O26170   4.055   3.325   2.075
 8643WAT     H126171   4.149   3.313   2.106
 8643WAT     H226172   4.011   3.236   2.066
 8644WAT      O26173   0.244   9.790   1.964
 8644WAT     H126174   0.157   9.821   1.925
 8644WAT     H226175   0.268   9.701   1.927
 8645WAT      O26176   2.304   7.674   0.138
 8645WAT     H126177   2.286   7.628   0.051
 8645WAT     H226178   2.400   7.661   0.163
 8646WAT      O26179   1.121   5.194   8.113
 8646WAT     H126180   1.147   5.208   8.208
 8646WAT     H226181   1.127   5.281   8.063
 8647WAT      O26182   1.358   9.183   4.176
 8647WAT     H126183   1.418   9.144   4.106
 8647WAT     H226184   1.263   9.177   4.147
 8648WAT      O26185   6.426   9.090   7.544
 8648WAT     H126186   6.436   8.997   7.509
 8648WAT     H226187   6.338   9.099   7.590
 8649WAT      O26188   6.130   0.606   5.033
 8649WAT     H126189   6.058   0.579   5.096
 8649WAT     H226190   6.094   0.674   4.968
 8650WAT      O26191   9.250   2.141   2.129
 8650WAT     H126192   9.237   2.147   2.030
 8650WAT     H226193   9.341   2.176   2.153
 8651WAT      O26194   6.771   4.065   7.922
 8651WAT     H126195   6.782   4.140   7.857
 8651WAT     H226196   6.678   4.067   7.959
 8652WAT      O26197   6.529   4.567   2.472
 8652WAT     H126198   6.462   4.594   2.403
 8652WAT     H226199   6.557   4.648   2.524
 8653WAT      O26200   8.969   6.307   3.140
 8653WAT     H126201   8.906   6.298   3.063
 8653WAT     H226202   8.932   6.372   3.207
 8654WAT      O26203   6.698   7.905   1.866
 8654WAT     H126204   6.759   7.838   1.910
 8654WAT     H226205   6.603   7.880   1.885
 8655WAT      O26206   4.855   9.127   9.114
 8655WAT     H126207   4.872   9.220   9.082
 8655WAT     H226208   4.835   9.129   9.212
 8656WAT      O26209   3.807   9.602   0.627
 8656WAT     H126210   3.709   9.599   0.609
 8656WAT     H226211   3.837   9.514   0.665
 8657WAT      O26212   6.812   6.570   1.283
 8657WAT     H126213   6.894   6.547   1.230
 8657WAT     H226214   6.839   6.616   1.368
 8658WAT      O26215   1.350   5.589   0.615
 8658WAT     H126216   1.364   5.681   0.652
 8658WAT     H226217   1.253   5.577   0.593
 8659WAT      O26218   1.900   6.875   8.316
 8659WAT     H126219   1.811   6.845   8.348
 8659WAT     H226220   1.970   6.810   8.345
 8660WAT      O26221   0.500   3.529   1.046
 8660WAT     H126222   0.573   3.592   1.018
 8660WAT     H226223   0.440   3.512   0.968
 8661WAT      O26224   8.826   5.823   4.508
 8661WAT     H126225   8.831   5.754   4.436
 8661WAT     H226226   8.780   5.904   4.474
 8662WAT      O26227   0.592   3.051   4.684
 8662WAT     H126228   0.512   3.034   4.625
 8662WAT     H226229   0.639   2.965   4.702
 8663WAT      O26230   1.685   5.702   6.481
 8663WAT     H126231   1.617   5.640   6.521
 8663WAT     H226232   1.654   5.730   6.390
 8664WAT      O26233   8.620   8.635   4.700
 8664WAT     H126234   8.570   8.684   4.629
 8664WAT     H226235   8.698   8.690   4.730
 8665WAT      O26236   3.980   0.223   5.573
 8665WAT     H126237   3.989   0.291   5.501
 8665WAT     H226238   3.920   0.258   5.645
 8666WAT      O26239   8.469   0.447   2.954
 8666WAT     H126240   8.479   0.376   2.884
 8666WAT     H226241   8.544   0.513   2.946
 8667WAT      O26242   1.540   5.339   0.093
 8667WAT     H126243   1.518   5.351  -0.004
 8667WAT     H226244   1.481   5.398   0.148
 8668WAT      O26245   0.942   1.486   5.015
 8668WAT     H126246   0.989   1.425   5.079
 8668WAT     H226247   0.972   1.465   4.922
 8669WAT      O26248   2.027   6.271   2.432
 8669WAT     H126249   2.061   6.190   2.383
 8669WAT     H226250   1.974   6.328   2.370
 8670WAT      O26251   7.147   1.711   5.143
 8670WAT     H126252   7.104   1.759   5.220
 8670WAT     H226253   7.088   1.634   5.116
 8671WAT      O26254   1.273   1.787   6.692
 8671WAT     H126255   1.194   1.777   6.631
 8671WAT     H226256   1.261   1.869   6.748
 8672WAT      O26257   8.470   8.649   2.557
 8672WAT     H126258   8.481   8.591   2.476
 8672WAT     H226259   8.375   8.645   2.588
 8673WAT      O26260   2.106   4.769   3.488
 8673WAT     H126261   2.190   4.731   3.527
 8673WAT     H226262   2.063   4.831   3.554
 8674WAT      O26263   1.623   3.017   6.460
 8674WAT     H126264   1.699   3.040   6.399
 8674WAT     H226265   1.538   3.053   6.421
 8675WAT      O26266   4.567   6.513   9.501
 8675WAT     H126267   4.579   6.482   9.407
 8675WAT     H226268   4.596   6.441   9.564
 8676WAT      O26269   7.366   0.680   8.820
 8676WAT     H126270   7.348   0.725   8.908
 8676WAT     H226271   7.297   0.707   8.754
 8677WAT      O26272   8.345   9.504   1.098
 8677WAT     H126273   8.425   9.563   1.104
 8677WAT     H226274   8.366   9.416   1.141
 8678WAT      O26275   4.491   3.029   1.428
 8678WAT     H126276   4.410   3.086   1.446
 8678WAT     H226277   4.478   2.939   1.469
 8679WAT      O26278   0.711   5.256   3.456
 8679WAT     H126279   0.743   5.346   3.428
 8679WAT     H226280   0.764   5.186   3.407
 8680WAT      O26281   6.453   0.342   0.261
 8680WAT     H126282   6.406   0.290   0.332
 8680WAT     H226283   6.486   0.428   0.299
 8681WAT      O26284   2.576   1.377   5.959
 8681WAT     H126285   2.564   1.473   5.932
 8681WAT     H226286   2.524   1.318   5.897
 8682WAT      O26287   4.154   9.588   4.650
 8682WAT     H126288   4.198   9.524   4.713
 8682WAT     H226289   4.055   9.585   4.663
 8683WAT      O26290   4.428   8.009   2.784
 8683WAT     H126291   4.353   8.074   2.798
 8683WAT     H226292   4.503   8.031   2.846
 8684WAT      O26293   4.875   1.740   2.362
 8684WAT     H126294   4.789   1.727   2.411
 8684WAT     H226295   4.949   1.697   2.412
 8685WAT      O26296   0.858   9.797   5.677
 8685WAT     H126297   0.775   9.748   5.652
 8685WAT     H226298   0.891   9.850   5.599
 8686WAT      O26299   9.830   2.555   3.907
 8686WAT     H126300   9.895   2.491   3.947
 8686WAT     H226301   9.814   2.531   3.811
 8687WAT      O26302   3.372   8.316   6.583
 8687WAT     H126303   3.288   8.368   6.568
 8687WAT     H226304   3.354   8.241   6.646
 8688WAT      O26305   3.065   8.324   6.817
 8688WAT     H126306   3.129   8.264   6.770
 8688WAT     H226307   3.105   8.415   6.827
 8689WAT      O26308   8.251   3.917   3.083
 8689WAT     H126309   8.162   3.885   3.115
 8689WAT     H226310   8.252   3.918   2.983
 8690WAT      O26311   0.682   9.229   7.346
 8690WAT     H126312   0.724   9.167   7.413
 8690WAT     H226313   0.607   9.279   7.390
 8691WAT      O26314   5.842   6.813   1.347
 8691WAT     H126315   5.790   6.849   1.423
 8691WAT     H226316   5.864   6.717   1.364
 8692WAT      O26317   7.291   7.277   0.437
 8692WAT     H126318   7.257   7.221   0.361
 8692WAT     H226319   7.215   7.326   0.480
 8693WAT      O26320   5.298   8.185   8.591
 8693WAT     H126321   5.390   8.187   8.630
 8693WAT     H226322   5.300   8.142   8.501
 8694WAT      O26323   6.210   5.685   2.074
 8694WAT     H126324   6.189   5.668   2.170
 8694WAT     H226325   6.129   5.665   2.019
 8695WAT      O26326   3.826   3.355   7.850
 8695WAT     H126327   3.867   3.446   7.838
 8695WAT     H226328   3.802   3.318   7.760
 8696WAT      O26329   2.792   9.265   7.812
 8696WAT     H126330   2.712   9.291   7.758
 8696WAT     H226331   2.832   9.181   7.776
 8697WAT      O26332   0.449   2.815   2.566
 8697WAT     H126333   0.385   2.849   2.496
 8697WAT     H226334   0.461   2.885   2.637
 8698WAT      O26335   3.053   3.356   3.159
 8698WAT     H126336   2.986   3.354   3.233
 8698WAT     H226337   3.057   3.267   3.115
 8699WAT      O26338   3.041   1.503   2.772
 8699WAT     H126339   3.137   1.530   2.767
 8699WAT     H226340   3.013   1.465   2.683
 8700WAT      O26341   0.534   4.635   5.056
 8700WAT     H126342   0.492   4.670   4.972
 8700WAT     H226343   0.467   4.638   5.130
 8701WAT      O26344   9.870   9.330   1.955
 8701WAT     H126345   9.927   9.282   2.022
 8701WAT     H226346   9.784   9.280   1.944
 8702WAT      O26347   5.639   3.997   9.790
 8702WAT     H126348   5.657   4.081   9.841
 8702WAT     H226349   5.559   3.952   9.829
 8703WAT      O26350   4.061   2.699   6.426
 8703WAT     H126351   4.029   2.783   6.382
 8703WAT     H226352   4.034   2.700   6.523
 8704WAT      O26353   0.517   6.623   2.150
 8704WAT     H126354   0.480   6.544   2.102
 8704WAT     H226355   0.616   6.614   2.158
 8705WAT      O26356   4.861   0.143   4.934
 8705WAT     H126357   4.829   0.231   4.899
 8705WAT     H226358   4.958   0.150   4.957
 8706WAT      O26359   8.472   3.150   8.093
 8706WAT     H126360   8.468   3.121   8.189
 8706WAT     H226361   8.454   3.072   8.034
 8707WAT      O26362   3.318   9.777   5.521
 8707WAT     H126363   3.414   9.789   5.546
 8707WAT     H226364   3.313   9.742   5.428
 8708WAT      O26365   6.080   3.688   6.520
 8708WAT     H126366   6.046   3.651   6.434
 8708WAT     H226367   6.180   3.692   6.517
 8709WAT      O26368   7.259   4.309   4.867
 8709WAT     H126369   7.285   4.213   4.857
 8709WAT     H226370   7.160   4.317   4.870
 8710WAT      O26371   6.869   7.276   4.655
 8710WAT     H126372   6.956   7.232   4.679
 8710WAT     H226373   6.806   7.270   4.733
 8711WAT      O26374   1.784   0.301   3.349
 8711WAT     H126375   1.815   0.321   3.256
 8711WAT     H226376   1.703   0.242   3.346
 8712WAT      O26377   3.518   8.037   5.311
 8712WAT     H126378   3.576   8.086   5.376
 8712WAT     H226379   3.573   7.972   5.260
 8713WAT      O26380   1.393   2.748   1.396
 8713WAT     H126381   1.372   2.842   1.368
 8713WAT     H226382   1.320   2.687   1.367
 8714WAT      O26383   1.392   8.067   2.533
 8714WAT     H126384   1.436   7.987   2.494
 8714WAT     H226385   1.447   8.102   2.609
 8715WAT      O26386   2.093   0.718   2.942
 8715WAT     H126387   2.064   0.636   2.892
 8715WAT     H226388   2.181   0.749   2.906
 8716WAT      O26389   3.162   5.985   9.250
 8716WAT     H126390   3.219   5.942   9.320
 8716WAT     H226391   3.068   5.952   9.259
 8717WAT      O26392   0.191   3.913   5.205
 8717WAT     H126393   0.115   3.849   5.214
 8717WAT     H226394   0.177   3.970   5.123
 8718WAT      O26395   0.760   0.630   7.160
 8718WAT     H126396   0.784   0.692   7.235
 8718WAT     H226397   0.802   0.541   7.177
 8719WAT      O26398   5.260   9.047   7.132
 8719WAT     H126399   5.266   9.146   7.118
 8719WAT     H226400   5.186   9.028   7.196
 8720WAT      O26401   8.530   7.459   0.155
 8720WAT     H126402   8.440   7.502   0.159
 8720WAT     H226403   8.586   7.506   0.087
 8721WAT      O26404   9.480   2.774   9.210
 8721WAT     H126405   9.390   2.732   9.202
 8721WAT     H226406   9.532   2.727   9.282
 8722WAT      O26407   2.210   0.432   1.516
 8722WAT     H126408   2.262   0.354   1.551
 8722WAT     H226409   2.132   0.450   1.575
 8723WAT      O26410   4.501   0.539   0.091
 8723WAT     H126411   4.452   0.468   0.142
 8723WAT     H226412   4.558   0.592   0.154
 8724WAT      O26413   2.491   4.377   8.632
 8724WAT     H126414   2.458   4.328   8.713
 8724WAT     H226415   2.422   4.445   8.605
 8725WAT      O26416   1.671   8.391   9.614
 8725WAT     H126417   1.743   8.322   9.625
 8725WAT     H226418   1.710   8.474   9.576
 8726WAT      O26419   6.598   7.048   7.046
 8726WAT     H126420   6.533   7.088   6.981
 8726WAT     H226421   6.643   6.969   7.004
 8727WAT      O26422   8.527   7.709   5.451
 8727WAT     H126423   8.472   7.743   5.374
 8727WAT     H226424   8.494   7.751   5.536
 8728WAT      O26425   8.027   2.423   6.482
 8728WAT     H126426   7.942   2.375   6.463
 8728WAT     H226427   8.058   2.401   6.575
 8729WAT      O26428   9.375   7.671   1.682
 8729WAT     H126429   9.423   7.704   1.763
 8729WAT     H226430   9.279   7.697   1.686
 8730WAT      O26431   7.214   1.592   0.949
 8730WAT     H126432   7.285   1.597   0.879
 8730WAT     H226433   7.255   1.607   1.039
 8731WAT      O26434   9.688   8.612   9.857
 8731WAT     H126435   9.738   8.652   9.780
 8731WAT     H226436   9.632   8.536   9.824
 8732WAT      O26437   6.574   1.892   2.205
 8732WAT     H126438   6.648   1.949   2.169
 8732WAT     H226439   6.498   1.951   2.233
 8733WAT      O26440   0.504   5.312   0.870
 8733WAT     H126441   0.434   5.377   0.840
 8733WAT     H226442   0.581   5.363   0.908
 8734WAT      O26443   7.930   2.842   3.759
 8734WAT     H126444   7.951   2.752   3.797
 8734WAT     H226445   8.000   2.908   3.789
 8735WAT      O26446   8.735   4.977   3.697
 8735WAT     H126447   8.789   4.908   3.746
 8735WAT     H226448   8.766   4.982   3.602
 8736WAT      O26449   1.506   5.313   1.993
 8736WAT     H126450   1.526   5.379   2.066
 8736WAT     H226451   1.454   5.237   2.031
 8737WAT      O26452   5.954   8.046   4.509
 8737WAT     H126453   6.045   8.004   4.506
 8737WAT     H226454   5.892   7.985   4.560
 8738WAT      O26455   9.483   1.187   5.362
 8738WAT     H126456   9.514   1.270   5.315
 8738WAT     H226457   9.556   1.119   5.359
 8739WAT      O26458   0.786   2.189   0.260
 8739WAT     H126459   0.777   2.230   0.170
 8739WAT     H226460   0.805   2.091   0.251
 8740WAT      O26461   1.971   3.508   5.562
 8740WAT     H126462   1.970   3.415   5.526
 8740WAT     H226463   2.026   3.566   5.503
 8741WAT      O26464   4.914   7.294   6.940
 8741WAT     H126465   4.857   7.235   6.999
 8741WAT     H226466   4.881   7.388   6.945
 8742WAT      O26467   3.901   6.090   2.533
 8742WAT     H126468   3.966   6.038   2.588
 8742WAT     H226469   3.828   6.124   2.593
 8743WAT      O26470   4.218   0.983   6.601
 8743WAT     H126471   4.310   1.024   6.607
 8743WAT     H226472   4.158   1.044   6.549
 8744WAT      O26473   9.477   3.742   6.038
 8744WAT     H126474   9.525   3.751   5.950
 8744WAT     H226475   9.402   3.677   6.028
 8745WAT      O26476   9.122   7.677   3.500
 8745WAT     H126477   9.047   7.690   3.435
 8745WAT     H226478   9.096   7.608   3.567
 8746WAT      O26479   6.544   0.889   7.274
 8746WAT     H126480   6.445   0.885   7.279
 8746WAT     H226481   6.571   0.945   7.196
 8747WAT      O26482   8.813   2.120   0.214
 8747WAT     H126483   8.735   2.119   0.151
 8747WAT     H226484   8.827   2.214   0.246
 8748WAT      O26485   4.289   5.713   8.146
 8748WAT     H126486   4.213   5.755   8.197
 8748WAT     H226487   4.265   5.708   8.049
 8749WAT      O26488   6.248   8.717   4.282
 8749WAT     H126489   6.240   8.726   4.382
 8749WAT     H226490   6.157   8.723   4.241
 8750WAT      O26491   2.953   9.104   1.440
 8750WAT     H126492   2.962   9.157   1.524
 8750WAT     H226493   2.902   9.020   1.459
 8751WAT      O26494   6.036   2.347   0.514
 8751WAT     H126495   5.973   2.316   0.443
 8751WAT     H226496   6.107   2.277   0.529
 8752WAT      O26497   1.551   1.650   8.817
 8752WAT     H126498   1.526   1.709   8.893
 8752WAT     H226499   1.468   1.617   8.771
 8753WAT      O26500   5.482   1.999   9.601
 8753WAT     H126501   5.441   1.909   9.584
 8753WAT     H226502   5.435   2.068   9.545
 8754WAT      O26503   9.750   5.186   7.309
 8754WAT     H126504   9.830   5.128   7.298
 8754WAT     H226505   9.714   5.212   7.220
 8755WAT      O26506   7.632   5.386   2.859
 8755WAT     H126507   7.567   5.319   2.896
 8755WAT     H226508   7.684   5.344   2.784
 8756WAT      O26509   5.678   8.701   2.036
 8756WAT     H126510   5.652   8.687   2.132
 8756WAT     H226511   5.769   8.662   2.020
 8757WAT      O26512   2.685   1.389   5.487
 8757WAT     H126513   2.766   1.337   5.461
 8757WAT     H226514   2.627   1.403   5.406
 8758WAT      O26515   8.209   0.086   7.149
 8758WAT     H126516   8.186   0.164   7.208
 8758WAT     H226517   8.268   0.022   7.199
 8759WAT      O26518   7.976   2.638   1.262
 8759WAT     H126519   8.072   2.614   1.249
 8759WAT     H226520   7.922   2.555   1.280
 8760WAT      O26521   0.546   4.163   5.440
 8760WAT     H126522   0.460   4.121   5.410
 8760WAT     H226523   0.571   4.237   5.378
 8761WAT      O26524   3.659   5.581   1.110
 8761WAT     H126525   3.559   5.576   1.115
 8761WAT     H226526   3.685   5.645   1.037
 8762WAT      O26527   6.751   7.735   0.305
 8762WAT     H126528   6.734   7.798   0.230
 8762WAT     H226529   6.803   7.657   0.271
 8763WAT      O26530   7.842   9.262   4.772
 8763WAT     H126531   7.751   9.237   4.805
 8763WAT     H226532   7.849   9.243   4.674
 8764WAT      O26533   3.830   6.501   0.758
 8764WAT     H126534   3.878   6.588   0.768
 8764WAT     H226535   3.764   6.507   0.683
 8765WAT      O26536   5.095   0.996   0.456
 8765WAT     H126537   5.109   0.955   0.366
 8765WAT     H226538   5.000   1.026   0.464
 8766WAT      O26539   6.880   1.314   7.823
 8766WAT     H126540   6.917   1.256   7.895
 8766WAT     H226541   6.841   1.397   7.863
 8767WAT      O26542   3.832   8.780   8.613
 8767WAT     H126543   3.883   8.829   8.684
 8767WAT     H226544   3.841   8.682   8.628
 8768WAT      O26545   6.777   4.662   0.810
 8768WAT     H126546   6.858   4.698   0.763
 8768WAT     H226547   6.696   4.710   0.777
 8769WAT      O26548   1.006   4.385   0.446
 8769WAT     H126549   1.016   4.340   0.357
 8769WAT     H226550   0.913   4.374   0.479
 8770WAT      O26551   3.422   0.226   2.561
 8770WAT     H126552   3.405   0.144   2.506
 8770WAT     H226553   3.379   0.215   2.651
 8771WAT      O26554   1.577   7.049   0.014
 8771WAT     H126555   1.482   7.060   0.043
 8771WAT     H226556   1.600   6.952   0.013
 8772WAT      O26557   5.007   4.066   8.027
 8772WAT     H126558   4.914   4.049   7.996
 8772WAT     H226559   5.005   4.095   8.123
 8773WAT      O26560   3.333   2.833   9.630
 8773WAT     H126561   3.347   2.843   9.729
 8773WAT     H226562   3.353   2.738   9.604
 8774WAT      O26563   3.950   8.620   3.770
 8774WAT     H126564   3.979   8.525   3.776
 8774WAT     H226565   3.867   8.633   3.824
 8775WAT      O26566   1.149   3.754   4.890
 8775WAT     H126567   1.119   3.726   4.981
 8775WAT     H226568   1.082   3.723   4.823
 8776WAT      O26569   3.682   6.212   3.723
 8776WAT     H126570   3.620   6.145   3.764
 8776WAT     H226571   3.629   6.276   3.667
 8777WAT      O26572   9.731   2.015   1.328
 8777WAT     H126573   9.687   1.976   1.409
 8777WAT     H226574   9.724   2.115   1.331
 8778WAT      O26575   7.423   8.359   7.559
 8778WAT     H126576   7.514   8.329   7.532
 8778WAT     H226577   7.430   8.436   7.622
 8779WAT      O26578   3.358   8.506   3.302
 8779WAT     H126579   3.352   8.584   3.364
 8779WAT     H226580   3.364   8.421   3.355
 8780WAT      O26581   6.486   1.327   5.801
 8780WAT     H126582   6.523   1.234   5.810
 8780WAT     H226583   6.466   1.345   5.705
 8781WAT      O26584   7.313   2.395   6.832
 8781WAT     H126585   7.388   2.444   6.788
 8781WAT     H226586   7.326   2.297   6.820
 8782WAT      O26587   1.714   7.517   2.302
 8782WAT     H126588   1.779   7.582   2.340
 8782WAT     H226589   1.672   7.464   2.376
 8783WAT      O26590   6.757   6.582   9.549
 8783WAT     H126591   6.854   6.560   9.547
 8783WAT     H226592   6.705   6.501   9.576
 8784WAT      O26593   4.027   6.587   8.616
 8784WAT     H126594   4.055   6.683   8.606
 8784WAT     H226595   4.103   6.528   8.588
 8785WAT      O26596   1.695   2.675   5.217
 8785WAT     H126597   1.645   2.745   5.166
 8785WAT     H226598   1.632   2.628   5.278
 8786WAT      O26599   4.500   2.143   7.995
 8786WAT     H126600   4.424   2.151   8.060
 8786WAT     H226601   4.502   2.224   7.936
 8787WAT      O26602   3.028   2.860   6.294
 8787WAT     H126603   2.933   2.867   6.326
 8787WAT     H226604   3.083   2.930   6.339
 8788WAT      O26605   5.792   2.566   5.813
 8788WAT     H126606   5.733   2.489   5.788
 8788WAT     H226607   5.856   2.584   5.739
 8789WAT      O26608   3.730   8.569   9.180
 8789WAT     H126609   3.777   8.618   9.254
 8789WAT     H226610   3.650   8.522   9.217
 8790WAT      O26611   7.897   3.402   9.845
 8790WAT     H126612   7.825   3.397   9.775
 8790WAT     H226613   7.866   3.460   9.920
 8791WAT      O26614   9.810   3.726   6.539
 8791WAT     H126615   9.879   3.763   6.477
 8791WAT     H226616   9.837   3.635   6.569
 8792WAT      O26617   6.843   5.695   2.863
 8792WAT     H126618   6.842   5.619   2.798
 8792WAT     H226619   6.791   5.771   2.826
 8793WAT      O26620   1.900   0.114   7.439
 8793WAT     H126621   1.948   0.073   7.362
 8793WAT     H226622   1.803   0.094   7.433
 8794WAT      O26623   4.452   1.513   6.313
 8794WAT     H126624   4.499   1.431   6.280
 8794WAT     H226625   4.363   1.522   6.268
 8795WAT      O26626   5.002   5.786   4.105
 8795WAT     H126627   4.978   5.694   4.135
 8795WAT     H226628   5.017   5.785   4.006
 8796WAT      O26629   1.807   3.858   3.766
 8796WAT     H126630   1.709   3.854   3.784
 8796WAT     H226631   1.856   3.815   3.842
 8797WAT      O26632   8.390   8.271   0.777
 8797WAT     H126633   8.425   8.324   0.700
 8797WAT     H226634   8.460   8.206   0.807
 8798WAT      O26635   1.796   9.167   2.184
 8798WAT     H126636   1.763   9.081   2.146
 8798WAT     H226637   1.742   9.243   2.147
 8799WAT      O26638   8.045   0.421   4.231
 8799WAT     H126639   8.128   0.366   4.230
 8799WAT     H226640   8.058   0.500   4.292
 8800WAT      O26641   7.498   5.462   5.932
 8800WAT     H126642   7.563   5.389   5.956
 8800WAT     H226643   7.512   5.540   5.992
 8801WAT      O26644   9.301   3.471   7.957
 8801WAT     H126645   9.294   3.443   8.053
 8801WAT     H226646   9.365   3.547   7.949
 8802WAT      O26647   1.796   4.455   5.932
 8802WAT     H126648   1.835   4.444   5.840
 8802WAT     H226649   1.869   4.456   5.999
 8803WAT      O26650   4.825   9.011   6.389
 8803WAT     H126651   4.779   9.092   6.425
 8803WAT     H226652   4.764   8.964   6.325
 8804WAT      O26653   8.724   9.348   8.493
 8804WAT     H126654   8.756   9.389   8.579
 8804WAT     H226655   8.778   9.385   8.417
 8805WAT      O26656   7.790   2.746   6.108
 8805WAT     H126657   7.714   2.810   6.098
 8805WAT     H226658   7.834   2.732   6.020
 8806WAT      O26659   0.217   8.826   1.526
 8806WAT     H126660   0.295   8.775   1.490
 8806WAT     H226661   0.193   8.790   1.616
 8807WAT      O26662   6.410   3.418   2.518
 8807WAT     H126663   6.507   3.402   2.503
 8807WAT     H226664   6.365   3.436   2.431
 8808WAT      O26665   6.356   4.447   8.631
 8808WAT     H126666   6.377   4.540   8.662
 8808WAT     H226667   6.373   4.382   8.705
 8809WAT      O26668   3.592   6.095   1.159
 8809WAT     H126669   3.563   6.149   1.237
 8809WAT     H226670   3.547   6.005   1.162
 8810WAT      O26671   7.320   0.909   2.615
 8810WAT     H126672   7.372   0.824   2.621
 8810WAT     H226673   7.348   0.970   2.689
 8811WAT      O26674   1.410   5.961   5.850
 8811WAT     H126675   1.330   5.984   5.905
 8811WAT     H226676   1.413   5.862   5.835
 8812WAT      O26677   2.132   2.181   1.710
 8812WAT     H126678   2.180   2.109   1.661
 8812WAT     H226679   2.035   2.157   1.718
 8813WAT      O26680   8.677   0.391   0.417
 8813WAT     H126681   8.647   0.407   0.511
 8813WAT     H226682   8.597   0.378   0.358
 8814WAT      O26683   2.861   5.457   2.884
 8814WAT     H126684   2.817   5.369   2.867
 8814WAT     H226685   2.846   5.484   2.979
 8815WAT      O26686   3.018   6.242   1.195
 8815WAT     H126687   3.076   6.187   1.135
 8815WAT     H226688   2.935   6.190   1.217
 8816WAT      O26689   0.875   0.400   7.271
 8816WAT     H126690   0.850   0.454   7.351
 8816WAT     H226691   0.974   0.400   7.260
 8817WAT      O26692   2.916   3.475   1.512
 8817WAT     H126693   2.936   3.482   1.610
 8817WAT     H226694   2.985   3.527   1.461
 8818WAT      O26695   9.271   8.278   6.345
 8818WAT     H126696   9.219   8.327   6.275
 8818WAT     H226697   9.323   8.343   6.400
 8819WAT      O26698   6.948   5.023   1.627
 8819WAT     H126699   7.004   4.940   1.624
 8819WAT     H226700   7.007   5.103   1.618
 8820WAT      O26701   9.673   2.540   2.668
 8820WAT     H126702   9.725   2.467   2.624
 8820WAT     H226703   9.585   2.551   2.622
 8821WAT      O26704   8.654   9.726   7.866
 8821WAT     H126705   8.724   9.721   7.937
 8821WAT     H226706   8.574   9.774   7.901
 8822WAT      O26707   8.613   1.670   4.988
 8822WAT     H126708   8.708   1.678   4.959
 8822WAT     H226709   8.579   1.760   5.018
 8823WAT      O26710   0.737   4.215   3.865
 8823WAT     H126711   0.781   4.177   3.783
 8823WAT     H226712   0.806   4.255   3.925
 8824WAT      O26713   9.422   4.664   6.976
 8824WAT     H126714   9.364   4.717   6.914
 8824WAT     H226715   9.501   4.629   6.925
 8825WAT      O26716   8.026   0.566   2.947
 8825WAT     H126717   7.983   0.534   3.031
 8825WAT     H226718   8.073   0.653   2.964
 8826WAT      O26719   2.758   9.018   6.774
 8826WAT     H126720   2.794   9.110   6.758
 8826WAT     H226721   2.676   9.023   6.831
 8827WAT      O26722   8.991   4.508   7.894
 8827WAT     H126723   9.011   4.498   7.992
 8827WAT     H226724   8.996   4.418   7.850
 8828WAT      O26725   4.800   2.748   6.730
 8828WAT     H126726   4.737   2.809   6.682
 8828WAT     H226727   4.785   2.756   6.829
 8829WAT      O26728   5.004   0.474   7.486
 8829WAT     H126729   5.025   0.452   7.582
 8829WAT     H226730   5.010   0.573   7.473
 8830WAT      O26731   4.845   5.630   6.300
 8830WAT     H126732   4.833   5.533   6.277
 8830WAT     H226733   4.788   5.686   6.240
 8831WAT      O26734   3.542   6.135   2.046
 8831WAT     H126735   3.623   6.173   2.002
 8831WAT     H226736   3.486   6.210   2.082
 8832WAT      O26737   7.736   6.578   8.022
 8832WAT     H126738   7.757   6.657   8.080
 8832WAT     H226739   7.761   6.494   8.069
 8833WAT      O26740   2.258   0.214   0.461
 8833WAT     H126741   2.169   0.197   0.419
 8833WAT     H226742   2.290   0.131   0.507
 8834WAT      O26743   4.872   7.391   4.057
 8834WAT     H126744   4.888   7.375   3.960
 8834WAT     H226745   4.774   7.401   4.073
 8835WAT      O26746   7.496   8.942   4.728
 8835WAT     H126747   7.574   8.940   4.665
 8835WAT     H226748   7.421   8.993   4.686
 8836WAT      O26749   5.539   3.175   9.545
 8836WAT     H126750   5.525   3.259   9.492
 8836WAT     H226751   5.453   3.148   9.587
 8837WAT      O26752   2.166   6.701   8.099
 8837WAT     H126753   2.132   6.701   8.193
 8837WAT     H226754   2.138   6.785   8.054
 8838WAT      O26755   3.062   3.220   1.229
 8838WAT     H126756   3.087   3.255   1.319
 8838WAT     H226757   3.049   3.121   1.234
 8839WAT      O26758   4.213   4.328   9.008
 8839WAT     H126759   4.122   4.304   8.975
 8839WAT     H226760   4.208   4.358   9.103
 8840WAT      O26761   7.100   7.062   5.387
 8840WAT     H126762   7.012   7.052   5.434
 8840WAT     H226763   7.084   7.083   5.290
 8841WAT      O26764   8.296   7.819   4.487
 8841WAT     H126765   8.359   7.892   4.512
 8841WAT     H226766   8.335   7.765   4.413
 8842WAT      O26767   0.421   3.803   9.584
 8842WAT     H126768   0.345   3.813   9.521
 8842WAT     H226769   0.390   3.822   9.677
 8843WAT      O26770   5.786   3.218   1.506
 8843WAT     H126771   5.710   3.207   1.570
 8843WAT     H226772   5.822   3.129   1.482
 8844WAT      O26773   3.239   6.175   3.016
 8844WAT     H126774   3.189   6.214   3.093
 8844WAT     H226775   3.337   6.188   3.030
 8845WAT      O26776   0.526   0.738   1.073
 8845WAT     H126777   0.599   0.758   1.009
 8845WAT     H226778   0.554   0.763   1.166
 8846WAT      O26779   5.961   1.921   3.287
 8846WAT     H126780   5.950   1.838   3.342
 8846WAT     H226781   6.033   1.978   3.327
 8847WAT      O26782   7.142   2.558   8.905
 8847WAT     H126783   7.200   2.637   8.924
 8847WAT     H226784   7.094   2.573   8.819
 8848WAT      O26785   6.734   6.013   4.975
 8848WAT     H126786   6.742   5.969   5.065
 8848WAT     H226787   6.646   6.059   4.969
 8849WAT      O26788   8.798   3.830   3.409
 8849WAT     H126789   8.799   3.899   3.336
 8849WAT     H226790   8.885   3.781   3.409
 8850WAT      O26791   8.625   2.936   5.109
 8850WAT     H126792   8.720   2.949   5.140
 8850WAT     H226793   8.572   3.018   5.131
 8851WAT      O26794   5.948   7.302   4.152
 8851WAT     H126795   5.855   7.335   4.170
 8851WAT     H226796   5.989   7.269   4.237
 8852WAT      O26797   9.878   7.936   0.617
 8852WAT     H126798   9.901   8.026   0.580
 8852WAT     H226799   9.940   7.914   0.692
 8853WAT      O26800   7.271   8.562   1.292
 8853WAT     H126801   7.185   8.561   1.342
 8853WAT     H226802   7.347   8.577   1.355
 8854WAT      O26803   4.455   7.127   7.956
 8854WAT     H126804   4.375   7.164   8.003
 8854WAT     H226805   4.427   7.053   7.895
 8855WAT      O26806   0.454   0.734   1.644
 8855WAT     H126807   0.458   0.720   1.743
 8855WAT     H226808   0.466   0.646   1.598
 8856WAT      O26809   6.003   2.189   6.375
 8856WAT     H126810   6.035   2.276   6.412
 8856WAT     H226811   6.070   2.155   6.309
 8857WAT      O26812   9.772   1.708   7.763
 8857WAT     H126813   9.857   1.699   7.815
 8857WAT     H226814   9.746   1.619   7.726
 8858WAT      O26815   0.217   7.595   0.073
 8858WAT     H126816   0.233   7.554   0.163
 8858WAT     H226817   0.169   7.682   0.084
 8859WAT      O26818   0.008   7.789   7.236
 8859WAT     H126819   0.073   7.716   7.257
 8859WAT     H226820  -0.004   7.795   7.136
 8860WAT      O26821   3.335   7.895   7.876
 8860WAT     H126822   3.404   7.966   7.881
 8860WAT     H226823   3.244   7.937   7.875
 8861WAT      O26824   3.122   3.032   7.867
 8861WAT     H126825   3.193   3.099   7.846
 8861WAT     H226826   3.053   3.073   7.927
 8862WAT      O26827   6.277   6.835   6.893
 8862WAT     H126828   6.277   6.740   6.922
 8862WAT     H226829   6.255   6.841   6.796
 8863WAT      O26830   1.461   6.443   4.721
 8863WAT     H126831   1.470   6.515   4.652
 8863WAT     H226832   1.437   6.357   4.677
 8864WAT      O26833   2.274   7.799   7.608
 8864WAT     H126834   2.320   7.738   7.672
 8864WAT     H226835   2.265   7.754   7.519
 8865WAT      O26836   4.757   4.431   0.719
 8865WAT     H126837   4.805   4.449   0.804
 8865WAT     H226838   4.729   4.518   0.677
 8866WAT      O26839   9.223   3.835   8.691
 8866WAT     H126840   9.253   3.753   8.741
 8866WAT     H226841   9.302   3.882   8.653
 8867WAT      O26842   3.576   5.407   8.981
 8867WAT     H126843   3.524   5.380   9.062
 8867WAT     H226844   3.640   5.479   9.005
 8868WAT      O26845   6.646   1.582   4.972
 8868WAT     H126846   6.557   1.552   5.004
 8868WAT     H226847   6.660   1.552   4.878
 8869WAT      O26848   2.360   8.659   0.869
 8869WAT     H126849   2.353   8.704   0.958
 8869WAT     H226850   2.427   8.586   0.874
 8870WAT      O26851   1.384   8.981   5.943
 8870WAT     H126852   1.371   8.893   5.896
 8870WAT     H226853   1.334   9.052   5.894
 8871WAT      O26854   1.155   7.857   5.078
 8871WAT     H126855   1.168   7.763   5.046
 8871WAT     H226856   1.243   7.905   5.076
 8872WAT      O26857   8.489   5.848   8.973
 8872WAT     H126858   8.542   5.773   8.934
 8872WAT     H226859   8.395   5.817   8.990
 8873WAT      O26860   5.678   2.543   4.540
 8873WAT     H126861   5.592   2.591   4.524
 8873WAT     H226862   5.670   2.449   4.506
 8874WAT      O26863   8.809   0.844   0.299
 8874WAT     H126864   8.794   0.940   0.326
 8874WAT     H226865   8.907   0.826   0.296
 8875WAT      O26866   4.950   5.709   1.647
 8875WAT     H126867   4.906   5.796   1.625
 8875WAT     H226868   4.891   5.633   1.617
 8876WAT      O26869   2.484   9.558   2.926
 8876WAT     H126870   2.385   9.553   2.917
 8876WAT     H226871   2.527   9.516   2.846
 8877WAT      O26872   4.913   3.753   6.161
 8877WAT     H126873   4.904   3.769   6.063
 8877WAT     H226874   4.882   3.661   6.183
 8878WAT      O26875   3.187   2.773   2.114
 8878WAT     H126876   3.164   2.841   2.184
 8878WAT     H226877   3.287   2.767   2.106
 8879WAT      O26878   7.755   7.460   5.007
 8879WAT     H126879   7.733   7.429   5.100
 8879WAT     H226880   7.793   7.385   4.955
 8880WAT      O26881   4.673   3.127   3.611
 8880WAT     H126882   4.612   3.199   3.576
 8880WAT     H226883   4.759   3.169   3.641
 8881WAT      O26884   6.056   5.460   5.501
 8881WAT     H126885   6.095   5.371   5.528
 8881WAT     H226886   5.980   5.444   5.438
 8882WAT      O26887   6.696   6.518   0.044
 8882WAT     H126888   6.642   6.526  -0.040
 8882WAT     H226889   6.657   6.447   0.103
 8883WAT      O26890   9.633   5.113   3.794
 8883WAT     H126891   9.571   5.099   3.717
 8883WAT     H226892   9.583   5.152   3.871
 8884WAT      O26893   0.275   0.255   5.104
 8884WAT     H126894   0.320   0.166   5.109
 8884WAT     H226895   0.229   0.274   5.191
 8885WAT      O26896   9.455   6.906   4.317
 8885WAT     H126897   9.457   6.900   4.416
 8885WAT     H226898   9.521   6.975   4.286
 8886WAT      O26899   4.192   9.322   3.710
 8886WAT     H126900   4.142   9.401   3.745
 8886WAT     H226901   4.246   9.281   3.784
 8887WAT      O26902   2.348   3.188   6.087
 8887WAT     H126903   2.331   3.121   6.015
 8887WAT     H226904   2.435   3.233   6.070
 8888WAT      O26905   1.412   9.582   7.444
 8888WAT     H126906   1.323   9.581   7.398
 8888WAT     H226907   1.419   9.503   7.505
 8889WAT      O26908   4.790   0.224   6.763
 8889WAT     H126909   4.726   0.176   6.703
 8889WAT     H226910   4.793   0.177   6.852
 8890WAT      O26911   7.831   4.910   5.157
 8890WAT     H126912   7.888   4.923   5.238
 8890WAT     H226913   7.837   4.814   5.128
 8891WAT      O26914   2.142   6.292   6.945
 8891WAT     H126915   2.108   6.296   7.039
 8891WAT     H226916   2.186   6.378   6.922
 8892WAT      O26917   3.777   1.019   4.979
 8892WAT     H126918   3.677   1.014   4.975
 8892WAT     H226919   3.815   0.988   4.892
 8893WAT      O26920   3.680   5.323   7.458
 8893WAT     H126921   3.595   5.277   7.482
 8893WAT     H226922   3.661   5.396   7.393
 8894WAT      O26923   1.662   3.964   2.552
 8894WAT     H126924   1.682   3.961   2.650
 8894WAT     H226925   1.729   3.909   2.502
 8895WAT      O26926   4.229   5.674   0.799
 8895WAT     H126927   4.204   5.765   0.766
 8895WAT     H226928   4.181   5.605   0.745
 8896WAT      O26929   3.527   3.799   7.561
 8896WAT     H126930   3.482   3.859   7.494
 8896WAT     H226931   3.558   3.854   7.639
 8897WAT      O26932   5.736   1.425   1.421
 8897WAT     H126933   5.771   1.455   1.510
 8897WAT     H226934   5.712   1.505   1.366
 8898WAT      O26935   7.203   3.660   1.279
 8898WAT     H126936   7.154   3.734   1.325
 8898WAT     H226937   7.250   3.604   1.347
 8899WAT      O26938   0.251   8.400   0.195
 8899WAT     H126939   0.166   8.453   0.186
 8899WAT     H226940   0.321   8.441   0.137
 8900WAT      O26941   9.714   2.573   3.342
 8900WAT     H126942   9.807   2.550   3.314
 8900WAT     H226943   9.669   2.626   3.270
 8901WAT      O26944   2.752   9.452   4.975
 8901WAT     H126945   2.699   9.442   4.891
 8901WAT     H226946   2.698   9.502   5.043
 8902WAT      O26947   3.408   2.186   8.551
 8902WAT     H126948   3.491   2.133   8.564
 8902WAT     H226949   3.334   2.146   8.607
 8903WAT      O26950   4.964   8.606   5.355
 8903WAT     H126951   4.958   8.660   5.271
 8903WAT     H226952   5.052   8.558   5.357
 8904WAT      O26953   4.267   5.482   9.881
 8904WAT     H126954   4.248   5.385   9.895
 8904WAT     H226955   4.249   5.532   9.966
 8905WAT      O26956   1.937   4.030   9.426
 8905WAT     H126957   1.897   4.053   9.337
 8905WAT     H226958   1.933   4.109   9.486
 8906WAT      O26959   1.037   9.328   1.853
 8906WAT     H126960   0.952   9.284   1.823
 8906WAT     H226961   1.027   9.427   1.845
 8907WAT      O26962   9.159   2.618   7.862
 8907WAT     H126963   9.201   2.700   7.822
 8907WAT     H226964   9.144   2.551   7.789
 8908WAT      O26965   9.730   2.300   8.333
 8908WAT     H126966   9.711   2.391   8.298
 8908WAT     H226967   9.826   2.277   8.315
 8909WAT      O26968   5.700   7.948   9.218
 8909WAT     H126969   5.711   7.884   9.142
 8909WAT     H226970   5.787   7.957   9.267
 8910WAT      O26971   1.947   3.479   4.837
 8910WAT     H126972   1.871   3.498   4.773
 8910WAT     H226973   1.911   3.433   4.918
 8911WAT      O26974   9.043   9.355   7.848
 8911WAT     H126975   9.133   9.397   7.834
 8911WAT     H226976   8.994   9.351   7.760
 8912WAT      O26977   2.663   1.077   3.817
 8912WAT     H126978   2.675   1.176   3.827
 8912WAT     H226979   2.565   1.055   3.820
 8913WAT      O26980   7.681   0.354   9.491
 8913WAT     H126981   7.647   0.260   9.488
 8913WAT     H226982   7.752   0.367   9.421
 8914WAT      O26983   0.860   5.512   2.255
 8914WAT     H126984   0.946   5.495   2.303
 8914WAT     H226985   0.872   5.588   2.191
 8915WAT      O26986   9.058   1.148   5.537
 8915WAT     H126987   9.017   1.085   5.472
 8915WAT     H226988   8.990   1.215   5.567
 8916WAT      O26989   3.779   3.933   0.919
 8916WAT     H126990   3.721   4.014   0.911
 8916WAT     H226991   3.807   3.921   1.014
 8917WAT      O26992   1.149   4.421   4.302
 8917WAT     H126993   1.055   4.455   4.309
 8917WAT     H226994   1.149   4.322   4.313
 8918WAT      O26995   5.561   5.238   3.373
 8918WAT     H126996   5.608   5.165   3.324
 8918WAT     H226997   5.629   5.293   3.423
 8919WAT      O26998   1.833   1.198   0.371
 8919WAT     H126999   1.920   1.185   0.418
 8919WAT     H227000   1.823   1.129   0.299
 8920WAT      O27001   6.042   3.260   3.671
 8920WAT     H127002   6.067   3.168   3.700
 8920WAT     H227003   6.123   3.319   3.671
 8921WAT      O27004   2.740   2.322   8.524
 8921WAT     H127005   2.798   2.244   8.547
 8921WAT     H227006   2.644   2.294   8.526
 8922WAT      O27007   2.869   3.105   4.650
 8922WAT     H127008   2.877   3.006   4.657
 8922WAT     H227009   2.899   3.147   4.736
 8923WAT      O27010   7.903   2.400   7.486
 8923WAT     H127011   7.903   2.491   7.528
 8923WAT     H227012   7.814   2.356   7.503
 8924WAT      O27013   5.576   2.616   6.192
 8924WAT     H127014   5.559   2.530   6.143
 8924WAT     H227015   5.489   2.652   6.227
 8925WAT      O27016   3.039   3.639   2.011
 8925WAT     H127017   3.064   3.559   2.067
 8925WAT     H227018   3.047   3.722   2.067
 8926WAT      O27019   6.692   2.496   4.488
 8926WAT     H127020   6.593   2.512   4.483
 8926WAT     H227021   6.710   2.422   4.554
 8927WAT      O27022   4.531   1.054   2.457
 8927WAT     H127023   4.454   0.993   2.478
 8927WAT     H227024   4.586   1.013   2.384
 8928WAT      O27025   2.368   1.252   1.879
 8928WAT     H127026   2.440   1.321   1.881
 8928WAT     H227027   2.378   1.192   1.959
 8929WAT      O27028   0.220   0.164   4.085
 8929WAT     H127029   0.245   0.202   3.996
 8929WAT     H227030   0.300   0.117   4.124
 8930WAT      O27031   6.052   9.098   6.162
 8930WAT     H127032   6.058   8.999   6.174
 8930WAT     H227033   6.136   9.141   6.194
 8931WAT      O27034   5.244   7.856   4.232
 8931WAT     H127035   5.164   7.821   4.280
 8931WAT     H227036   5.324   7.800   4.254
 8932WAT      O27037   7.552   9.029   8.083
 8932WAT     H127038   7.506   9.048   8.170
 8932WAT     H227039   7.650   9.024   8.097
 8933WAT      O27040   8.042   2.856   1.767
 8933WAT     H127041   8.061   2.759   1.785
 8933WAT     H227042   8.128   2.907   1.768
 8934WAT      O27043   7.024   9.396   5.070
 8934WAT     H127044   7.066   9.480   5.104
 8934WAT     H227045   6.968   9.416   4.990
 8935WAT      O27046   2.924   6.895   8.361
 8935WAT     H127047   2.872   6.954   8.423
 8935WAT     H227048   3.011   6.938   8.340
 8936WAT      O27049   9.282   6.734   9.594
 8936WAT     H127050   9.298   6.729   9.496
 8936WAT     H227051   9.186   6.714   9.613
 8937WAT      O27052   7.819   0.365   9.227
 8937WAT     H127053   7.900   0.418   9.203
 8937WAT     H227054   7.842   0.267   9.227
 8938WAT      O27055   3.667   4.306   8.825
 8938WAT     H127056   3.662   4.231   8.891
 8938WAT     H227057   3.736   4.284   8.756
 8939WAT      O27058   5.018   2.231   5.370
 8939WAT     H127059   5.102   2.268   5.330
 8939WAT     H227060   4.955   2.306   5.389
 8940WAT      O27061   9.775   1.975   0.945
 8940WAT     H127062   9.867   1.979   0.906
 8940WAT     H227063   9.759   1.884   0.984
 8941WAT      O27064   5.085   4.164   0.946
 8941WAT     H127065   5.017   4.123   0.886
 8941WAT     H227066   5.172   4.116   0.936
 8942WAT      O27067   6.189   1.982   4.992
 8942WAT     H127068   6.164   2.048   5.063
 8942WAT     H227069   6.220   2.031   4.911
 8943WAT      O27070   0.542   1.811   2.429
 8943WAT     H127071   0.465   1.783   2.486
 8943WAT     H227072   0.591   1.730   2.397
 8944WAT      O27073   4.767   7.874   9.282
 8944WAT     H127074   4.857   7.914   9.267
 8944WAT     H227075   4.743   7.814   9.206
 8945WAT      O27076   1.772   4.842   5.997
 8945WAT     H127077   1.800   4.937   6.007
 8945WAT     H227078   1.677   4.831   6.027
 8946WAT      O27079   5.408   1.687   5.075
 8946WAT     H127080   5.379   1.616   5.012
 8946WAT     H227081   5.351   1.684   5.157
 8947WAT      O27082   5.616   9.015   8.764
 8947WAT     H127083   5.684   8.979   8.700
 8947WAT     H227084   5.648   9.103   8.801
 8948WAT      O27085   9.532   9.510   7.791
 8948WAT     H127086   9.512   9.607   7.810
 8948WAT     H227087   9.599   9.504   7.717
 8949WAT      O27088   8.349   0.396   3.339
 8949WAT     H127089   8.397   0.482   3.352
 8949WAT     H227090   8.277   0.407   3.270
 8950WAT      O27091   5.759   9.467   2.621
 8950WAT     H127092   5.662   9.472   2.644
 8950WAT     H227093   5.804   9.553   2.643
 8951WAT      O27094   5.289   9.588   4.699
 8951WAT     H127095   5.298   9.659   4.769
 8951WAT     H227096   5.327   9.502   4.733
 8952WAT      O27097   6.680   6.403   2.242
 8952WAT     H127098   6.721   6.445   2.161
 8952WAT     H227099   6.694   6.304   2.239
 8953WAT      O27100   3.748   3.033   7.834
 8953WAT     H127101   3.805   3.102   7.788
 8953WAT     H227102   3.658   3.031   7.790
 8954WAT      O27103   6.486   9.495   4.837
 8954WAT     H127104   6.409   9.489   4.901
 8954WAT     H227105   6.570   9.514   4.888
 8955WAT      O27106   7.863   9.131   7.600
 8955WAT     H127107   7.811   9.090   7.525
 8955WAT     H227108   7.900   9.058   7.658
 8956WAT      O27109   7.876   8.873   3.381
 8956WAT     H127110   7.836   8.958   3.346
 8956WAT     H227111   7.954   8.847   3.325
 8957WAT      O27112   8.101   8.443   4.378
 8957WAT     H127113   8.093   8.343   4.386
 8957WAT     H227114   8.154   8.478   4.455
 8958WAT      O27115   5.884   0.604   0.811
 8958WAT     H127116   5.796   0.571   0.778
 8958WAT     H227117   5.912   0.684   0.758
 8959WAT      O27118   7.171   8.601   1.604
 8959WAT     H127119   7.211   8.692   1.594
 8959WAT     H227120   7.118   8.579   1.522
 8960WAT      O27121   3.124   8.244   4.166
 8960WAT     H127122   3.171   8.165   4.204
 8960WAT     H227123   3.162   8.266   4.076
 8961WAT      O27124   5.189   6.272   8.356
 8961WAT     H127125   5.281   6.240   8.376
 8961WAT     H227126   5.177   6.278   8.256
 8962WAT      O27127   5.092   4.684   7.963
 8962WAT     H127128   5.090   4.693   8.062
 8962WAT     H227129   5.185   4.698   7.930
 8963WAT      O27130   8.468   5.152   7.733
 8963WAT     H127131   8.400   5.162   7.806
 8963WAT     H227132   8.539   5.220   7.745
 8964WAT      O27133   7.539   6.090   5.068
 8964WAT     H127134   7.531   6.025   4.992
 8964WAT     H227135   7.602   6.054   5.137
 8965WAT      O27136   8.605   6.706   2.750
 8965WAT     H127137   8.545   6.626   2.747
 8965WAT     H227138   8.691   6.684   2.703
 8966WAT      O27139   1.502   6.540   9.602
 8966WAT     H127140   1.499   6.610   9.532
 8966WAT     H227141   1.591   6.541   9.647
 8967WAT      O27142   2.762   1.336   9.477
 8967WAT     H127143   2.833   1.363   9.412
 8967WAT     H227144   2.794   1.352   9.570
 8968WAT      O27145   2.006   4.103   8.276
 8968WAT     H127146   2.103   4.123   8.285
 8968WAT     H227147   1.954   4.155   8.344
 8969WAT      O27148   2.688   7.898   4.078
 8969WAT     H127149   2.592   7.908   4.102
 8969WAT     H227150   2.744   7.955   4.138
 8970WAT      O27151   2.148   9.343   9.642
 8970WAT     H127152   2.244   9.342   9.614
 8970WAT     H227153   2.113   9.437   9.641
 8971WAT      O27154   3.329   8.730   3.446
 8971WAT     H127155   3.337   8.783   3.362
 8971WAT     H227156   3.242   8.752   3.491
 8972WAT      O27157   2.720   0.871   0.816
 8972WAT     H127158   2.800   0.826   0.855
 8972WAT     H227159   2.721   0.968   0.840
 8973WAT      O27160   4.791   6.431   6.428
 8973WAT     H127161   4.833   6.372   6.360
 8973WAT     H227162   4.863   6.483   6.475
 8974WAT      O27163   3.323   0.135   0.320
 8974WAT     H127164   3.330   0.076   0.239
 8974WAT     H227165   3.401   0.119   0.380
 8975WAT      O27166   3.501   7.047   1.040
 8975WAT     H127167   3.537   7.078   1.128
 8975WAT     H227168   3.569   7.065   0.968
 8976WAT      O27169   2.555   5.699   7.163
 8976WAT     H127170   2.524   5.784   7.120
 8976WAT     H227171   2.483   5.665   7.224
 8977WAT      O27172   0.782   4.342   3.428
 8977WAT     H127173   0.808   4.438   3.439
 8977WAT     H227174   0.765   4.323   3.331
 8978WAT      O27175   2.697   5.696   5.768
 8978WAT     H127176   2.733   5.607   5.743
 8978WAT     H227177   2.648   5.690   5.855
 8979WAT      O27178   9.248   2.847   5.923
 8979WAT     H127179   9.336   2.862   5.878
 8979WAT     H227180   9.203   2.767   5.884
 8980WAT      O27181   2.005   5.146   9.532
 8980WAT     H127182   1.958   5.104   9.454
 8980WAT     H227183   2.092   5.099   9.548
 8981WAT      O27184   8.172   1.545   4.044
 8981WAT     H127185   8.129   1.510   4.128
 8981WAT     H227186   8.256   1.593   4.068
 8982WAT      O27187   4.911   0.504   7.807
 8982WAT     H127188   4.866   0.417   7.789
 8982WAT     H227189   4.842   0.573   7.827
 8983WAT      O27190   3.940   0.705   1.571
 8983WAT     H127191   3.973   0.611   1.567
 8983WAT     H227192   3.841   0.705   1.585
 8984WAT      O27193   6.552   5.995   8.314
 8984WAT     H127194   6.525   6.081   8.271
 8984WAT     H227195   6.507   5.919   8.267
 8985WAT      O27196   3.116   9.334   7.440
 8985WAT     H127197   3.163   9.408   7.489
 8985WAT     H227198   3.124   9.249   7.493
 8986WAT      O27199   5.798   3.954   9.267
 8986WAT     H127200   5.809   3.898   9.349
 8986WAT     H227201   5.826   4.048   9.286
 8987WAT      O27202   9.054   8.245   0.699
 8987WAT     H127203   9.040   8.252   0.798
 8987WAT     H227204   9.117   8.171   0.679
 8988WAT      O27205   3.891   0.742   4.970
 8988WAT     H127206   3.945   0.763   4.888
 8988WAT     H227207   3.842   0.824   5.000
 8989WAT      O27208   8.580   4.966   8.182
 8989WAT     H127209   8.677   4.943   8.190
 8989WAT     H227210   8.539   4.914   8.106
 8990WAT      O27211   3.119   9.599   0.452
 8990WAT     H127212   3.162   9.536   0.387
 8990WAT     H227213   3.020   9.590   0.447
 8991WAT      O27214   5.383   4.329   5.658
 8991WAT     H127215   5.312   4.259   5.648
 8991WAT     H227216   5.450   4.320   5.584
 8992WAT      O27217   0.852   1.935   8.806
 8992WAT     H127218   0.819   2.009   8.747
 8992WAT     H227219   0.774   1.887   8.846
 8993WAT      O27220   6.541   0.767   8.460
 8993WAT     H127221   6.458   0.719   8.490
 8993WAT     H227222   6.619   0.705   8.467
 8994WAT      O27223   0.481   0.039   2.689
 8994WAT     H127224   0.484   0.114   2.755
 8994WAT     H227225   0.544   0.057   2.614
 8995WAT      O27226   4.287   4.397   3.738
 8995WAT     H127227   4.318   4.331   3.807
 8995WAT     H227228   4.363   4.419   3.677
 8996WAT      O27229   0.155   8.482   5.948
 8996WAT     H127230   0.178   8.451   6.040
 8996WAT     H227231   0.059   8.459   5.928
 8997WAT      O27232   8.355   7.903   6.083
 8997WAT     H127233   8.433   7.964   6.096
 8997WAT     H227234   8.314   7.921   5.994
 8998WAT      O27235   7.753   7.085   3.419
 8998WAT     H127236   7.668   7.034   3.409
 8998WAT     H227237   7.743   7.175   3.376
 8999WAT      O27238   3.473   9.324   4.311
 8999WAT     H127239   3.531   9.400   4.281
 8999WAT     H227240   3.497   9.300   4.405
 9000WAT      O27241   1.703   3.622   0.670
 9000WAT     H127242   1.667   3.704   0.626
 9000WAT     H227243   1.746   3.564   0.600
 9001WAT      O27244   3.002   9.663   1.177
 9001WAT     H127245   3.023   9.615   1.263
 9001WAT     H227246   3.062   9.630   1.105
 9002WAT      O27247   9.109   6.383   0.387
 9002WAT     H127248   9.125   6.411   0.482
 9002WAT     H227249   9.177   6.314   0.361
 9003WAT      O27250   7.862   1.155   8.210
 9003WAT     H127251   7.770   1.150   8.250
 9003WAT     H227252   7.927   1.183   8.281
 9004WAT      O27253   9.541   6.951   3.875
 9004WAT     H127254   9.468   6.920   3.935
 9004WAT     H227255   9.628   6.948   3.924
 9005WAT      O27256   8.166   3.479   5.479
 9005WAT     H127257   8.101   3.554   5.483
 9005WAT     H227258   8.217   3.483   5.393
 9006WAT      O27259   8.840   2.802   1.362
 9006WAT     H127260   8.938   2.816   1.345
 9006WAT     H227261   8.814   2.848   1.446
 9007WAT      O27262   6.341   4.625   2.831
 9007WAT     H127263   6.321   4.665   2.920
 9007WAT     H227264   6.413   4.556   2.841
 9008WAT      O27265   7.585   6.630   6.222
 9008WAT     H127266   7.596   6.537   6.186
 9008WAT     H227267   7.606   6.696   6.150
 9009WAT      O27268   4.279   9.297   9.634
 9009WAT     H127269   4.345   9.329   9.702
 9009WAT     H227270   4.234   9.214   9.667
 9010WAT      O27271   6.637   0.029   2.209
 9010WAT     H127272   6.690   0.081   2.276
 9010WAT     H227273   6.661   0.059   2.117
 9011WAT      O27274   4.952   5.017   8.233
 9011WAT     H127275   4.981   4.965   8.314
 9011WAT     H227276   4.992   5.109   8.236
 9012WAT      O27277   2.307   5.464   7.742
 9012WAT     H127278   2.381   5.423   7.689
 9012WAT     H227279   2.323   5.562   7.752
 9013WAT      O27280   4.683   4.850   6.927
 9013WAT     H127281   4.606   4.912   6.913
 9013WAT     H227282   4.759   4.877   6.868
 9014WAT      O27283   0.129   8.607   7.861
 9014WAT     H127284   0.187   8.683   7.829
 9014WAT     H227285   0.177   8.521   7.848
 9015WAT      O27286   5.893   9.743   2.671
 9015WAT     H127287   5.980   9.792   2.666
 9015WAT     H227288   5.830   9.794   2.730
 9016WAT      O27289   4.717   0.757   0.796
 9016WAT     H127290   4.620   0.757   0.774
 9016WAT     H227291   4.732   0.704   0.880
 9017WAT      O27292   9.291   3.799   3.625
 9017WAT     H127293   9.308   3.718   3.680
 9017WAT     H227294   9.238   3.865   3.678
 9018WAT      O27295   2.186   3.191   1.467
 9018WAT     H127296   2.274   3.148   1.489
 9018WAT     H227297   2.170   3.268   1.528
 9019WAT      O27298   5.221   9.545   7.229
 9019WAT     H127299   5.211   9.601   7.148
 9019WAT     H227300   5.139   9.552   7.286
 9020WAT      O27301   2.419   0.281   1.970
 9020WAT     H127302   2.352   0.246   2.035
 9020WAT     H227303   2.444   0.374   1.995
 9021WAT      O27304   9.846   7.444   9.606
 9021WAT     H127305   9.838   7.472   9.510
 9021WAT     H227306   9.855   7.525   9.663
 9022WAT      O27307   6.090   5.200   0.263
 9022WAT     H127308   6.106   5.209   0.362
 9022WAT     H227309   6.026   5.125   0.246
 9023WAT      O27310   4.221   3.333   6.383
 9023WAT     H127311   4.151   3.364   6.448
 9023WAT     H227312   4.234   3.404   6.313
 9024WAT      O27313   9.553   3.908   6.235
 9024WAT     H127314   9.524   3.831   6.179
 9024WAT     H227315   9.494   3.914   6.316
 9025WAT      O27316   8.554   2.428   9.379
 9025WAT     H127317   8.472   2.469   9.418
 9025WAT     H227318   8.529   2.357   9.313
 9026WAT      O27319   6.888   1.019   1.097
 9026WAT     H127320   6.967   1.081   1.100
 9026WAT     H227321   6.872   0.982   1.188
 9027WAT      O27322   1.983   7.415   3.685
 9027WAT     H127323   2.003   7.487   3.618
 9027WAT     H227324   2.036   7.432   3.768
 9028WAT      O27325   8.783   9.465   4.715
 9028WAT     H127326   8.787   9.367   4.737
 9028WAT     H227327   8.865   9.492   4.665
 9029WAT      O27328   3.480   4.307   7.817
 9029WAT     H127329   3.404   4.371   7.811
 9029WAT     H227330   3.497   4.266   7.728
 9030WAT      O27331   8.646   1.676   4.207
 9030WAT     H127332   8.668   1.774   4.204
 9030WAT     H227333   8.680   1.636   4.292
 9031WAT      O27334   0.075   1.866   5.654
 9031WAT     H127335   0.046   1.771   5.663
 9031WAT     H227336   0.053   1.899   5.562
 9032WAT      O27337   8.530   1.147   9.687
 9032WAT     H127338   8.461   1.081   9.715
 9032WAT     H227339   8.517   1.169   9.590
 9033WAT      O27340   3.620   3.582   5.913
 9033WAT     H127341   3.686   3.655   5.896
 9033WAT     H227342   3.606   3.573   6.012
 9034WAT      O27343   3.684   2.474   9.164
 9034WAT     H127344   3.606   2.534   9.148
 9034WAT     H227345   3.729   2.453   9.076
 9035WAT      O27346   9.505   0.822   2.010
 9035WAT     H127347   9.441   0.865   1.947
 9035WAT     H227348   9.598   0.850   1.989
 9036WAT      O27349   6.932   7.126   6.127
 9036WAT     H127350   6.994   7.109   6.051
 9036WAT     H227351   6.952   7.215   6.167
 9037WAT      O27352   9.670   1.241   5.912
 9037WAT     H127353   9.703   1.333   5.891
 9037WAT     H227354   9.653   1.191   5.827
 9038WAT      O27355   6.526   9.376   2.535
 9038WAT     H127356   6.431   9.406   2.538
 9038WAT     H227357   6.530   9.277   2.520
 9039WAT      O27358   7.880   0.995   1.647
 9039WAT     H127359   7.809   1.065   1.652
 9039WAT     H227360   7.967   1.034   1.675
 9040WAT      O27361   2.007   7.689   1.323
 9040WAT     H127362   2.070   7.621   1.284
 9040WAT     H227363   1.921   7.686   1.273
 9041WAT      O27364   8.711   7.460   9.113
 9041WAT     H127365   8.700   7.435   9.017
 9041WAT     H227366   8.809   7.471   9.133
 9042WAT      O27367   7.271   7.066   7.860
 9042WAT     H127368   7.197   7.033   7.919
 9042WAT     H227369   7.348   7.002   7.864
 9043WAT      O27370   7.392   0.696   0.167
 9043WAT     H127371   7.452   0.685   0.088
 9043WAT     H227372   7.320   0.761   0.146
 9044WAT      O27373   7.850   4.637   6.820
 9044WAT     H127374   7.782   4.621   6.748
 9044WAT     H227375   7.941   4.644   6.779
 9045WAT      O27376   5.850   7.607   9.287
 9045WAT     H127377   5.813   7.655   9.366
 9045WAT     H227378   5.811   7.515   9.282
 9046WAT      O27379   4.439   5.636   0.965
 9046WAT     H127380   4.492   5.718   0.944
 9046WAT     H227381   4.357   5.634   0.908
 9047WAT      O27382   1.949   5.781   1.717
 9047WAT     H127383   1.870   5.803   1.661
 9047WAT     H227384   1.919   5.754   1.808
 9048WAT      O27385   5.538   4.486   1.692
 9048WAT     H127386   5.583   4.493   1.780
 9048WAT     H227387   5.440   4.506   1.703
 9049WAT      O27388   9.158   3.049   4.185
 9049WAT     H127389   9.064   3.018   4.171
 9049WAT     H227390   9.189   3.023   4.276
 9050WAT      O27391   1.894   0.503   0.974
 9050WAT     H127392   1.939   0.592   0.983
 9050WAT     H227393   1.803   0.515   0.933
 9051WAT      O27394   1.437   5.854   4.047
 9051WAT     H127395   1.500   5.876   3.973
 9051WAT     H227396   1.488   5.845   4.133
 9052WAT      O27397   0.753   9.103   3.476
 9052WAT     H127398   0.741   9.050   3.392
 9052WAT     H227399   0.723   9.049   3.554
 9053WAT      O27400   5.815   9.416   2.373
 9053WAT     H127401   5.865   9.488   2.326
 9053WAT     H227402   5.800   9.443   2.469
 9054WAT      O27403   1.424   8.971   4.326
 9054WAT     H127404   1.498   9.013   4.379
 9054WAT     H227405   1.383   9.039   4.266
 9055WAT      O27406   3.576   9.660   8.921
 9055WAT     H127407   3.538   9.642   8.830
 9055WAT     H227408   3.584   9.573   8.971
 9056WAT      O27409   6.741   5.277   1.971
 9056WAT     H127410   6.838   5.296   1.982
 9056WAT     H227411   6.726   5.222   1.889
 9057WAT      O27412   2.416   7.435   2.427
 9057WAT     H127413   2.357   7.486   2.364
 9057WAT     H227414   2.439   7.347   2.387
 9058WAT      O27415   5.952   5.780   1.675
 9058WAT     H127416   5.873   5.832   1.641
 9058WAT     H227417   6.016   5.764   1.600
 9059WAT      O27418   1.352   7.484   4.128
 9059WAT     H127419   1.427   7.502   4.066
 9059WAT     H227420   1.387   7.443   4.212
 9060WAT      O27421   9.024   6.859   4.683
 9060WAT     H127422   8.985   6.834   4.594
 9060WAT     H227423   9.024   6.778   4.742
 9061WAT      O27424   3.428   7.286   8.588
 9061WAT     H127425   3.499   7.227   8.625
 9061WAT     H227426   3.440   7.294   8.489
 9062WAT      O27427   8.657   3.806   2.930
 9062WAT     H127428   8.757   3.810   2.925
 9062WAT     H227429   8.629   3.782   3.023
 9063WAT      O27430   5.234   0.645   2.050
 9063WAT     H127431   5.163   0.579   2.073
 9063WAT     H227432   5.319   0.621   2.097
 9064WAT      O27433   3.602   3.399   5.727
 9064WAT     H127434   3.542   3.328   5.763
 9064WAT     H227435   3.618   3.468   5.796
 9065WAT      O27436   2.311   0.546   5.931
 9065WAT     H127437   2.388   0.605   5.906
 9065WAT     H227438   2.225   0.597   5.921
 9066WAT      O27439   8.151   4.480   5.222
 9066WAT     H127440   8.082   4.412   5.199
 9066WAT     H227441   8.125   4.569   5.184
 9067WAT      O27442   2.293   6.947   5.412
 9067WAT     H127443   2.306   6.853   5.381
 9067WAT     H227444   2.243   6.998   5.342
 9068WAT      O27445   1.174   8.257   3.697
 9068WAT     H127446   1.212   8.321   3.764
 9068WAT     H227447   1.175   8.164   3.735
 9069WAT      O27448   0.822   7.404   4.901
 9069WAT     H127449   0.776   7.332   4.952
 9069WAT     H227450   0.877   7.460   4.963
 9070WAT      O27451   7.254   7.464   1.104
 9070WAT     H127452   7.190   7.535   1.076
 9070WAT     H227453   7.296   7.423   1.023
 9071WAT      O27454   8.172   1.197   4.089
 9071WAT     H127455   8.135   1.257   4.019
 9071WAT     H227456   8.121   1.209   4.174
 9072WAT      O27457   6.997   5.115   0.114
 9072WAT     H127458   6.898   5.098   0.117
 9072WAT     H227459   7.016   5.186   0.046
 9073WAT      O27460   1.321   8.367   1.390
 9073WAT     H127461   1.371   8.401   1.470
 9073WAT     H227462   1.233   8.330   1.419
 9074WAT      O27463   0.544   7.791   8.821
 9074WAT     H127464   0.490   7.779   8.738
 9074WAT     H227465   0.536   7.709   8.878
 9075WAT      O27466   7.081   3.025   7.751
 9075WAT     H127467   7.109   2.966   7.826
 9075WAT     H227468   7.107   2.984   7.664
 9076WAT      O27469   0.521   1.243   5.418
 9076WAT     H127470   0.614   1.214   5.396
 9076WAT     H227471   0.513   1.342   5.407
 9077WAT      O27472   7.065   2.380   4.135
 9077WAT     H127473   7.009   2.352   4.213
 9077WAT     H227474   7.045   2.475   4.112
 9078WAT      O27475   5.293   3.455   3.888
 9078WAT     H127476   5.348   3.383   3.845
 9078WAT     H227477   5.284   3.532   3.825
 9079WAT      O27478   2.032   4.588   8.790
 9079WAT     H127479   2.090   4.664   8.762
 9079WAT     H227480   1.968   4.619   8.860
 9080WAT      O27481   9.000   3.657   4.190
 9080WAT     H127482   9.066   3.614   4.128
 9080WAT     H227483   9.047   3.689   4.272
 9081WAT      O27484   4.670   8.522   0.793
 9081WAT     H127485   4.622   8.604   0.825
 9081WAT     H227486   4.658   8.448   0.859
 9082WAT      O27487   7.567   5.999   8.644
 9082WAT     H127488   7.591   6.070   8.710
 9082WAT     H227489   7.537   5.917   8.693
 9083WAT      O27490   2.923   5.084   3.993
 9083WAT     H127491   3.007   5.051   4.037
 9083WAT     H227492   2.942   5.170   3.946
 9084WAT      O27493   9.745   4.536   3.413
 9084WAT     H127494   9.839   4.515   3.436
 9084WAT     H227495   9.685   4.465   3.448
 9085WAT      O27496   3.278   7.079   4.601
 9085WAT     H127497   3.287   6.980   4.611
 9085WAT     H227498   3.354   7.124   4.646
 9086WAT      O27499   8.540   5.856   9.308
 9086WAT     H127500   8.531   5.889   9.402
 9086WAT     H227501   8.496   5.920   9.245
 9087WAT      O27502   1.094   5.359   3.335
 9087WAT     H127503   1.079   5.283   3.399
 9087WAT     H227504   1.062   5.444   3.377
 9088WAT      O27505   8.693   3.516   6.992
 9088WAT     H127506   8.668   3.612   7.005
 9088WAT     H227507   8.789   3.510   6.967
 9089WAT      O27508   5.461   2.648   2.982
 9089WAT     H127509   5.364   2.630   2.964
 9089WAT     H227510   5.486   2.737   2.946
 9090WAT      O27511   0.484   0.746   8.183
 9090WAT     H127512   0.402   0.802   8.169
 9090WAT     H227513   0.519   0.760   8.275
 9091WAT      O27514   3.041   0.276   8.508
 9091WAT     H127515   3.001   0.192   8.471
 9091WAT     H227516   2.981   0.313   8.578
 9092WAT      O27517   8.508   7.153   0.925
 9092WAT     H127518   8.600   7.115   0.913
 9092WAT     H227519   8.514   7.244   0.966
 9093WAT      O27520   5.683   5.091   6.519
 9093WAT     H127521   5.693   5.009   6.576
 9093WAT     H227522   5.765   5.105   6.465
 9094WAT      O27523   6.174   5.476   9.231
 9094WAT     H127524   6.205   5.385   9.258
 9094WAT     H227525   6.116   5.513   9.303
 9095WAT      O27526   3.269   4.838   9.270
 9095WAT     H127527   3.303   4.752   9.309
 9095WAT     H227528   3.178   4.857   9.305
 9096WAT      O27529   7.109   5.976   5.142
 9096WAT     H127530   7.116   5.887   5.097
 9096WAT     H227531   7.198   6.001   5.180
 9097WAT      O27532   2.853   4.384   8.302
 9097WAT     H127533   2.949   4.372   8.331
 9097WAT     H227534   2.830   4.482   8.304
 9098WAT      O27535   7.758   8.234   0.235
 9098WAT     H127536   7.725   8.311   0.290
 9098WAT     H227537   7.680   8.182   0.200
 9099WAT      O27538   8.065   1.991   6.453
 9099WAT     H127539   8.017   1.998   6.541
 9099WAT     H227540   8.018   1.926   6.395
 9100WAT      O27541   2.969   5.798   9.757
 9100WAT     H127542   2.901   5.864   9.787
 9100WAT     H227543   3.012   5.756   9.837
 9101WAT      O27544   4.559   9.188   2.639
 9101WAT     H127545   4.462   9.211   2.635
 9101WAT     H227546   4.578   9.134   2.721
 9102WAT      O27547   4.706   6.168   1.625
 9102WAT     H127548   4.745   6.079   1.649
 9102WAT     H227549   4.744   6.198   1.538
 9103WAT      O27550   3.653   1.294   4.836
 9103WAT     H127551   3.653   1.221   4.768
 9103WAT     H227552   3.730   1.281   4.899
 9104WAT      O27553   8.196   6.025   6.199
 9104WAT     H127554   8.143   6.065   6.274
 9104WAT     H227555   8.208   5.927   6.215
 9105WAT      O27556   9.829   6.336   2.155
 9105WAT     H127557   9.892   6.400   2.199
 9105WAT     H227558   9.787   6.379   2.075
 9106WAT      O27559   2.061   5.415   9.574
 9106WAT     H127560   2.043   5.324   9.538
 9106WAT     H227561   2.137   5.457   9.525
 9107WAT      O27562   8.026   3.912   2.781
 9107WAT     H127563   8.018   3.934   2.684
 9107WAT     H227564   8.117   3.936   2.814
 9108WAT      O27565   0.649   0.794   5.771
 9108WAT     H127566   0.615   0.804   5.678
 9108WAT     H227567   0.748   0.802   5.772
 9109WAT      O27568   4.277   5.248   2.736
 9109WAT     H127569   4.279   5.329   2.795
 9109WAT     H227570   4.370   5.215   2.720
 9110WAT      O27571   3.028   3.181   8.111
 9110WAT     H127572   3.120   3.151   8.134
 9110WAT     H227573   2.968   3.173   8.191
 9111WAT      O27574   4.998   0.432   5.949
 9111WAT     H127575   4.947   0.491   6.012
 9111WAT     H227576   4.940   0.356   5.920
 9112WAT      O27577   7.512   4.804   8.282
 9112WAT     H127578   7.515   4.721   8.337
 9112WAT     H227579   7.432   4.859   8.307
 9113WAT      O27580   3.014   9.356   3.613
 9113WAT     H127581   3.091   9.414   3.586
 9113WAT     H227582   3.035   9.310   3.699
 9114WAT      O27583   8.525   7.978   0.356
 9114WAT     H127584   8.444   8.021   0.395
 9114WAT     H227585   8.506   7.881   0.339
 9115WAT      O27586   0.317   1.604   0.071
 9115WAT     H127587   0.276   1.690   0.041
 9115WAT     H227588   0.285   1.583   0.163
 9116WAT      O27589   4.849   5.626   3.622
 9116WAT     H127590   4.851   5.599   3.525
 9116WAT     H227591   4.933   5.676   3.644
 9117WAT      O27592   3.413   3.419   5.156
 9117WAT     H127593   3.350   3.496   5.169
 9117WAT     H227594   3.422   3.370   5.243
 9118WAT      O27595   6.132   4.190   0.252
 9118WAT     H127596   6.227   4.199   0.223
 9118WAT     H227597   6.083   4.275   0.232
 9119WAT      O27598   8.024   4.787   6.340
 9119WAT     H127599   8.064   4.876   6.315
 9119WAT     H227600   8.050   4.764   6.434
 9120WAT      O27601   7.243   6.646   8.663
 9120WAT     H127602   7.276   6.732   8.703
 9120WAT     H227603   7.236   6.576   8.734
 9121WAT      O27604   4.773   1.266   4.515
 9121WAT     H127605   4.864   1.293   4.544
 9121WAT     H227606   4.779   1.208   4.434
 9122WAT      O27607   0.817   2.798   8.838
 9122WAT     H127608   0.812   2.871   8.770
 9122WAT     H227609   0.766   2.719   8.805
 9123WAT      O27610   0.759   1.607   7.543
 9123WAT     H127611   0.703   1.525   7.550
 9123WAT     H227612   0.765   1.635   7.447
 9124WAT      O27613   7.635   4.681   8.756
 9124WAT     H127614   7.635   4.615   8.831
 9124WAT     H227615   7.558   4.744   8.767
 9125WAT      O27616   8.089   2.991   8.151
 9125WAT     H127617   8.019   2.928   8.185
 9125WAT     H227618   8.083   3.077   8.203
 9126WAT      O27619   2.931   6.090   2.574
 9126WAT     H127620   2.935   5.992   2.591
 9126WAT     H227621   2.971   6.139   2.652
 9127WAT      O27622   3.540   9.304   7.701
 9127WAT     H127623   3.464   9.243   7.722
 9127WAT     H227624   3.569   9.289   7.606
 9128WAT      O27625   4.420   2.961   2.384
 9128WAT     H127626   4.396   2.874   2.427
 9128WAT     H227627   4.362   2.976   2.304
 9129WAT      O27628   3.441   8.613   5.261
 9129WAT     H127629   3.435   8.516   5.284
 9129WAT     H227630   3.455   8.623   5.162
 9130WAT      O27631   8.585   5.158   9.656
 9130WAT     H127632   8.648   5.235   9.664
 9130WAT     H227633   8.502   5.177   9.707
 9131WAT      O27634   5.941   4.929   2.110
 9131WAT     H127635   5.913   5.025   2.096
 9131WAT     H227636   5.868   4.881   2.158
 9132WAT      O27637   0.621   2.146   4.794
 9132WAT     H127638   0.682   2.224   4.801
 9132WAT     H227639   0.530   2.176   4.764
 9133WAT      O27640   0.571   7.562   8.987
 9133WAT     H127641   0.515   7.529   8.911
 9133WAT     H227642   0.629   7.488   9.020
 9134WAT      O27643   2.606   0.287   5.544
 9134WAT     H127644   2.628   0.359   5.478
 9134WAT     H227645   2.555   0.327   5.620
 9135WAT      O27646   9.669   5.103   8.470
 9135WAT     H127647   9.647   5.065   8.380
 9135WAT     H227648   9.720   5.189   8.458
 9136WAT      O27649   9.164   7.244   6.426
 9136WAT     H127650   9.263   7.239   6.411
 9136WAT     H227651   9.117   7.186   6.359
 9137WAT      O27652   7.580   8.517   0.327
 9137WAT     H127653   7.588   8.600   0.273
 9137WAT     H227654   7.644   8.520   0.404
 9138WAT      O27655   5.255   2.471   6.307
 9138WAT     H127656   5.269   2.555   6.358
 9138WAT     H227657   5.319   2.401   6.338
 9139WAT      O27658   8.151   1.152   4.672
 9139WAT     H127659   8.178   1.179   4.765
 9139WAT     H227660   8.056   1.178   4.656
 9140WAT      O27661   3.107   7.729   6.401
 9140WAT     H127662   3.183   7.762   6.346
 9140WAT     H227663   3.049   7.668   6.347
 9141WAT      O27664   6.410   7.690   8.697
 9141WAT     H127665   6.496   7.731   8.727
 9141WAT     H227666   6.427   7.631   8.618
 9142WAT      O27667   3.834   5.739   2.685
 9142WAT     H127668   3.808   5.710   2.777
 9142WAT     H227669   3.754   5.736   2.625
 9143WAT      O27670   5.295   7.040   6.935
 9143WAT     H127671   5.377   7.095   6.917
 9143WAT     H227672   5.322   6.944   6.944
 9144WAT      O27673   6.764   2.952   4.049
 9144WAT     H127674   6.759   2.856   4.020
 9144WAT     H227675   6.710   3.008   3.986
 9145WAT      O27676   1.749   0.666   5.706
 9145WAT     H127677   1.781   0.734   5.772
 9145WAT     H227678   1.790   0.686   5.617
 9146WAT      O27679   1.397   3.748   1.417
 9146WAT     H127680   1.492   3.743   1.447
 9146WAT     H227681   1.351   3.662   1.439
 9147WAT      O27682   8.345   4.263   5.534
 9147WAT     H127683   8.349   4.315   5.449
 9147WAT     H227684   8.394   4.176   5.523
 9148WAT      O27685   5.763   2.923   4.262
 9148WAT     H127686   5.789   2.996   4.197
 9148WAT     H227687   5.693   2.866   4.221
 9149WAT      O27688   6.995   5.652   3.089
 9149WAT     H127689   6.931   5.659   3.013
 9149WAT     H227690   6.982   5.565   3.136
 9150WAT      O27691   4.325   9.106   8.715
 9150WAT     H127692   4.373   9.119   8.628
 9150WAT     H227693   4.391   9.078   8.785
 9151WAT      O27694   1.438   0.785   4.356
 9151WAT     H127695   1.507   0.726   4.316
 9151WAT     H227696   1.479   0.874   4.379
 9152WAT      O27697   0.410   9.564   0.604
 9152WAT     H127698   0.484   9.607   0.553
 9152WAT     H227699   0.426   9.465   0.610
 9153WAT      O27700   6.057   7.169   0.196
 9153WAT     H127701   6.022   7.089   0.147
 9153WAT     H227702   6.011   7.176   0.285
 9154WAT      O27703   7.689   9.051   4.384
 9154WAT     H127704   7.706   8.974   4.445
 9154WAT     H227705   7.592   9.056   4.363
 9155WAT      O27706   3.517   8.030   3.213
 9155WAT     H127707   3.552   8.081   3.134
 9155WAT     H227708   3.432   7.984   3.188
 9156WAT      O27709   8.645   5.382   1.166
 9156WAT     H127710   8.560   5.376   1.113
 9156WAT     H227711   8.718   5.337   1.116
 9157WAT      O27712   9.260   2.682   8.162
 9157WAT     H127713   9.186   2.725   8.214
 9157WAT     H227714   9.231   2.669   8.067
 9158WAT      O27715   1.606   8.940   2.373
 9158WAT     H127716   1.586   8.932   2.471
 9158WAT     H227717   1.624   9.036   2.351
 9159WAT      O27718   5.810   7.057   4.523
 9159WAT     H127719   5.818   7.003   4.439
 9159WAT     H227720   5.816   6.996   4.602
 9160WAT      O27721   3.175   3.077   0.829
 9160WAT     H127722   3.274   3.072   0.819
 9160WAT     H227723   3.131   3.031   0.752
 9161WAT      O27724   7.405   9.107   5.363
 9161WAT     H127725   7.363   9.194   5.386
 9161WAT     H227726   7.461   9.117   5.281
 9162WAT      O27727   3.712   6.803   3.198
 9162WAT     H127728   3.621   6.765   3.185
 9162WAT     H227729   3.742   6.849   3.114
 9163WAT      O27730   2.172   3.380   4.374
 9163WAT     H127731   2.091   3.399   4.319
 9163WAT     H227732   2.250   3.364   4.314
 9164WAT      O27733   8.675   2.804   9.849
 9164WAT     H127734   8.754   2.802   9.911
 9164WAT     H227735   8.598   2.846   9.896
 9165WAT      O27736   8.408   5.034   5.105
 9165WAT     H127737   8.327   5.093   5.106
 9165WAT     H227738   8.473   5.067   5.037
 9166WAT      O27739   8.974   3.947   1.443
 9166WAT     H127740   8.928   3.867   1.482
 9166WAT     H227741   9.026   3.921   1.362
 9167WAT      O27742   7.763   9.332   0.986
 9167WAT     H127743   7.720   9.392   1.053
 9167WAT     H227744   7.830   9.383   0.934
 9168WAT      O27745   0.607   5.631   5.108
 9168WAT     H127746   0.568   5.652   5.018
 9168WAT     H227747   0.605   5.533   5.123
 9169WAT      O27748   1.963   4.918   2.937
 9169WAT     H127749   1.864   4.927   2.947
 9169WAT     H227750   2.010   4.966   3.011
 9170WAT      O27751   1.532   4.139   6.657
 9170WAT     H127752   1.453   4.201   6.660
 9170WAT     H227753   1.524   4.079   6.577
 9171WAT      O27754   9.117   3.738   6.888
 9171WAT     H127755   9.213   3.710   6.885
 9171WAT     H227756   9.080   3.739   6.795
 9172WAT      O27757   2.733   5.224   9.605
 9172WAT     H127758   2.664   5.289   9.635
 9172WAT     H227759   2.748   5.156   9.677
 9173WAT      O27760   5.436   9.703   5.235
 9173WAT     H127761   5.513   9.653   5.195
 9173WAT     H227762   5.353   9.681   5.184
 9174WAT      O27763   5.852   4.709   1.159
 9174WAT     H127764   5.900   4.642   1.103
 9174WAT     H227765   5.753   4.701   1.144
 9175WAT      O27766   9.189   2.383   4.247
 9175WAT     H127767   9.198   2.477   4.279
 9175WAT     H227768   9.152   2.326   4.321
 9176WAT      O27769   2.550   4.707   0.705
 9176WAT     H127770   2.564   4.659   0.618
 9176WAT     H227771   2.452   4.712   0.725
 9177WAT      O27772   4.145   3.258   7.524
 9177WAT     H127773   4.163   3.316   7.603
 9177WAT     H227774   4.232   3.237   7.479
 9178WAT      O27775   2.460   3.904   2.693
 9178WAT     H127776   2.557   3.909   2.718
 9178WAT     H227777   2.452   3.861   2.603
 9179WAT      O27778   3.225   7.929   9.032
 9179WAT     H127779   3.149   7.976   8.987
 9179WAT     H227780   3.305   7.931   8.971
 9180WAT      O27781   9.274   5.969   9.095
 9180WAT     H127782   9.357   5.947   9.044
 9180WAT     H227783   9.222   6.040   9.047
 9181WAT      O27784   8.766   5.703   6.794
 9181WAT     H127785   8.810   5.626   6.749
 9181WAT     H227786   8.806   5.788   6.759
 9182WAT      O27787   5.699   8.345   3.342
 9182WAT     H127788   5.782   8.294   3.367
 9182WAT     H227789   5.623   8.312   3.398
 9183WAT      O27790   9.417   4.193   2.268
 9183WAT     H127791   9.402   4.156   2.359
 9183WAT     H227792   9.498   4.252   2.268
 9184WAT      O27793   9.836   3.255   0.536
 9184WAT     H127794   9.806   3.165   0.566
 9184WAT     H227795   9.848   3.256   0.437
 9185WAT      O27796   5.266   1.598   8.007
 9185WAT     H127797   5.238   1.510   8.046
 9185WAT     H227798   5.207   1.620   7.929
 9186WAT      O27799   3.636   8.353   6.567
 9186WAT     H127800   3.536   8.362   6.573
 9186WAT     H227801   3.668   8.286   6.634
 9187WAT      O27802   0.795   2.660   0.726
 9187WAT     H127803   0.704   2.642   0.691
 9187WAT     H227804   0.797   2.641   0.825
 9188WAT      O27805   7.287   8.005   1.839
 9188WAT     H127806   7.290   7.905   1.843
 9188WAT     H227807   7.371   8.043   1.877
 9189WAT      O27808   1.878   4.416   6.648
 9189WAT     H127809   1.846   4.429   6.554
 9189WAT     H227810   1.954   4.478   6.666
 9190WAT      O27811   4.268   6.284   5.079
 9190WAT     H127812   4.324   6.230   5.016
 9190WAT     H227813   4.192   6.326   5.029
 9191WAT      O27814   8.793   9.154   2.157
 9191WAT     H127815   8.886   9.190   2.154
 9191WAT     H227816   8.786   9.077   2.092
 9192WAT      O27817   0.511   2.674   4.360
 9192WAT     H127818   0.551   2.659   4.451
 9192WAT     H227819   0.411   2.676   4.368
 9193WAT      O27820   9.043   4.557   6.205
 9193WAT     H127821   9.130   4.598   6.233
 9193WAT     H227822   8.968   4.598   6.257
 9194WAT      O27823   4.438   7.556   8.476
 9194WAT     H127824   4.372   7.531   8.547
 9194WAT     H227825   4.482   7.474   8.441
 9195WAT      O27826   5.355   1.909   6.415
 9195WAT     H127827   5.448   1.935   6.392
 9195WAT     H227828   5.292   1.948   6.348
 9196WAT      O27829   9.276   3.999   7.664
 9196WAT     H127830   9.369   4.035   7.654
 9196WAT     H227831   9.231   3.998   7.575
 9197WAT      O27832   6.382   5.188   4.169
 9197WAT     H127833   6.329   5.105   4.156
 9197WAT     H227834   6.379   5.243   4.085
 9198WAT      O27835   1.834   6.994   3.817
 9198WAT     H127836   1.844   7.028   3.724
 9198WAT     H227837   1.896   7.042   3.878
 9199WAT      O27838   6.418   0.682   3.726
 9199WAT     H127839   6.468   0.768   3.738
 9199WAT     H227840   6.460   0.611   3.782
 9200WAT      O27841   1.466   6.749   2.405
 9200WAT     H127842   1.411   6.799   2.472
 9200WAT     H227843   1.413   6.673   2.368
 9201WAT      O27844   8.877   0.404   8.544
 9201WAT     H127845   8.868   0.370   8.638
 9201WAT     H227846   8.947   0.476   8.541
 9202WAT      O27847   4.082   7.482   1.942
 9202WAT     H127848   4.123   7.560   1.991
 9202WAT     H227849   3.990   7.467   1.976
 9203WAT      O27850   5.576   5.532   8.442
 9203WAT     H127851   5.479   5.538   8.464
 9203WAT     H227852   5.590   5.461   8.373
 9204WAT      O27853   5.918   1.939   3.011
 9204WAT     H127854   5.914   1.939   3.111
 9204WAT     H227855   5.832   1.974   2.974
 9205WAT      O27856   7.577   2.773   7.989
 9205WAT     H127857   7.515   2.850   8.005
 9205WAT     H227858   7.671   2.801   8.006
 9206WAT      O27859   9.834   1.242   5.493
 9206WAT     H127860   9.869   1.305   5.423
 9206WAT     H227861   9.850   1.281   5.583
 9207WAT      O27862   5.551   4.351   8.748
 9207WAT     H127863   5.638   4.398   8.733
 9207WAT     H227864   5.568   4.259   8.783
 9208WAT      O27865   0.857   3.654   7.805
 9208WAT     H127866   0.836   3.719   7.731
 9208WAT     H227867   0.949   3.618   7.792
 9209WAT      O27868   7.217   0.125   2.562
 9209WAT     H127869   7.265   0.041   2.539
 9209WAT     H227870   7.208   0.182   2.480
 9210WAT      O27871   2.151   1.444   4.509
 9210WAT     H127872   2.232   1.429   4.452
 9210WAT     H227873   2.179   1.466   4.602
 9211WAT      O27874   6.934   4.145   6.209
 9211WAT     H127875   6.923   4.217   6.140
 9211WAT     H227876   6.909   4.057   6.168
 9212WAT      O27877   3.488   9.437   7.963
 9212WAT     H127878   3.548   9.377   8.016
 9212WAT     H227879   3.481   9.404   7.869
 9213WAT      O27880   4.626   1.334   5.972
 9213WAT     H127881   4.554   1.402   5.967
 9213WAT     H227882   4.714   1.379   5.988
 9214WAT      O27883   7.219   8.558   5.843
 9214WAT     H127884   7.146   8.512   5.895
 9214WAT     H227885   7.298   8.497   5.838
 9215WAT      O27886   0.173   9.344   2.364
 9215WAT     H127887   0.105   9.415   2.347
 9215WAT     H227888   0.186   9.289   2.282
 9216WAT      O27889   1.493   2.229   5.643
 9216WAT     H127890   1.441   2.179   5.573
 9216WAT     H227891   1.566   2.170   5.678
 9217WAT      O27892   2.374   7.030   6.542
 9217WAT     H127893   2.434   6.983   6.477
 9217WAT     H227894   2.362   6.974   6.623
 9218WAT      O27895   9.744   6.997   5.304
 9218WAT     H127896   9.819   7.015   5.368
 9218WAT     H227897   9.684   6.927   5.343
 9219WAT      O27898   7.008   2.324   3.707
 9219WAT     H127899   7.052   2.261   3.772
 9219WAT     H227900   7.060   2.409   3.703
 9220WAT      O27901   1.690   3.120   5.582
 9220WAT     H127902   1.636   3.040   5.606
 9220WAT     H227903   1.634   3.203   5.592
 9221WAT      O27904   7.621   9.172   5.525
 9221WAT     H127905   7.533   9.148   5.484
 9221WAT     H227906   7.652   9.259   5.486
 9222WAT      O27907   6.302   6.328   4.534
 9222WAT     H127908   6.385   6.368   4.496
 9222WAT     H227909   6.321   6.235   4.566
 9223WAT      O27910   2.599   9.406   4.749
 9223WAT     H127911   2.623   9.374   4.657
 9223WAT     H227912   2.604   9.506   4.751
 9224WAT      O27913   4.603   2.139   5.133
 9224WAT     H127914   4.691   2.118   5.176
 9224WAT     H227915   4.549   2.055   5.124
 9225WAT      O27916   5.711   3.414   9.337
 9225WAT     H127917   5.731   3.448   9.429
 9225WAT     H227918   5.615   3.388   9.331
 9226WAT      O27919   6.849   3.048   0.090
 9226WAT     H127920   6.789   3.026   0.168
 9226WAT     H227921   6.793   3.062   0.008
 9227WAT      O27922   9.721   9.108   8.106
 9227WAT     H127923   9.758   9.082   8.195
 9227WAT     H227924   9.770   9.188   8.072
 9228WAT      O27925   2.946   1.615   7.611
 9228WAT     H127926   3.010   1.544   7.581
 9228WAT     H227927   2.948   1.691   7.546
 9229WAT      O27928   5.696   9.061   5.149
 9229WAT     H127929   5.715   9.149   5.193
 9229WAT     H227930   5.625   9.012   5.201
 9230WAT      O27931   2.584   4.820   5.102
 9230WAT     H127932   2.570   4.837   5.199
 9230WAT     H227933   2.496   4.821   5.054
 9231WAT      O27934   6.636   0.913   7.538
 9231WAT     H127935   6.584   0.905   7.453
 9231WAT     H227936   6.613   0.998   7.584
 9232WAT      O27937   9.321   4.480   4.119
 9232WAT     H127938   9.288   4.387   4.131
 9232WAT     H227939   9.318   4.505   4.022
 9233WAT      O27940   8.011   1.362   3.900
 9233WAT     H127941   8.049   1.352   3.808
 9233WAT     H227942   8.028   1.455   3.933
 9234WAT      O27943   6.689   1.812   8.985
 9234WAT     H127944   6.750   1.813   8.906
 9234WAT     H227945   6.652   1.903   9.001
 9235WAT      O27946   1.392   4.489   9.215
 9235WAT     H127947   1.345   4.417   9.164
 9235WAT     H227948   1.453   4.539   9.154
 9236WAT      O27949   2.429   6.628   6.502
 9236WAT     H127950   2.339   6.617   6.461
 9236WAT     H227951   2.475   6.707   6.461
 9237WAT      O27952   0.171   6.680   7.943
 9237WAT     H127953   0.094   6.620   7.966
 9237WAT     H227954   0.180   6.750   8.015
 9238WAT      O27955   2.959   8.344   6.203
 9238WAT     H127956   2.963   8.429   6.257
 9238WAT     H227957   3.052   8.307   6.195
 9239WAT      O27958   5.162   9.486   5.031
 9239WAT     H127959   5.134   9.464   5.124
 9239WAT     H227960   5.100   9.440   4.966
 9240WAT      O27961   8.845   0.488   9.618
 9240WAT     H127962   8.814   0.446   9.704
 9240WAT     H227963   8.892   0.573   9.638
 9241WAT      O27964   6.352   7.067   3.490
 9241WAT     H127965   6.386   7.143   3.545
 9241WAT     H227966   6.252   7.063   3.498
 9242WAT      O27967   5.455   4.273   2.555
 9242WAT     H127968   5.531   4.338   2.549
 9242WAT     H227969   5.453   4.217   2.472
 9243WAT      O27970   3.987   2.862   9.182
 9243WAT     H127971   3.945   2.915   9.256
 9243WAT     H227972   4.058   2.917   9.137
 9244WAT      O27973   3.358   7.473   5.669
 9244WAT     H127974   3.434   7.527   5.632
 9244WAT     H227975   3.379   7.376   5.660
 9245WAT      O27976   3.938   8.425   0.427
 9245WAT     H127977   3.880   8.458   0.353
 9245WAT     H227978   3.913   8.471   0.513
 9246WAT      O27979   9.345   8.845   8.381
 9246WAT     H127980   9.290   8.763   8.396
 9246WAT     H227981   9.329   8.910   8.456
 9247WAT      O27982   4.134   2.625   3.200
 9247WAT     H127983   4.141   2.528   3.177
 9247WAT     H227984   4.217   2.654   3.248
 9248WAT      O27985   9.456   8.894   5.299
 9248WAT     H127986   9.428   8.970   5.240
 9248WAT     H227987   9.534   8.922   5.355
 9249WAT      O27988   7.658   8.182   5.906
 9249WAT     H127989   7.561   8.206   5.908
 9249WAT     H227990   7.713   8.262   5.930
 9250WAT      O27991   6.518   5.957   6.534
 9250WAT     H127992   6.474   6.047   6.531
 9250WAT     H227993   6.584   5.950   6.460
 9251WAT      O27994   9.055   5.757   6.767
 9251WAT     H127995   9.149   5.768   6.801
 9251WAT     H227996   9.041   5.663   6.738
 9252WAT      O27997   7.227   2.214   1.698
 9252WAT     H127998   7.187   2.247   1.784
 9252WAT     H227999   7.273   2.290   1.652
 9253WAT      O28000   5.102   6.931   6.586
 9253WAT     H128001   5.177   6.935   6.651
 9253WAT     H228002   5.028   6.991   6.616
 9254WAT      O28003   0.124   6.256   7.500
 9254WAT     H128004   0.033   6.220   7.481
 9254WAT     H228005   0.148   6.323   7.430
 9255WAT      O28006   0.928   0.090   0.292
 9255WAT     H128007   0.842   0.048   0.322
 9255WAT     H228008   0.922   0.189   0.303
 9256WAT      O28009   4.371   1.127   0.865
 9256WAT     H128010   4.384   1.211   0.812
 9256WAT     H228011   4.441   1.060   0.840
 9257WAT      O28012   3.225   4.792   1.241
 9257WAT     H128013   3.250   4.867   1.180
 9257WAT     H228014   3.305   4.733   1.255
 9258WAT      O28015   7.422   1.790   2.808
 9258WAT     H128016   7.441   1.693   2.798
 9258WAT     H228017   7.334   1.802   2.854
 9259WAT      O28018   8.707   9.162   6.763
 9259WAT     H128019   8.616   9.137   6.730
 9259WAT     H228020   8.727   9.111   6.846
 9260WAT      O28021   7.979   5.995   9.854
 9260WAT     H128022   7.947   6.089   9.860
 9260WAT     H228023   7.982   5.968   9.758
 9261WAT      O28024   3.514   0.349   4.800
 9261WAT     H128025   3.571   0.267   4.803
 9261WAT     H228026   3.510   0.390   4.892
 9262WAT      O28027   2.168   7.118   6.956
 9262WAT     H128028   2.192   7.120   6.859
 9262WAT     H228029   2.068   7.122   6.965
 9263WAT      O28030   6.549   1.192   8.244
 9263WAT     H128031   6.597   1.279   8.256
 9263WAT     H228032   6.452   1.204   8.264
 9264WAT      O28033   4.852   9.705   8.296
 9264WAT     H128034   4.834   9.648   8.376
 9264WAT     H228035   4.880   9.646   8.220
 9265WAT      O28036   6.779   6.956   6.786
 9265WAT     H128037   6.803   7.041   6.832
 9265WAT     H228038   6.852   6.929   6.724
 9266WAT      O28039   1.928   6.166   0.593
 9266WAT     H128040   1.856   6.234   0.575
 9266WAT     H228041   1.888   6.088   0.643
 9267WAT      O28042   8.846   1.347   0.871
 9267WAT     H128043   8.905   1.428   0.874
 9267WAT     H228044   8.779   1.352   0.945
 9268WAT      O28045   0.853   2.736   5.249
 9268WAT     H128046   0.887   2.717   5.156
 9268WAT     H228047   0.924   2.715   5.315
 9269WAT      O28048   8.483   6.494   0.639
 9269WAT     H128049   8.469   6.500   0.738
 9269WAT     H228050   8.540   6.571   0.609
 9270WAT      O28051   3.306   7.788   7.618
 9270WAT     H128052   3.328   7.810   7.712
 9270WAT     H228053   3.387   7.798   7.561
 9271WAT      O28054   4.864   6.018   9.261
 9271WAT     H128055   4.948   6.024   9.207
 9271WAT     H228056   4.804   5.948   9.222
 9272WAT      O28057   5.056   3.857   9.701
 9272WAT     H128058   5.110   3.804   9.637
 9272WAT     H228059   5.018   3.796   9.771
 9273WAT      O28060   0.445   5.605   0.083
 9273WAT     H128061   0.532   5.560   0.062
 9273WAT     H228062   0.393   5.549   0.148
 9274WAT      O28063   7.720   3.203   4.885
 9274WAT     H128064   7.749   3.138   4.815
 9274WAT     H228065   7.668   3.277   4.842
 9275WAT      O28066   8.844   4.383   5.037
 9275WAT     H128067   8.831   4.481   5.050
 9275WAT     H228068   8.818   4.359   4.943
 9276WAT      O28069   5.043   8.537   8.445
 9276WAT     H128070   4.952   8.575   8.461
 9276WAT     H228071   5.111   8.610   8.444
 9277WAT      O28072   8.151   2.476   5.341
 9277WAT     H128073   8.145   2.420   5.423
 9277WAT     H228074   8.105   2.564   5.357
 9278WAT      O28075   1.821   4.516   6.392
 9278WAT     H128076   1.860   4.608   6.386
 9278WAT     H228077   1.736   4.513   6.340
 9279WAT      O28078   9.761   9.823   9.259
 9279WAT     H128079   9.767   9.922   9.257
 9279WAT     H228080   9.762   9.791   9.354
 9280WAT      O28081   8.828   7.550   0.631
 9280WAT     H128082   8.822   7.617   0.705
 9280WAT     H228083   8.753   7.565   0.566
 9281WAT      O28084   7.061   3.408   0.028
 9281WAT     H128085   7.110   3.321   0.030
 9281WAT     H228086   7.073   3.455   0.116
 9282WAT      O28087   0.958   7.947   2.648
 9282WAT     H128088   0.980   8.044   2.634
 9282WAT     H228089   0.974   7.897   2.564
 9283WAT      O28090   0.794   9.056   2.019
 9283WAT     H128091   0.786   9.113   2.101
 9283WAT     H228092   0.716   8.994   2.013
 9284WAT      O28093   5.631   1.224   7.505
 9284WAT     H128094   5.664   1.284   7.433
 9284WAT     H228095   5.562   1.162   7.468
 9285WAT      O28096   6.761   8.100   4.330
 9285WAT     H128097   6.850   8.105   4.377
 9285WAT     H228098   6.729   8.192   4.310
 9286WAT      O28099   4.902   0.464   2.976
 9286WAT     H128100   4.967   0.499   3.044
 9286WAT     H228101   4.920   0.507   2.888
 9287WAT      O28102   8.847   8.359   8.903
 9287WAT     H128103   8.923   8.383   8.842
 9287WAT     H228104   8.881   8.301   8.978
 9288WAT      O28105   5.455   6.566   7.453
 9288WAT     H128106   5.499   6.496   7.508
 9288WAT     H228107   5.478   6.552   7.356
 9289WAT      O28108   9.561   4.089   5.352
 9289WAT     H128109   9.498   4.165   5.334
 9289WAT     H228110   9.562   4.068   5.449
 9290WAT      O28111   2.686   9.108   8.041
 9290WAT     H128112   2.729   9.168   7.974
 9290WAT     H228113   2.714   9.013   8.023
 9291WAT      O28114   3.780   3.209   4.268
 9291WAT     H128115   3.758   3.306   4.276
 9291WAT     H228116   3.804   3.188   4.173
 9292WAT      O28117   1.413   1.019   2.634
 9292WAT     H128118   1.420   0.953   2.559
 9292WAT     H228119   1.483   0.999   2.702
 9293WAT      O28120   4.580   1.152   5.217
 9293WAT     H128121   4.650   1.206   5.172
 9293WAT     H228122   4.529   1.100   5.149
 9294WAT      O28123   7.279   4.083   3.850
 9294WAT     H128124   7.375   4.055   3.857
 9294WAT     H228125   7.274   4.180   3.827
 9295WAT      O28126   7.878   7.245   8.399
 9295WAT     H128127   7.970   7.247   8.358
 9295WAT     H228128   7.810   7.265   8.329
 9296WAT      O28129   2.679   0.193   3.339
 9296WAT     H128130   2.688   0.181   3.438
 9296WAT     H228131   2.703   0.287   3.314
 9297WAT      O28132   6.584   6.324   4.515
 9297WAT     H128133   6.585   6.274   4.428
 9297WAT     H228134   6.639   6.275   4.582
 9298WAT      O28135   0.211   7.856   2.063
 9298WAT     H128136   0.140   7.804   2.109
 9298WAT     H228137   0.301   7.818   2.086
 9299WAT      O28138   8.003   9.629   6.593
 9299WAT     H128139   7.976   9.614   6.498
 9299WAT     H228140   8.003   9.727   6.612
 9300WAT      O28141   6.917   1.813   6.835
 9300WAT     H128142   6.960   1.904   6.836
 9300WAT     H228143   6.987   1.744   6.818
 9301WAT      O28144   2.502   4.898   8.402
 9301WAT     H128145   2.466   4.903   8.309
 9301WAT     H228146   2.489   4.986   8.448
 9302WAT      O28147   7.095   0.636   5.341
 9302WAT     H128148   7.071   0.675   5.252
 9302WAT     H228149   7.034   0.671   5.411
 9303WAT      O28150   9.255   6.512   2.660
 9303WAT     H128151   9.297   6.601   2.641
 9303WAT     H228152   9.327   6.443   2.669
 9304WAT      O28153   5.440   9.636   1.456
 9304WAT     H128154   5.498   9.709   1.492
 9304WAT     H228155   5.445   9.635   1.356
 9305WAT      O28156   3.210   8.246   2.688
 9305WAT     H128157   3.114   8.272   2.698
 9305WAT     H228158   3.257   8.312   2.629
 9306WAT      O28159   9.526   2.487   0.615
 9306WAT     H128160   9.441   2.499   0.564
 9306WAT     H228161   9.603   2.521   0.560
 9307WAT      O28162   6.543   5.223   3.699
 9307WAT     H128163   6.607   5.150   3.677
 9307WAT     H228164   6.481   5.238   3.622
 9308WAT      O28165   1.959   4.764   2.281
 9308WAT     H128166   1.945   4.851   2.330
 9308WAT     H228167   1.876   4.710   2.286
 9309WAT      O28168   5.712   6.656   2.721
 9309WAT     H128169   5.751   6.702   2.641
 9309WAT     H228170   5.619   6.626   2.701
 9310WAT      O28171   6.747   1.269   1.661
 9310WAT     H128172   6.695   1.184   1.670
 9310WAT     H228173   6.832   1.251   1.610
 9311WAT      O28174   5.617   1.765   3.761
 9311WAT     H128175   5.665   1.678   3.760
 9311WAT     H228176   5.537   1.760   3.702
 9312WAT      O28177   1.514   4.864   2.502
 9312WAT     H128178   1.544   4.773   2.530
 9312WAT     H228179   1.585   4.931   2.526
 9313WAT      O28180   1.724   4.160   6.035
 9313WAT     H128181   1.788   4.100   5.987
 9313WAT     H228182   1.745   4.255   6.016
 9314WAT      O28183   0.223   6.048   3.245
 9314WAT     H128184   0.272   6.012   3.165
 9314WAT     H228185   0.268   6.130   3.278
 9315WAT      O28186   8.330   0.902   2.738
 9315WAT     H128187   8.335   1.002   2.731
 9315WAT     H228188   8.249   0.877   2.790
 9316WAT      O28189   2.085   1.879   2.816
 9316WAT     H128190   2.174   1.861   2.773
 9316WAT     H228191   2.024   1.801   2.802
 9317WAT      O28192   0.733   8.340   4.806
 9317WAT     H128193   0.691   8.431   4.800
 9317WAT     H228194   0.725   8.306   4.899
 9318WAT      O28195   2.288   7.516   9.785
 9318WAT     H128196   2.192   7.486   9.786
 9318WAT     H228197   2.316   7.535   9.691
 9319WAT      O28198   9.363   7.308   9.756
 9319WAT     H128199   9.280   7.277   9.803
 9319WAT     H228200   9.355   7.405   9.733
 9320WAT      O28201   1.418   7.122   4.926
 9320WAT     H128202   1.419   7.181   4.845
 9320WAT     H228203   1.405   7.027   4.899
 9321WAT      O28204   2.797   4.032   8.176
 9321WAT     H128205   2.829   3.957   8.118
 9321WAT     H228206   2.868   4.057   8.241
 9322WAT      O28207   1.088   3.250   0.568
 9322WAT     H128208   1.022   3.271   0.641
 9322WAT     H228209   1.127   3.335   0.532
 9323WAT      O28210   0.238   0.468   2.994
 9323WAT     H128211   0.258   0.479   3.092
 9323WAT     H228212   0.182   0.386   2.981
 9324WAT      O28213   4.013   7.819   5.363
 9324WAT     H128214   4.106   7.850   5.341
 9324WAT     H228215   4.008   7.720   5.353
 9325WAT      O28216   7.558   4.060   3.891
 9325WAT     H128217   7.621   4.099   3.823
 9325WAT     H228218   7.596   4.071   3.982
 9326WAT      O28219   4.517   2.814   7.245
 9326WAT     H128220   4.484   2.887   7.303
 9326WAT     H228221   4.615   2.801   7.260
 9327WAT      O28222   6.059   3.138   2.182
 9327WAT     H128223   6.060   3.238   2.186
 9327WAT     H228224   5.967   3.106   2.162
 9328WAT      O28225   5.704   1.998   2.875
 9328WAT     H128226   5.724   2.071   2.810
 9328WAT     H228227   5.700   1.910   2.826
 9329WAT      O28228   0.589   3.740   0.731
 9329WAT     H128229   0.624   3.751   0.824
 9329WAT     H228230   0.495   3.706   0.735
 9330WAT      O28231   6.981   4.245   4.811
 9330WAT     H128232   6.929   4.291   4.883
 9330WAT     H228233   6.953   4.149   4.806
 9331WAT      O28234   0.606   1.623   9.508
 9331WAT     H128235   0.576   1.714   9.537
 9331WAT     H228236   0.678   1.632   9.439
 9332WAT      O28237   7.517   1.464   1.476
 9332WAT     H128238   7.576   1.419   1.409
 9332WAT     H228239   7.508   1.561   1.454
 9333WAT      O28240   9.834   0.447   7.455
 9333WAT     H128241   9.741   0.484   7.461
 9333WAT     H228242   9.872   0.468   7.365
 9334WAT      O28243   4.435   0.222   4.393
 9334WAT     H128244   4.453   0.155   4.464
 9334WAT     H228245   4.352   0.273   4.415
 9335WAT      O28246   6.665   8.379   7.245
 9335WAT     H128247   6.587   8.395   7.185
 9335WAT     H228248   6.644   8.306   7.309
 9336WAT      O28249   6.781   8.437   6.142
 9336WAT     H128250   6.860   8.375   6.142
 9336WAT     H228251   6.777   8.485   6.230
 9337WAT      O28252   4.801   0.250   4.481
 9337WAT     H128253   4.849   0.216   4.562
 9337WAT     H228254   4.726   0.310   4.510
 9338WAT      O28255   7.039   6.644   2.073
 9338WAT     H128256   6.953   6.694   2.065
 9338WAT     H228257   7.110   6.705   2.109
 9339WAT      O28258   5.703   2.363   3.952
 9339WAT     H128259   5.701   2.386   3.855
 9339WAT     H228260   5.614   2.384   3.993
 9340WAT      O28261   9.832   7.781   9.140
 9340WAT     H128262   9.736   7.794   9.165
 9340WAT     H228263   9.840   7.704   9.077
 9341WAT      O28264   0.968   7.226   3.052
 9341WAT     H128265   0.970   7.209   3.150
 9341WAT     H228266   1.007   7.315   3.032
 9342WAT      O28267   3.811   5.969   0.557
 9342WAT     H128268   3.810   6.067   0.536
 9342WAT     H228269   3.731   5.926   0.516
 9343WAT      O28270   5.987   3.081   8.640
 9343WAT     H128271   6.022   3.169   8.609
 9343WAT     H228272   5.995   3.076   8.740
 9344WAT      O28273   0.698   6.764   7.017
 9344WAT     H128274   0.695   6.764   6.917
 9344WAT     H228275   0.786   6.801   7.047
 9345WAT      O28276   1.504   5.737   4.594
 9345WAT     H128277   1.588   5.688   4.617
 9345WAT     H228278   1.443   5.738   4.674
 9346WAT      O28279   3.264   8.862   9.287
 9346WAT     H128280   3.341   8.860   9.223
 9346WAT     H228281   3.202   8.936   9.262
 9347WAT      O28282   8.511   8.185   9.556
 9347WAT     H128283   8.471   8.174   9.648
 9347WAT     H228284   8.462   8.257   9.507
 9348WAT      O28285   2.512   0.107   9.610
 9348WAT     H128286   2.467   0.188   9.648
 9348WAT     H228287   2.507   0.110   9.510
 9349WAT      O28288   9.125   0.267   9.518
 9349WAT     H128289   9.206   0.245   9.464
 9349WAT     H228290   9.047   0.278   9.458
 9350WAT      O28291   9.628   9.544   4.642
 9350WAT     H128292   9.667   9.587   4.723
 9350WAT     H228293   9.646   9.446   4.644
 9351WAT      O28294   1.504   5.483   6.474
 9351WAT     H128295   1.503   5.435   6.386
 9351WAT     H228296   1.466   5.424   6.545
 9352WAT      O28297   8.909   0.244   8.147
 9352WAT     H128298   8.972   0.171   8.172
 9352WAT     H228299   8.823   0.233   8.197
 9353WAT      O28300   7.923   9.224   8.228
 9353WAT     H128301   7.998   9.227   8.294
 9353WAT     H228302   7.937   9.295   8.159
 9354WAT      O28303   2.946   4.078   8.403
 9354WAT     H128304   3.025   4.121   8.446
 9354WAT     H228305   2.942   3.981   8.427
 9355WAT      O28306   2.248   3.883   2.886
 9355WAT     H128307   2.290   3.875   2.977
 9355WAT     H228308   2.320   3.900   2.818
 9356WAT      O28309   2.810   3.253   1.423
 9356WAT     H128310   2.860   3.334   1.455
 9356WAT     H228311   2.848   3.224   1.335
 9357WAT      O28312   6.381   0.115   4.985
 9357WAT     H128313   6.347   0.201   5.022
 9357WAT     H228314   6.311   0.074   4.926
 9358WAT      O28315   7.856   6.944   5.338
 9358WAT     H128316   7.891   6.978   5.251
 9358WAT     H228317   7.803   6.861   5.323
 9359WAT      O28318   3.025   4.837   3.798
 9359WAT     H128319   3.016   4.907   3.869
 9359WAT     H228320   3.022   4.880   3.708
 9360WAT      O28321   2.989   2.252   3.943
 9360WAT     H128322   3.007   2.184   4.014
 9360WAT     H228323   2.901   2.233   3.900
 9361WAT      O28324   6.766   7.773   3.636
 9361WAT     H128325   6.673   7.744   3.658
 9361WAT     H228326   6.770   7.873   3.631
 9362WAT      O28327   3.165   3.825   7.616
 9362WAT     H128328   3.176   3.765   7.695
 9362WAT     H228329   3.074   3.867   7.617
 9363WAT      O28330   7.727   4.314   7.341
 9363WAT     H128331   7.771   4.349   7.423
 9363WAT     H228332   7.656   4.378   7.311
 9364WAT      O28333   6.327   9.636   5.295
 9364WAT     H128334   6.229   9.642   5.314
 9364WAT     H228335   6.365   9.728   5.288
 9365WAT      O28336   2.018   5.475   3.629
 9365WAT     H128337   1.930   5.445   3.592
 9365WAT     H228338   2.078   5.501   3.553
 9366WAT      O28339   4.566   0.289   5.258
 9366WAT     H128340   4.660   0.323   5.263
 9366WAT     H228341   4.537   0.285   5.162
 9367WAT      O28342   3.701   0.768   1.913
 9367WAT     H128343   3.668   0.767   1.818
 9367WAT     H228344   3.623   0.754   1.975
 9368WAT      O28345   3.115   8.620   2.944
 9368WAT     H128346   3.075   8.557   2.877
 9368WAT     H228347   3.213   8.604   2.951
 9369WAT      O28348   6.267   9.503   5.809
 9369WAT     H128349   6.292   9.597   5.787
 9369WAT     H228350   6.226   9.460   5.729
 9370WAT      O28351   6.659   1.373   6.701
 9370WAT     H128352   6.620   1.393   6.791
 9370WAT     H228353   6.717   1.292   6.708
 9371WAT      O28354   2.512   2.797   6.731
 9371WAT     H128355   2.423   2.840   6.751
 9371WAT     H228356   2.585   2.852   6.772
 9372WAT      O28357   8.214   1.314   5.172
 9372WAT     H128358   8.209   1.230   5.226
 9372WAT     H228359   8.126   1.362   5.178
 9373WAT      O28360   6.857   8.830   9.170
 9373WAT     H128361   6.774   8.779   9.147
 9373WAT     H228362   6.832   8.922   9.200
 9374WAT      O28363   0.060   4.147   5.087
 9374WAT     H128364   0.012   4.231   5.061
 9374WAT     H228365   0.024   4.115   5.175
 9375WAT      O28366   8.166   2.035   8.017
 9375WAT     H128367   8.211   2.043   8.105
 9375WAT     H228368   8.178   2.119   7.965
 9376WAT      O28369   0.139   2.301   3.705
 9376WAT     H128370   0.045   2.271   3.696
 9376WAT     H228371   0.200   2.230   3.671
 9377WAT      O28372   3.970   9.701   3.772
 9377WAT     H128373   4.040   9.634   3.794
 9377WAT     H228374   4.002   9.792   3.798
 9378WAT      O28375   1.084   6.176   0.625
 9378WAT     H128376   1.028   6.117   0.683
 9378WAT     H228377   1.079   6.270   0.658
 9379WAT      O28378   8.151   0.743   0.844
 9379WAT     H128379   8.151   0.784   0.752
 9379WAT     H228380   8.231   0.775   0.895
 9380WAT      O28381   6.978   3.429   7.123
 9380WAT     H128382   6.934   3.458   7.208
 9380WAT     H228383   7.069   3.393   7.143
 9381WAT      O28384   3.205   8.183   5.838
 9381WAT     H128385   3.287   8.126   5.834
 9381WAT     H228386   3.215   8.251   5.911
 9382WAT      O28387   0.240   5.167   8.321
 9382WAT     H128388   0.308   5.204   8.259
 9382WAT     H228389   0.186   5.097   8.273
 9383WAT      O28390   2.658   7.227   4.201
 9383WAT     H128391   2.638   7.170   4.122
 9383WAT     H228392   2.679   7.169   4.280
 9384WAT      O28393   6.186   9.754   3.671
 9384WAT     H128394   6.231   9.784   3.756
 9384WAT     H228395   6.156   9.834   3.619
 9385WAT      O28396   4.832   7.224   5.112
 9385WAT     H128397   4.839   7.322   5.127
 9385WAT     H228398   4.739   7.194   5.130
 9386WAT      O28399   3.993   3.273   0.715
 9386WAT     H128400   4.033   3.259   0.806
 9386WAT     H228401   3.963   3.368   0.707
 9387WAT      O28402   7.544   1.736   9.438
 9387WAT     H128403   7.536   1.637   9.440
 9387WAT     H228404   7.520   1.770   9.347
 9388WAT      O28405   7.620   0.790   9.384
 9388WAT     H128406   7.581   0.766   9.472
 9388WAT     H228407   7.547   0.804   9.317
 9389WAT      O28408   1.618   7.910   5.333
 9389WAT     H128409   1.620   7.987   5.396
 9389WAT     H228410   1.671   7.834   5.372
 9390WAT      O28411   8.637   2.297   0.876
 9390WAT     H128412   8.621   2.253   0.964
 9390WAT     H228413   8.555   2.347   0.848
 9391WAT      O28414   5.674   2.434   3.687
 9391WAT     H128415   5.709   2.455   3.596
 9391WAT     H228416   5.598   2.369   3.680
 9392WAT      O28417   3.583   0.871   0.982
 9392WAT     H128418   3.644   0.843   1.057
 9392WAT     H228419   3.588   0.971   0.972
 9393WAT      O28420   7.355   8.087   7.464
 9393WAT     H128421   7.414   8.165   7.486
 9393WAT     H228422   7.403   8.026   7.400
 9394WAT      O28423   6.953   5.581   8.136
 9394WAT     H128424   6.996   5.491   8.129
 9394WAT     H228425   6.884   5.590   8.064
 9395WAT      O28426   2.516   4.574   0.144
 9395WAT     H128427   2.508   4.508   0.219
 9395WAT     H228428   2.479   4.534   0.060
 9396WAT      O28429   4.995   3.441   9.059
 9396WAT     H128430   4.900   3.420   9.034
 9396WAT     H228431   5.039   3.491   8.984
 9397WAT      O28432   4.857   7.103   3.543
 9397WAT     H128433   4.772   7.103   3.596
 9397WAT     H228434   4.935   7.103   3.606
 9398WAT      O28435   1.196   2.986   2.476
 9398WAT     H128436   1.282   2.935   2.476
 9398WAT     H228437   1.215   3.083   2.489
 9399WAT      O28438   0.838   0.588   9.728
 9399WAT     H128439   0.813   0.513   9.789
 9399WAT     H228440   0.768   0.599   9.658
 9400WAT      O28441   6.582   4.275   4.630
 9400WAT     H128442   6.589   4.369   4.663
 9400WAT     H228443   6.625   4.213   4.696
 9401WAT      O28444   2.327   5.671   2.593
 9401WAT     H128445   2.236   5.688   2.632
 9401WAT     H228446   2.387   5.748   2.613
 9402WAT      O28447   4.082   6.984   7.351
 9402WAT     H128448   3.995   6.971   7.398
 9402WAT     H228449   4.101   6.906   7.291
 9403WAT      O28450   0.868   3.193   2.288
 9403WAT     H128451   0.832   3.244   2.366
 9403WAT     H228452   0.918   3.113   2.322
 9404WAT      O28453   2.078   7.619   6.853
 9404WAT     H128454   2.133   7.564   6.790
 9404WAT     H228455   2.051   7.563   6.931
 9405WAT      O28456   0.888   5.720   3.571
 9405WAT     H128457   0.973   5.749   3.615
 9405WAT     H228458   0.831   5.671   3.637
 9406WAT      O28459   7.674   5.194   6.527
 9406WAT     H128460   7.743   5.220   6.594
 9406WAT     H228461   7.664   5.095   6.526
 9407WAT      O28462   9.852   5.502   6.272
 9407WAT     H128463   9.929   5.468   6.218
 9407WAT     H228464   9.769   5.450   6.248
 9408WAT      O28465   3.964   0.881   1.986
 9408WAT     H128466   3.881   0.827   1.973
 9408WAT     H228467   3.973   0.947   1.911
 9409WAT      O28468   0.398   5.443   4.528
 9409WAT     H128469   0.336   5.391   4.470
 9409WAT     H228470   0.490   5.440   4.490
 9410WAT      O28471   5.869   2.508   7.105
 9410WAT     H128472   5.816   2.588   7.134
 9410WAT     H228473   5.808   2.443   7.059
 9411WAT      O28474   1.198   3.852   2.610
 9411WAT     H128475   1.155   3.819   2.526
 9411WAT     H228476   1.256   3.931   2.590
 9412WAT      O28477   1.441   0.668   4.773
 9412WAT     H128478   1.392   0.706   4.851
 9412WAT     H228479   1.483   0.581   4.800
 9413WAT      O28480   8.696   0.071   1.168
 9413WAT     H128481   8.613   0.016   1.154
 9413WAT     H228482   8.777   0.013   1.155
 9414WAT      O28483   7.762   1.435   8.547
 9414WAT     H128484   7.785   1.489   8.466
 9414WAT     H228485   7.817   1.352   8.548
 9415WAT      O28486   2.944   9.308   2.067
 9415WAT     H128487   2.918   9.237   2.002
 9415WAT     H228488   3.026   9.354   2.035
 9416WAT      O28489   2.983   2.872   7.376
 9416WAT     H128490   2.885   2.857   7.362
 9416WAT     H228491   3.025   2.900   7.289
 9417WAT      O28492   8.186   5.818   2.799
 9417WAT     H128493   8.186   5.732   2.851
 9417WAT     H228494   8.108   5.874   2.827
 9418WAT      O28495   1.948   5.736   7.148
 9418WAT     H128496   1.856   5.718   7.183
 9418WAT     H228497   1.979   5.826   7.179
 9419WAT      O28498   4.298   4.605   8.558
 9419WAT     H128499   4.311   4.674   8.629
 9419WAT     H228500   4.381   4.599   8.502
 9420WAT      O28501   2.498   2.753   8.099
 9420WAT     H128502   2.458   2.671   8.142
 9420WAT     H228503   2.449   2.773   8.015
 9421WAT      O28504   2.038   4.340   3.644
 9421WAT     H128505   2.111   4.354   3.711
 9421WAT     H228506   2.031   4.422   3.587
 9422WAT      O28507   4.949   5.044   8.690
 9422WAT     H128508   5.023   5.098   8.730
 9422WAT     H228509   4.862   5.092   8.704
 9423WAT      O28510   4.482   6.449   8.160
 9423WAT     H128511   4.384   6.438   8.177
 9423WAT     H228512   4.532   6.372   8.199
 9424WAT      O28513   9.625   8.945   8.915
 9424WAT     H128514   9.526   8.943   8.929
 9424WAT     H228515   9.645   8.965   8.819
 9425WAT      O28516   2.797   2.964   0.325
 9425WAT     H128517   2.807   2.936   0.420
 9425WAT     H228518   2.726   3.033   0.317
 9426WAT      O28519   1.228   4.039   2.934
 9426WAT     H128520   1.210   4.124   2.984
 9426WAT     H228521   1.325   4.017   2.939
 9427WAT      O28522   2.795   7.023   8.583
 9427WAT     H128523   2.853   7.071   8.649
 9427WAT     H228524   2.711   7.076   8.568
 9428WAT      O28525   0.342   4.765   5.692
 9428WAT     H128526   0.385   4.689   5.644
 9428WAT     H228527   0.399   4.792   5.770
 9429WAT      O28528   3.068   9.237   6.113
 9429WAT     H128529   3.136   9.307   6.132
 9429WAT     H228530   2.979   9.266   6.147
 9430WAT      O28531   2.954   5.304   0.619
 9430WAT     H128532   3.049   5.279   0.640
 9430WAT     H228533   2.933   5.393   0.660
 9431WAT      O28534   0.570   3.037   3.517
 9431WAT     H128535   0.531   3.097   3.448
 9431WAT     H228536   0.498   2.978   3.555
 9432WAT      O28537   3.494   2.388   5.176
 9432WAT     H128538   3.522   2.378   5.081
 9432WAT     H228539   3.396   2.369   5.184
 9433WAT      O28540   6.960   9.154   2.587
 9433WAT     H128541   6.878   9.103   2.561
 9433WAT     H228542   7.010   9.104   2.657
 9434WAT      O28543   0.908   2.949   2.427
 9434WAT     H128544   1.004   2.952   2.454
 9434WAT     H228545   0.850   2.953   2.508
 9435WAT      O28546   9.628   8.337   6.176
 9435WAT     H128547   9.546   8.292   6.140
 9435WAT     H228548   9.709   8.295   6.136
 9436WAT      O28549   7.520   2.178   9.352
 9436WAT     H128550   7.490   2.273   9.345
 9436WAT     H228551   7.440   2.118   9.355
 9437WAT      O28552   5.502   7.668   8.053
 9437WAT     H128553   5.490   7.691   7.956
 9437WAT     H228554   5.574   7.726   8.092
 9438WAT      O28555   3.701   7.074   4.942
 9438WAT     H128556   3.702   7.173   4.953
 9438WAT     H228557   3.608   7.044   4.916
 9439WAT      O28558   1.976   1.144   5.693
 9439WAT     H128559   2.047   1.078   5.717
 9439WAT     H228560   1.888   1.096   5.685
 9440WAT      O28561   7.967   1.894   9.168
 9440WAT     H128562   7.887   1.911   9.111
 9440WAT     H228563   8.019   1.978   9.178
 9441WAT      O28564   1.808   0.105   6.442
 9441WAT     H128565   1.875   0.179   6.449
 9441WAT     H228566   1.747   0.123   6.365
 9442WAT      O28567   7.373   8.671   5.516
 9442WAT     H128568   7.436   8.662   5.594
 9442WAT     H228569   7.407   8.742   5.454
 9443WAT      O28570   7.885   8.905   2.806
 9443WAT     H128571   7.905   8.822   2.858
 9443WAT     H228572   7.951   8.914   2.731
 9444WAT      O28573   9.833   3.760   1.648
 9444WAT     H128574   9.838   3.825   1.572
 9444WAT     H228575   9.740   3.723   1.653
 9445WAT      O28576   0.136   8.222   0.901
 9445WAT     H128577   0.146   8.269   0.813
 9445WAT     H228578   0.219   8.233   0.954
 9446WAT      O28579   2.398   0.227   4.708
 9446WAT     H128580   2.453   0.271   4.638
 9446WAT     H228581   2.368   0.137   4.676
 9447WAT      O28582   0.105   4.634   3.738
 9447WAT     H128583   0.076   4.725   3.709
 9447WAT     H228584   0.026   4.574   3.746
 9448WAT      O28585   1.246   0.939   9.463
 9448WAT     H128586   1.254   0.982   9.553
 9448WAT     H228587   1.151   0.942   9.432
 9449WAT      O28588   3.926   3.599   7.732
 9449WAT     H128589   3.964   3.687   7.703
 9449WAT     H228590   3.838   3.585   7.686
 9450WAT      O28591   3.196   2.019   2.012
 9450WAT     H128592   3.235   1.949   2.072
 9450WAT     H228593   3.110   1.986   1.973
 9451WAT      O28594   9.051   9.784   2.040
 9451WAT     H128595   9.023   9.870   2.083
 9451WAT     H228596   9.150   9.774   2.048
 9452WAT      O28597   5.081   3.143   5.287
 9452WAT     H128598   4.987   3.124   5.314
 9452WAT     H228599   5.082   3.218   5.221
 9453WAT      O28600   2.087   2.678   7.691
 9453WAT     H128601   2.013   2.649   7.752
 9453WAT     H228602   2.150   2.602   7.676
 9454WAT      O28603   0.659   8.002   6.187
 9454WAT     H128604   0.689   8.047   6.271
 9454WAT     H228605   0.568   8.036   6.162
 9455WAT      O28606   4.333   1.484   9.001
 9455WAT     H128607   4.277   1.500   9.082
 9455WAT     H228608   4.280   1.508   8.919
 9456WAT      O28609   3.133   8.266   9.870
 9456WAT     H128610   3.087   8.194   9.817
 9456WAT     H228611   3.104   8.261   9.966
 9457WAT      O28612   9.811   7.514   9.331
 9457WAT     H128613   9.824   7.608   9.362
 9457WAT     H228614   9.891   7.485   9.278
 9458WAT      O28615   8.435   5.414   7.089
 9458WAT     H128616   8.344   5.449   7.066
 9458WAT     H228617   8.427   5.320   7.121
 9459WAT      O28618   0.352   4.300   9.801
 9459WAT     H128619   0.349   4.393   9.763
 9459WAT     H228620   0.387   4.237   9.731
 9460WAT      O28621   6.772   8.963   4.786
 9460WAT     H128622   6.702   8.905   4.743
 9460WAT     H228623   6.845   8.981   4.719
 9461WAT      O28624   4.139   4.422   1.780
 9461WAT     H128625   4.143   4.483   1.701
 9461WAT     H228626   4.203   4.346   1.767
 9462WAT      O28627   5.033   5.895   2.865
 9462WAT     H128628   5.034   5.992   2.840
 9462WAT     H228629   5.113   5.875   2.921
 9463WAT      O28630   7.672   3.999   1.946
 9463WAT     H128631   7.686   3.948   2.030
 9463WAT     H228632   7.750   4.060   1.930
 9464WAT      O28633   8.611   8.127   2.694
 9464WAT     H128634   8.686   8.071   2.660
 9464WAT     H228635   8.536   8.126   2.628
 9465WAT      O28636   1.581   4.938   1.753
 9465WAT     H128637   1.643   4.865   1.722
 9465WAT     H228638   1.492   4.925   1.710
 9466WAT      O28639   9.019   2.272   1.585
 9466WAT     H128640   9.018   2.330   1.666
 9466WAT     H228641   9.041   2.327   1.505
 9467WAT      O28642   5.548   5.817   8.721
 9467WAT     H128643   5.644   5.845   8.719
 9467WAT     H228644   5.498   5.864   8.648
 9468WAT      O28645   9.588   1.381   8.977
 9468WAT     H128646   9.596   1.384   9.076
 9468WAT     H228647   9.493   1.367   8.951
 9469WAT      O28648   3.702   7.562   8.765
 9469WAT     H128649   3.603   7.562   8.776
 9469WAT     H228650   3.734   7.656   8.748
 9470WAT      O28651   2.900   0.342   2.994
 9470WAT     H128652   2.878   0.402   2.917
 9470WAT     H228653   2.868   0.250   2.975
 9471WAT      O28654   6.068   1.757   4.657
 9471WAT     H128655   6.040   1.824   4.724
 9471WAT     H228656   6.168   1.753   4.653
 9472WAT      O28657   2.176   8.886   8.728
 9472WAT     H128658   2.245   8.861   8.660
 9472WAT     H228659   2.092   8.834   8.712
 9473WAT      O28660   0.886   7.004   3.871
 9473WAT     H128661   0.892   6.927   3.808
 9473WAT     H228662   0.859   7.086   3.821
 9474WAT      O28663   0.595   6.550   3.917
 9474WAT     H128664   0.566   6.646   3.925
 9474WAT     H228665   0.558   6.497   3.993
 9475WAT      O28666   8.285   7.979   6.862
 9475WAT     H128667   8.233   8.054   6.903
 9475WAT     H228668   8.222   7.911   6.824
 9476WAT      O28669   3.705   8.022   0.615
 9476WAT     H128670   3.759   7.941   0.593
 9476WAT     H228671   3.717   8.044   0.712
 9477WAT      O28672   2.317   4.800   2.800
 9477WAT     H128673   2.413   4.773   2.811
 9477WAT     H228674   2.301   4.831   2.706
 9478WAT      O28675   3.924   5.707   9.345
 9478WAT     H128676   3.864   5.767   9.292
 9478WAT     H228677   3.870   5.630   9.380
 9479WAT      O28678   8.032   8.325   9.526
 9479WAT     H128679   7.999   8.382   9.601
 9479WAT     H228680   8.010   8.367   9.438
 9480WAT      O28681   4.618   3.802   9.206
 9480WAT     H128682   4.558   3.880   9.184
 9480WAT     H228683   4.673   3.778   9.126
 9481WAT      O28684   8.430   9.055   1.447
 9481WAT     H128685   8.431   9.052   1.547
 9481WAT     H228686   8.495   9.125   1.415
 9482WAT      O28687   5.030   4.341   7.131
 9482WAT     H128688   5.017   4.391   7.217
 9482WAT     H228689   4.974   4.258   7.133
 9483WAT      O28690   9.314   4.583   7.681
 9483WAT     H128691   9.410   4.606   7.695
 9483WAT     H228692   9.258   4.625   7.753
 9484WAT      O28693   8.701   3.581   1.944
 9484WAT     H128694   8.713   3.519   2.021
 9484WAT     H228695   8.731   3.536   1.860
 9485WAT      O28696   3.149   8.735   0.081
 9485WAT     H128697   3.128   8.666   0.012
 9485WAT     H228698   3.106   8.711   0.168
 9486WAT      O28699   9.565   8.786   4.885
 9486WAT     H128700   9.521   8.744   4.965
 9486WAT     H228701   9.501   8.787   4.809
 9487WAT      O28702   6.294   6.588   7.020
 9487WAT     H128703   6.360   6.524   6.980
 9487WAT     H228704   6.313   6.599   7.118
 9488WAT      O28705   8.924   0.305   6.318
 9488WAT     H128706   8.876   0.276   6.401
 9488WAT     H228707   8.931   0.227   6.256
 9489WAT      O28708   5.993   6.065   0.034
 9489WAT     H128709   6.037   6.129   0.097
 9489WAT     H228710   6.006   5.971   0.067
 9490WAT      O28711   1.539   8.941   2.653
 9490WAT     H128712   1.447   8.907   2.669
 9490WAT     H228713   1.596   8.922   2.733
 9491WAT      O28714   7.015   9.583   3.465
 9491WAT     H128715   6.993   9.496   3.422
 9491WAT     H228716   7.005   9.657   3.398
 9492WAT      O28717   3.892   1.647   5.967
 9492WAT     H128718   3.811   1.695   6.003
 9492WAT     H228719   3.974   1.695   5.996
 9493WAT      O28720   9.109   3.925   6.138
 9493WAT     H128721   9.165   4.005   6.157
 9493WAT     H228722   9.090   3.920   6.040
 9494WAT      O28723   8.569   9.479   7.777
 9494WAT     H128724   8.612   9.558   7.820
 9494WAT     H228725   8.483   9.458   7.823
 9495WAT      O28726   6.844   8.745   4.546
 9495WAT     H128727   6.933   8.773   4.582
 9495WAT     H228728   6.835   8.776   4.452
 9496WAT      O28729   1.101   8.022   1.575
 9496WAT     H128730   1.191   8.010   1.531
 9496WAT     H228731   1.033   7.967   1.526
 9497WAT      O28732   0.602   5.579   7.408
 9497WAT     H128733   0.523   5.532   7.447
 9497WAT     H228734   0.656   5.515   7.354
 9498WAT      O28735   1.564   2.620   8.729
 9498WAT     H128736   1.497   2.682   8.688
 9498WAT     H228737   1.621   2.581   8.657
 9499WAT      O28738   0.793   7.812   1.200
 9499WAT     H128739   0.740   7.896   1.197
 9499WAT     H228740   0.754   7.751   1.269
 9500WAT      O28741   7.873   6.568   5.046
 9500WAT     H128742   7.808   6.532   4.980
 9500WAT     H228743   7.939   6.627   4.999
 9501WAT      O28744   5.687   5.730   6.432
 9501WAT     H128745   5.658   5.729   6.528
 9501WAT     H228746   5.609   5.754   6.374
 9502WAT      O28747   9.335   4.354   1.548
 9502WAT     H128748   9.242   4.335   1.517
 9502WAT     H228749   9.396   4.362   1.468
 9503WAT      O28750   7.492   2.318   4.395
 9503WAT     H128751   7.467   2.410   4.366
 9503WAT     H228752   7.430   2.252   4.353
 9504WAT      O28753   2.826   1.152   3.582
 9504WAT     H128754   2.921   1.125   3.598
 9504WAT     H228755   2.773   1.140   3.666
 9505WAT      O28756   9.380   5.017   6.134
 9505WAT     H128757   9.393   4.986   6.040
 9505WAT     H228758   9.284   5.037   6.150
 9506WAT      O28759   1.482   8.383   7.915
 9506WAT     H128760   1.477   8.366   7.817
 9506WAT     H228761   1.528   8.470   7.932
 9507WAT      O28762   0.511   8.608   5.067
 9507WAT     H128763   0.429   8.552   5.061
 9507WAT     H228764   0.506   8.665   5.149
 9508WAT      O28765   3.446   5.237   2.561
 9508WAT     H128766   3.538   5.239   2.520
 9508WAT     H228767   3.381   5.281   2.499
 9509WAT      O28768   2.935   3.640   7.072
 9509WAT     H128769   3.017   3.684   7.034
 9509WAT     H228770   2.955   3.544   7.092
 9510WAT      O28771   9.447   1.925   0.398
 9510WAT     H128772   9.482   2.007   0.351
 9510WAT     H228773   9.348   1.935   0.412
 9511WAT      O28774   1.914   2.821   1.742
 9511WAT     H128775   1.889   2.725   1.756
 9511WAT     H228776   1.875   2.877   1.815
 9512WAT      O28777   7.314   0.203   0.235
 9512WAT     H128778   7.288   0.299   0.226
 9512WAT     H228779   7.349   0.170   0.147
 9513WAT      O28780   4.380   8.569   0.364
 9513WAT     H128781   4.349   8.511   0.288
 9513WAT     H228782   4.465   8.531   0.402
 9514WAT      O28783   6.164   1.838   9.295
 9514WAT     H128784   6.130   1.857   9.203
 9514WAT     H228785   6.133   1.910   9.357
 9515WAT      O28786   9.360   6.887   9.813
 9515WAT     H128787   9.298   6.882   9.735
 9515WAT     H228788   9.311   6.863   9.896
 9516WAT      O28789   6.828   8.379   1.537
 9516WAT     H128790   6.888   8.300   1.543
 9516WAT     H228791   6.804   8.410   1.629
 9517WAT      O28792   1.344   7.407   7.319
 9517WAT     H128793   1.398   7.426   7.401
 9517WAT     H228794   1.257   7.456   7.324
 9518WAT      O28795   9.221   3.296   9.280
 9518WAT     H128796   9.283   3.219   9.263
 9518WAT     H228797   9.266   3.362   9.340
 9519WAT      O28798   1.305   0.490   4.601
 9519WAT     H128799   1.252   0.453   4.677
 9519WAT     H228800   1.356   0.571   4.632
 9520WAT      O28801   6.868   4.012   8.988
 9520WAT     H128802   6.843   4.053   8.900
 9520WAT     H228803   6.787   4.010   9.047
 9521WAT      O28804   6.769   8.899   8.005
 9521WAT     H128805   6.835   8.861   7.941
 9521WAT     H228806   6.678   8.901   7.963
 9522WAT      O28807   6.924   1.178   6.538
 9522WAT     H128808   6.872   1.167   6.623
 9522WAT     H228809   7.000   1.114   6.536
 9523WAT      O28810   2.104   7.626   1.792
 9523WAT     H128811   2.167   7.592   1.861
 9523WAT     H228812   2.014   7.640   1.833
 9524WAT      O28813   3.385   4.591   9.089
 9524WAT     H128814   3.400   4.672   9.033
 9524WAT     H228815   3.450   4.520   9.063
 9525WAT      O28816   6.649   4.907   4.871
 9525WAT     H128817   6.667   4.814   4.840
 9525WAT     H228818   6.640   4.967   4.792
 9526WAT      O28819   1.918   7.832   3.210
 9526WAT     H128820   2.007   7.869   3.237
 9526WAT     H228821   1.894   7.756   3.270
 9527WAT      O28822   6.128   8.567   7.308
 9527WAT     H128823   6.179   8.482   7.293
 9527WAT     H228824   6.049   8.548   7.366
 9528WAT      O28825   9.404   4.728   8.044
 9528WAT     H128826   9.310   4.730   8.009
 9528WAT     H228827   9.401   4.719   8.144
 9529WAT      O28828   6.535   9.747   8.568
 9529WAT     H128829   6.628   9.766   8.600
 9529WAT     H228830   6.512   9.811   8.494
 9530WAT      O28831   2.835   5.928   5.788
 9530WAT     H128832   2.845   5.939   5.689
 9530WAT     H228833   2.797   5.838   5.808
 9531WAT      O28834   0.120   4.918   8.860
 9531WAT     H128835   0.054   4.930   8.786
 9531WAT     H228836   0.093   4.973   8.939
 9532WAT      O28837   1.833   9.123   7.624
 9532WAT     H128838   1.830   9.041   7.683
 9532WAT     H228839   1.837   9.095   7.528
 9533WAT      O28840   4.193   6.399   2.930
 9533WAT     H128841   4.143   6.386   3.016
 9533WAT     H228842   4.185   6.495   2.901
 9534WAT      O28843   5.120   0.396   5.562
 9534WAT     H128844   5.122   0.491   5.531
 9534WAT     H228845   5.214   0.361   5.570
 9535WAT      O28846   0.736   7.902   0.683
 9535WAT     H128847   0.702   7.835   0.617
 9535WAT     H228848   0.684   7.987   0.674
 9536WAT      O28849   4.663   1.907   8.073
 9536WAT     H128850   4.658   2.007   8.065
 9536WAT     H228851   4.632   1.879   8.164
 9537WAT      O28852   8.410   5.526   3.462
 9537WAT     H128853   8.379   5.621   3.470
 9537WAT     H228854   8.331   5.464   3.470
 9538WAT      O28855   2.029   4.285   2.056
 9538WAT     H128856   2.008   4.372   2.012
 9538WAT     H228857   2.075   4.302   2.144
 9539WAT      O28858   2.813   4.876   1.648
 9539WAT     H128859   2.752   4.953   1.627
 9539WAT     H228860   2.907   4.901   1.626
 9540WAT      O28861   3.814   7.083   0.141
 9540WAT     H128862   3.903   7.037   0.132
 9540WAT     H228863   3.743   7.027   0.098
 9541WAT      O28864   4.684   4.122   8.472
 9541WAT     H128865   4.647   4.196   8.528
 9541WAT     H228866   4.717   4.049   8.532
 9542WAT      O28867   9.444   2.502   5.325
 9542WAT     H128868   9.479   2.556   5.248
 9542WAT     H228869   9.442   2.405   5.300
 9543WAT      O28870   7.626   6.442   6.421
 9543WAT     H128871   7.708   6.400   6.381
 9543WAT     H228872   7.614   6.534   6.383
 9544WAT      O28873   7.412   6.968   1.906
 9544WAT     H128874   7.405   6.910   1.987
 9544WAT     H228875   7.385   7.062   1.929
 9545WAT      O28876   2.515   2.435   4.007
 9545WAT     H128877   2.444   2.373   4.043
 9545WAT     H228878   2.569   2.471   4.082
 9546WAT      O28879   2.742   5.616   5.472
 9546WAT     H128880   2.830   5.574   5.451
 9546WAT     H228881   2.685   5.617   5.390
 9547WAT      O28882   5.304   9.402   8.372
 9547WAT     H128883   5.343   9.310   8.382
 9547WAT     H228884   5.312   9.431   8.277
 9548WAT      O28885   1.611   3.401   7.307
 9548WAT     H128886   1.623   3.329   7.239
 9548WAT     H228887   1.562   3.363   7.386
 9549WAT      O28888   5.163   9.650   0.600
 9549WAT     H128889   5.236   9.715   0.581
 9549WAT     H228890   5.185   9.599   0.683
 9550WAT      O28891   2.052   5.005   3.627
 9550WAT     H128892   1.990   5.071   3.671
 9550WAT     H228893   2.120   5.055   3.574
 9551WAT      O28894   2.748   0.132   1.966
 9551WAT     H128895   2.825   0.091   2.015
 9551WAT     H228896   2.781   0.206   1.907
 9552WAT      O28897   2.331   2.376   4.666
 9552WAT     H128898   2.342   2.294   4.721
 9552WAT     H228899   2.339   2.352   4.569
 9553WAT      O28900   4.609   3.037   7.945
 9553WAT     H128901   4.623   2.955   7.889
 9553WAT     H228902   4.615   3.118   7.888
 9554WAT      O28903   2.584   4.286   8.377
 9554WAT     H128904   2.657   4.348   8.348
 9554WAT     H228905   2.524   4.333   8.442
 9555WAT      O28906   4.975   0.993   6.598
 9555WAT     H128907   5.033   1.071   6.625
 9555WAT     H228908   4.973   0.926   6.673
 9556WAT      O28909   6.671   4.618   3.844
 9556WAT     H128910   6.671   4.523   3.811
 9556WAT     H228911   6.619   4.624   3.929
 9557WAT      O28912   0.826   9.349   4.307
 9557WAT     H128913   0.830   9.417   4.233
 9557WAT     H228914   0.775   9.388   4.384
 9558WAT      O28915   6.938   4.898   5.549
 9558WAT     H128916   6.991   4.858   5.624
 9558WAT     H228917   6.841   4.896   5.573
 9559WAT      O28918   9.064   0.836   1.065
 9559WAT     H128919   9.071   0.934   1.079
 9559WAT     H228920   8.988   0.815   1.004
 9560WAT      O28921   4.754   2.195   0.749
 9560WAT     H128922   4.853   2.183   0.755
 9560WAT     H228923   4.731   2.233   0.660
 9561WAT      O28924   5.518   7.026   5.426
 9561WAT     H128925   5.533   6.980   5.338
 9561WAT     H228926   5.471   6.964   5.489
 9562WAT      O28927   0.970   6.827   9.693
 9562WAT     H128928   0.976   6.848   9.791
 9562WAT     H228929   0.976   6.728   9.680
 9563WAT      O28930   5.438   4.563   1.080
 9563WAT     H128931   5.434   4.559   0.980
 9563WAT     H228932   5.351   4.530   1.117
 9564WAT      O28933   4.973   7.314   6.161
 9564WAT     H128934   4.968   7.411   6.183
 9564WAT     H228935   4.947   7.260   6.240
 9565WAT      O28936   7.450   7.568   6.706
 9565WAT     H128937   7.506   7.632   6.759
 9565WAT     H228938   7.434   7.485   6.759
 9566WAT      O28939   8.546   0.573   2.393
 9566WAT     H128940   8.558   0.587   2.295
 9566WAT     H228941   8.493   0.649   2.431
 9567WAT      O28942   6.745   8.392   4.323
 9567WAT     H128943   6.787   8.419   4.410
 9567WAT     H228944   6.655   8.435   4.314
 9568WAT      O28945   8.916   3.113   5.929
 9568WAT     H128946   8.844   3.179   5.954
 9568WAT     H228947   8.888   3.021   5.957
 9569WAT      O28948   7.534   9.046   7.162
 9569WAT     H128949   7.483   9.048   7.077
 9569WAT     H228950   7.567   9.138   7.184
 9570WAT      O28951   3.233   4.467   6.968
 9570WAT     H128952   3.293   4.468   6.888
 9570WAT     H228953   3.229   4.375   7.006
 9571WAT      O28954   1.959   1.275   6.466
 9571WAT     H128955   1.926   1.365   6.495
 9571WAT     H228956   1.980   1.277   6.368
 9572WAT      O28957   7.379   5.086   4.147
 9572WAT     H128958   7.462   5.032   4.139
 9572WAT     H228959   7.373   5.126   4.238
 9573WAT      O28960   6.251   3.526   2.719
 9573WAT     H128961   6.320   3.520   2.647
 9573WAT     H228962   6.296   3.529   2.809
 9574WAT      O28963   9.435   2.691   3.618
 9574WAT     H128964   9.517   2.634   3.626
 9574WAT     H228965   9.409   2.725   3.708
 9575WAT      O28966   9.507   0.059   8.584
 9575WAT     H128967   9.461   0.148   8.577
 9575WAT     H228968   9.603   0.069   8.560
 9576WAT      O28969   3.791   8.676   3.338
 9576WAT     H128970   3.723   8.602   3.332
 9576WAT     H228971   3.803   8.701   3.434
 9577WAT      O28972   1.072   0.823   4.895
 9577WAT     H128973   1.026   0.909   4.917
 9577WAT     H228974   1.051   0.796   4.801
 9578WAT      O28975   9.791   6.448   2.994
 9578WAT     H128976   9.706   6.472   3.041
 9578WAT     H228977   9.845   6.531   2.979
 9579WAT      O28978   2.955   5.692   0.548
 9579WAT     H128979   2.893   5.647   0.484
 9579WAT     H228980   2.959   5.790   0.526
 9580WAT      O28981   4.467   4.821   7.306
 9580WAT     H128982   4.463   4.890   7.378
 9580WAT     H228983   4.561   4.812   7.273
 9581WAT      O28984   3.238   9.290   1.480
 9581WAT     H128985   3.188   9.253   1.402
 9581WAT     H228986   3.251   9.218   1.548
 9582WAT      O28987   3.480   6.212   8.488
 9582WAT     H128988   3.551   6.279   8.466
 9582WAT     H228989   3.521   6.120   8.493
 9583WAT      O28990   5.703   1.649   5.905
 9583WAT     H128991   5.749   1.584   5.844
 9583WAT     H228992   5.698   1.738   5.861
 9584WAT      O28993   0.580   4.711   8.006
 9584WAT     H128994   0.602   4.618   8.035
 9584WAT     H228995   0.664   4.764   7.994
 9585WAT      O28996   2.592   4.144   5.969
 9585WAT     H128997   2.666   4.168   5.907
 9585WAT     H228998   2.606   4.051   6.003
 9586WAT      O28999   5.196   0.228   6.236
 9586WAT     H129000   5.206   0.143   6.185
 9586WAT     H229001   5.101   0.240   6.265
 9587WAT      O29002   9.719   2.292   1.344
 9587WAT     H129003   9.708   2.251   1.254
 9587WAT     H229004   9.766   2.380   1.335
 9588WAT      O29005   6.715   7.041   0.915
 9588WAT     H129006   6.695   7.122   0.861
 9588WAT     H229007   6.792   7.059   0.975
 9589WAT      O29008   8.311   3.856   4.508
 9589WAT     H129009   8.379   3.929   4.496
 9589WAT     H229010   8.304   3.804   4.424
 9590WAT      O29011   3.846   9.184   8.027
 9590WAT     H129012   3.884   9.101   8.068
 9590WAT     H229013   3.911   9.260   8.038
 9591WAT      O29014   0.550   0.421   8.981
 9591WAT     H129015   0.610   0.486   9.028
 9591WAT     H229016   0.542   0.337   9.035
 9592WAT      O29017   1.693   0.624   6.411
 9592WAT     H129018   1.621   0.685   6.443
 9592WAT     H229019   1.676   0.531   6.444
 9593WAT      O29020   6.042   0.484   6.788
 9593WAT     H129021   6.048   0.583   6.796
 9593WAT     H229022   5.963   0.451   6.839
 9594WAT      O29023   0.965   8.380   1.289
 9594WAT     H129024   0.908   8.329   1.225
 9594WAT     H229025   1.017   8.317   1.345
 9595WAT      O29026   3.027   5.442   4.458
 9595WAT     H129027   3.024   5.474   4.552
 9595WAT     H229028   2.948   5.384   4.439
 9596WAT      O29029   7.504   4.862   7.289
 9596WAT     H129030   7.428   4.807   7.325
 9596WAT     H229031   7.589   4.836   7.336
 9597WAT      O29032   8.319   1.529   3.613
 9597WAT     H129033   8.366   1.500   3.530
 9597WAT     H229034   8.293   1.625   3.605
 9598WAT      O29035   7.119   7.048   5.892
 9598WAT     H129036   7.194   7.095   5.846
 9598WAT     H229037   7.042   7.039   5.829
 9599WAT      O29038   0.439   7.689   2.099
 9599WAT     H129039   0.409   7.608   2.148
 9599WAT     H229040   0.523   7.668   2.047
 9600WAT      O29041   3.910   7.213   6.459
 9600WAT     H129042   3.950   7.300   6.429
 9600WAT     H229043   3.930   7.199   6.556
 9601WAT      O29044   2.937   1.594   1.333
 9601WAT     H129045   2.871   1.520   1.327
 9601WAT     H229046   2.918   1.650   1.414
 9602WAT      O29047   1.036   1.514   7.582
 9602WAT     H129048   1.081   1.543   7.498
 9602WAT     H229049   0.956   1.572   7.598
 9603WAT      O29050   7.730   0.214   2.275
 9603WAT     H129051   7.782   0.295   2.249
 9603WAT     H229052   7.751   0.140   2.212
 9604WAT      O29053   0.340   8.160   4.755
 9604WAT     H129054   0.255   8.212   4.762
 9604WAT     H229055   0.405   8.209   4.698
 9605WAT      O29056   5.634   5.333   0.004
 9605WAT     H129057   5.575   5.252  -0.005
 9605WAT     H229058   5.651   5.351   0.101
 9606WAT      O29059   2.330   3.375   7.721
 9606WAT     H129060   2.278   3.453   7.757
 9606WAT     H229061   2.288   3.290   7.753
 9607WAT      O29062   3.200   5.973   9.698
 9607WAT     H129063   3.270   5.943   9.764
 9607WAT     H229064   3.112   5.935   9.724
 9608WAT      O29065   4.183   7.500   3.479
 9608WAT     H129066   4.245   7.432   3.438
 9608WAT     H229067   4.177   7.580   3.419
 9609WAT      O29068   8.395   1.099   0.263
 9609WAT     H129069   8.324   1.115   0.332
 9609WAT     H229070   8.353   1.099   0.172
 9610WAT      O29071   7.014   6.571   4.818
 9610WAT     H129072   7.062   6.535   4.738
 9610WAT     H229073   6.980   6.663   4.798
 9611WAT      O29074   3.144   1.785   3.594
 9611WAT     H129075   3.073   1.832   3.646
 9611WAT     H229076   3.180   1.709   3.647
 9612WAT      O29077   2.421   3.096   9.447
 9612WAT     H129078   2.346   3.035   9.474
 9612WAT     H229079   2.490   3.097   9.519
 9613WAT      O29080   5.588   5.120   2.460
 9613WAT     H129081   5.494   5.104   2.432
 9613WAT     H229082   5.600   5.091   2.555
 9614WAT      O29083   7.946   5.189   9.812
 9614WAT     H129084   8.034   5.146   9.792
 9614WAT     H229085   7.940   5.276   9.763
 9615WAT      O29086   4.480   0.773   7.841
 9615WAT     H129087   4.553   0.713   7.872
 9615WAT     H229088   4.489   0.789   7.742
 9616WAT      O29089   9.458   0.450   4.359
 9616WAT     H129090   9.517   0.404   4.292
 9616WAT     H229091   9.513   0.511   4.415
 9617WAT      O29092   0.267   0.454   4.241
 9617WAT     H129093   0.192   0.444   4.306
 9617WAT     H229094   0.325   0.373   4.244
 9618WAT      O29095   2.005   6.459   7.765
 9618WAT     H129096   2.021   6.416   7.855
 9618WAT     H229097   1.963   6.392   7.704
 9619WAT      O29098   5.138   6.177   6.329
 9619WAT     H129099   5.221   6.229   6.351
 9619WAT     H229100   5.119   6.113   6.403
 9620WAT      O29101   3.928   8.506   4.855
 9620WAT     H129102   3.895   8.599   4.868
 9620WAT     H229103   3.899   8.472   4.766
 9621WAT      O29104   0.804   3.331   7.572
 9621WAT     H129105   0.711   3.346   7.539
 9621WAT     H229106   0.867   3.336   7.495
 9622WAT      O29107   4.144   0.690   6.307
 9622WAT     H129108   4.174   0.616   6.247
 9622WAT     H229109   4.190   0.682   6.396
 9623WAT      O29110   3.683   8.614   3.881
 9623WAT     H129111   3.639   8.693   3.925
 9623WAT     H229112   3.613   8.548   3.855
 9624WAT      O29113   1.898   1.348   9.518
 9624WAT     H129114   1.971   1.413   9.502
 9624WAT     H229115   1.925   1.258   9.483
 9625WAT      O29116   0.310   7.498   0.305
 9625WAT     H129117   0.253   7.416   0.309
 9625WAT     H229118   0.304   7.547   0.392
 9626WAT      O29119   8.635   0.273   8.245
 9626WAT     H129120   8.647   0.365   8.283
 9626WAT     H229121   8.545   0.266   8.202
 9627WAT      O29122   5.755   2.090   3.430
 9627WAT     H129123   5.798   2.026   3.367
 9627WAT     H229124   5.684   2.141   3.382
 9628WAT      O29125   3.890   8.962   2.142
 9628WAT     H129126   3.972   8.908   2.122
 9628WAT     H229127   3.863   8.946   2.237
 9629WAT      O29128   4.208   5.515   2.770
 9629WAT     H129129   4.277   5.552   2.709
 9629WAT     H229130   4.240   5.519   2.864
 9630WAT      O29131   0.647   7.474   3.577
 9630WAT     H129132   0.568   7.533   3.564
 9630WAT     H229133   0.660   7.456   3.674
 9631WAT      O29134   5.257   0.435   6.022
 9631WAT     H129135   5.175   0.455   5.968
 9631WAT     H229136   5.231   0.385   6.105
 9632WAT      O29137   6.869   1.236   6.005
 9632WAT     H129138   6.887   1.298   6.081
 9632WAT     H229139   6.821   1.155   6.040
 9633WAT      O29140   1.922   9.671   1.335
 9633WAT     H129141   1.913   9.760   1.380
 9633WAT     H229142   2.015   9.637   1.348
 9634WAT      O29143   3.070   3.106   2.997
 9634WAT     H129144   3.160   3.128   2.959
 9634WAT     H229145   3.026   3.036   2.942
 9635WAT      O29146   1.303   2.819   2.072
 9635WAT     H129147   1.206   2.829   2.050
 9635WAT     H229148   1.312   2.762   2.154
 9636WAT      O29149   0.828   3.419   5.240
 9636WAT     H129150   0.764   3.356   5.285
 9636WAT     H229151   0.850   3.494   5.302
 9637WAT      O29152   5.327   6.650   0.537
 9637WAT     H129153   5.282   6.637   0.625
 9637WAT     H229154   5.391   6.576   0.521
 9638WAT      O29155   2.371   8.573   8.540
 9638WAT     H129156   2.436   8.508   8.500
 9638WAT     H229157   2.354   8.548   8.635
 9639WAT      O29158   4.716   5.915   4.163
 9639WAT     H129159   4.761   5.837   4.118
 9639WAT     H229160   4.734   5.911   4.262
 9640WAT      O29161   0.427   5.981   8.323
 9640WAT     H129162   0.328   5.978   8.308
 9640WAT     H229163   0.471   6.031   8.248
 9641WAT      O29164   0.455   6.444   2.801
 9641WAT     H129165   0.426   6.383   2.728
 9641WAT     H229166   0.446   6.397   2.889
 9642WAT      O29167   5.023   6.218   3.203
 9642WAT     H129168   4.937   6.221   3.152
 9642WAT     H229169   5.003   6.223   3.301
 9643WAT      O29170   1.919   7.505   6.178
 9643WAT     H129171   1.963   7.472   6.094
 9643WAT     H229172   1.970   7.472   6.257
 9644WAT      O29173   9.850   1.572   2.629
 9644WAT     H129174   9.872   1.611   2.719
 9644WAT     H229175   9.847   1.473   2.635
 9645WAT      O29176   4.877   0.598   1.696
 9645WAT     H129177   4.792   0.565   1.655
 9645WAT     H229178   4.952   0.536   1.672
 9646WAT      O29179   7.351   4.874   1.138
 9646WAT     H129180   7.403   4.958   1.126
 9646WAT     H229181   7.390   4.801   1.082
 9647WAT      O29182   9.864   2.842   8.840
 9647WAT     H129183   9.834   2.747   8.847
 9647WAT     H229184   9.908   2.857   8.751
 9648WAT      O29185   7.501   6.673   2.141
 9648WAT     H129186   7.566   6.739   2.178
 9648WAT     H229187   7.550   6.589   2.116
 9649WAT      O29188   0.844   4.576   5.513
 9649WAT     H129189   0.841   4.504   5.583
 9649WAT     H229190   0.910   4.645   5.539
 9650WAT      O29191   2.463   4.247   6.166
 9650WAT     H129192   2.381   4.190   6.167
 9650WAT     H229193   2.516   4.227   6.084
 9651WAT      O29194   3.324   9.159   7.788
 9651WAT     H129195   3.262   9.127   7.716
 9651WAT     H229196   3.311   9.103   7.870
 9652WAT      O29197   2.092   9.066   2.898
 9652WAT     H129198   2.182   9.105   2.915
 9652WAT     H229199   2.063   9.088   2.805
 9653WAT      O29200   4.975   3.827   7.699
 9653WAT     H129201   4.879   3.800   7.708
 9653WAT     H229202   5.023   3.809   7.785
 9654WAT      O29203   3.501   1.813   3.521
 9654WAT     H129204   3.571   1.884   3.520
 9654WAT     H229205   3.536   1.730   3.476
 9655WAT      O29206   8.963   4.143   1.646
 9655WAT     H129207   9.011   4.222   1.608
 9655WAT     H229208   8.970   4.067   1.581
 9656WAT      O29209   2.977   9.207   3.841
 9656WAT     H129210   2.998   9.114   3.813
 9656WAT     H229211   3.032   9.231   3.921
 9657WAT      O29212   2.105   7.878   7.018
 9657WAT     H129213   2.072   7.831   6.936
 9657WAT     H229214   2.095   7.977   7.005
 9658WAT      O29215   1.525   5.494   2.194
 9658WAT     H129216   1.499   5.429   2.266
 9658WAT     H229217   1.544   5.584   2.236
 9659WAT      O29218   0.400   4.462   6.849
 9659WAT     H129219   0.349   4.470   6.764
 9659WAT     H229220   0.434   4.369   6.858
 9660WAT      O29221   6.907   9.087   6.499
 9660WAT     H129222   6.885   9.183   6.481
 9660WAT     H229223   6.825   9.040   6.533
 9661WAT      O29224   4.817   8.057   5.897
 9661WAT     H129225   4.786   8.127   5.960
 9661WAT     H229226   4.885   8.095   5.835
 9662WAT      O29227   2.778   6.533   5.818
 9662WAT     H129228   2.701   6.475   5.845
 9662WAT     H229229   2.744   6.624   5.795
 9663WAT      O29230   6.541   2.641   6.197
 9663WAT     H129231   6.520   2.714   6.261
 9663WAT     H229232   6.636   2.611   6.210
 9664WAT      O29233   7.950   7.132   7.599
 9664WAT     H129234   7.929   7.113   7.503
 9664WAT     H229235   8.002   7.217   7.605
 9665WAT      O29236   7.276   1.383   1.581
 9665WAT     H129237   7.355   1.409   1.525
 9665WAT     H229238   7.220   1.463   1.599
 9666WAT      O29239   7.426   0.205   9.053
 9666WAT     H129240   7.468   0.197   8.963
 9666WAT     H229241   7.330   0.230   9.043
 9667WAT      O29242   5.569   6.408   9.051
 9667WAT     H129243   5.536   6.314   9.045
 9667WAT     H229244   5.593   6.429   9.145
 9668WAT      O29245   4.625   2.854   7.748
 9668WAT     H129246   4.545   2.844   7.689
 9668WAT     H229247   4.701   2.801   7.710
 9669WAT      O29248   6.050   1.205   5.900
 9669WAT     H129249   6.067   1.263   5.820
 9669WAT     H229250   5.952   1.189   5.909
 9670WAT      O29251   6.483   1.924   1.804
 9670WAT     H129252   6.497   1.937   1.706
 9670WAT     H229253   6.554   1.862   1.839
 9671WAT      O29254   8.301   3.707   9.613
 9671WAT     H129255   8.255   3.708   9.701
 9671WAT     H229256   8.370   3.780   9.610
 9672WAT      O29257   0.337   7.246   9.305
 9672WAT     H129258   0.315   7.277   9.212
 9672WAT     H229259   0.259   7.197   9.343
 9673WAT      O29260   2.867   5.019   1.897
 9673WAT     H129261   2.772   4.987   1.888
 9673WAT     H229262   2.929   4.944   1.875
 9674WAT      O29263   1.928   2.374   8.993
 9674WAT     H129264   2.007   2.425   9.026
 9674WAT     H229265   1.845   2.409   9.036
 9675WAT      O29266   6.536   1.003   9.418
 9675WAT     H129267   6.486   1.086   9.393
 9675WAT     H229268   6.532   0.989   9.517
 9676WAT      O29269   2.879   2.638   4.095
 9676WAT     H129270   2.864   2.734   4.120
 9676WAT     H229271   2.891   2.631   3.996
 9677WAT      O29272   1.017   3.274   2.849
 9677WAT     H129273   1.053   3.352   2.798
 9677WAT     H229274   1.075   3.194   2.834
 9678WAT      O29275   0.606   4.393   9.128
 9678WAT     H129276   0.701   4.388   9.099
 9678WAT     H229277   0.547   4.411   9.049
 9679WAT      O29278   9.786   4.311   0.082
 9679WAT     H129279   9.742   4.341   0.167
 9679WAT     H229280   9.817   4.217   0.093
 9680WAT      O29281   3.516   5.007   6.771
 9680WAT     H129282   3.568   5.086   6.738
 9680WAT     H229283   3.513   4.936   6.700
 9681WAT      O29284   5.712   1.416   6.819
 9681WAT     H129285   5.639   1.419   6.751
 9681WAT     H229286   5.740   1.509   6.844
 9682WAT      O29287   1.999   0.876   8.993
 9682WAT     H129288   1.948   0.793   8.969
 9682WAT     H229289   2.025   0.873   9.089
 9683WAT      O29290   1.335   8.742   0.993
 9683WAT     H129291   1.372   8.697   0.911
 9683WAT     H229292   1.348   8.683   1.072
 9684WAT      O29293   1.548   9.567   8.732
 9684WAT     H129294   1.484   9.497   8.763
 9684WAT     H229295   1.561   9.635   8.805
 9685WAT      O29296   1.032   9.765   6.952
 9685WAT     H129297   1.112   9.818   6.978
 9685WAT     H229298   1.044   9.670   6.980
 9686WAT      O29299   5.056   1.950   0.874
 9686WAT     H129300   4.998   1.877   0.840
 9686WAT     H229301   5.049   2.030   0.814
 9687WAT      O29302   6.536   6.349   6.045
 9687WAT     H129303   6.547   6.447   6.060
 9687WAT     H229304   6.607   6.316   5.983
 9688WAT      O29305   2.078   6.592   1.564
 9688WAT     H129306   2.176   6.611   1.557
 9688WAT     H229307   2.049   6.538   1.485
 9689WAT      O29308   0.232   2.100   3.958
 9689WAT     H129309   0.283   2.082   3.873
 9689WAT     H229310   0.170   2.023   3.976
 9690WAT      O29311   3.287   6.927   0.046
 9690WAT     H129312   3.269   6.829   0.042
 9690WAT     H229313   3.266   6.961   0.138
 9691WAT      O29314   1.271   4.987   8.042
 9691WAT     H129315   1.279   4.929   8.124
 9691WAT     H229316   1.221   5.070   8.066
 9692WAT      O29317   8.911   8.664   7.750
 9692WAT     H129318   8.925   8.635   7.845
 9692WAT     H229319   8.904   8.583   7.692
 9693WAT      O29320   5.218   7.683   6.943
 9693WAT     H129321   5.198   7.739   6.862
 9693WAT     H229322   5.278   7.608   6.917
 9694WAT      O29323   2.077   8.263   6.107
 9694WAT     H129324   2.163   8.261   6.056
 9694WAT     H229325   2.022   8.183   6.084
 9695WAT      O29326   3.067   8.614   2.653
 9695WAT     H129327   2.993   8.587   2.591
 9695WAT     H229328   3.057   8.710   2.677
 9696WAT      O29329   9.273   9.476   8.358
 9696WAT     H129330   9.345   9.543   8.375
 9696WAT     H229331   9.294   9.392   8.409
 9697WAT      O29332   6.790   4.079   1.371
 9697WAT     H129333   6.793   3.990   1.326
 9697WAT     H229334   6.710   4.084   1.430
 9698WAT      O29335   3.586   3.389   8.001
 9698WAT     H129336   3.666   3.364   7.945
 9698WAT     H229337   3.522   3.312   8.003
 9699WAT      O29338   2.721   0.646   2.939
 9699WAT     H129339   2.665   0.675   3.017
 9699WAT     H229340   2.808   0.696   2.940
 9700WAT      O29341   5.656   2.760   5.958
 9700WAT     H129342   5.648   2.704   6.040
 9700WAT     H229343   5.714   2.713   5.891
 9701WAT      O29344   1.155   3.546   8.258
 9701WAT     H129345   1.128   3.450   8.250
 9701WAT     H229346   1.164   3.569   8.355
 9702WAT      O29347   2.938   8.305   2.775
 9702WAT     H129348   2.905   8.400   2.775
 9702WAT     H229349   2.899   8.256   2.853
 9703WAT      O29350   5.977   5.131   8.852
 9703WAT     H129351   5.971   5.186   8.770
 9703WAT     H229352   6.069   5.091   8.859
 9704WAT      O29353   1.311   0.587   9.738
 9704WAT     H129354   1.220   0.604   9.699
 9704WAT     H229355   1.380   0.637   9.686
 9705WAT      O29356   7.820   3.816   8.167
 9705WAT     H129357   7.846   3.785   8.075
 9705WAT     H229358   7.751   3.754   8.205
 9706WAT      O29359   4.403   9.167   6.572
 9706WAT     H129360   4.353   9.084   6.597
 9706WAT     H229361   4.403   9.230   6.649
 9707WAT      O29362   5.459   9.057   1.866
 9707WAT     H129363   5.423   9.083   1.955
 9707WAT     H229364   5.414   9.110   1.795
 9708WAT      O29365   5.152   3.582   6.362
 9708WAT     H129366   5.057   3.599   6.384
 9708WAT     H229367   5.206   3.664   6.379
 9709WAT      O29368   7.160   7.136   6.881
 9709WAT     H129369   7.165   7.193   6.962
 9709WAT     H229370   7.219   7.056   6.893
 9710WAT      O29371   4.146   1.856   9.830
 9710WAT     H129372   4.094   1.901   9.757
 9710WAT     H229373   4.232   1.822   9.792
 9711WAT      O29374   2.371   1.045   3.828
 9711WAT     H129375   2.344   0.951   3.807
 9711WAT     H229376   2.290   1.103   3.829
 9712WAT      O29377   9.814   6.881   1.148
 9712WAT     H129378   9.717   6.866   1.164
 9712WAT     H229379   9.830   6.977   1.123
 9713WAT      O29380   3.812   2.901   2.617
 9713WAT     H129381   3.760   2.975   2.576
 9713WAT     H229382   3.830   2.830   2.548
 9714WAT      O29383   8.781   8.379   8.059
 9714WAT     H129384   8.807   8.445   7.989
 9714WAT     H229385   8.694   8.407   8.100
 9715WAT      O29386   2.327   1.495   4.328
 9715WAT     H129387   2.384   1.437   4.270
 9715WAT     H229388   2.334   1.590   4.296
 9716WAT      O29389   8.828   6.175   3.595
 9716WAT     H129390   8.824   6.076   3.583
 9716WAT     H229391   8.761   6.218   3.534
 9717WAT      O29392   4.085   7.043   8.365
 9717WAT     H129393   4.069   7.022   8.269
 9717WAT     H229394   4.023   7.116   8.394
 9718WAT      O29395   5.352   5.132   1.571
 9718WAT     H129396   5.274   5.111   1.512
 9718WAT     H229397   5.387   5.223   1.549
 9719WAT      O29398   3.324   5.586   2.350
 9719WAT     H129399   3.412   5.540   2.358
 9719WAT     H229400   3.330   5.657   2.280
 9720WAT      O29401   1.253   0.645   0.260
 9720WAT     H129402   1.238   0.737   0.295
 9720WAT     H229403   1.341   0.610   0.292
 9721WAT      O29404   3.726   0.933   2.683
 9721WAT     H129405   3.657   0.867   2.652
 9721WAT     H229406   3.803   0.933   2.620
 9722WAT      O29407   2.908   8.872   9.043
 9722WAT     H129408   2.816   8.868   9.005
 9722WAT     H229409   2.955   8.786   9.026
 9723WAT      O29410   5.291   5.496   4.690
 9723WAT     H129411   5.376   5.452   4.718
 9723WAT     H229412   5.214   5.453   4.737
 9724WAT      O29413   0.247   1.270   5.987
 9724WAT     H129414   0.304   1.219   5.923
 9724WAT     H229415   0.151   1.245   5.974
 9725WAT      O29416   1.831   9.403   7.440
 9725WAT     H129417   1.752   9.350   7.472
 9725WAT     H229418   1.838   9.488   7.493
 9726WAT      O29419   5.642   8.675   5.907
 9726WAT     H129420   5.611   8.762   5.946
 9726WAT     H229421   5.599   8.599   5.956
 9727WAT      O29422   3.189   8.831   4.015
 9727WAT     H129423   3.156   8.748   4.061
 9727WAT     H229424   3.252   8.879   4.075
 9728WAT      O29425   0.741   4.012   8.003
 9728WAT     H129426   0.748   3.912   7.997
 9728WAT     H229427   0.793   4.044   8.082
 9729WAT      O29428   4.103   4.921   0.173
 9729WAT     H129429   4.007   4.921   0.204
 9729WAT     H229430   4.117   4.844   0.110
 9730WAT      O29431   8.505   7.240   1.768
 9730WAT     H129432   8.518   7.241   1.868
 9730WAT     H229433   8.522   7.332   1.732
 9731WAT      O29434   2.700   7.406   7.673
 9731WAT     H129435   2.664   7.492   7.638
 9731WAT     H229436   2.654   7.329   7.628
 9732WAT      O29437   5.641   1.835   5.085
 9732WAT     H129438   5.556   1.784   5.092
 9732WAT     H229439   5.713   1.786   5.136
 9733WAT      O29440   5.653   1.269   8.844
 9733WAT     H129441   5.697   1.255   8.933
 9733WAT     H229442   5.707   1.222   8.773
 9734WAT      O29443   4.399   5.396   3.673
 9734WAT     H129444   4.353   5.332   3.612
 9734WAT     H229445   4.410   5.484   3.626
 9735WAT      O29446   1.635   5.429   2.959
 9735WAT     H129447   1.587   5.426   2.872
 9735WAT     H229448   1.637   5.524   2.992
 9736WAT      O29449   3.659   1.716   5.217
 9736WAT     H129450   3.565   1.686   5.197
 9736WAT     H229451   3.669   1.732   5.315
 9737WAT      O29452   6.628   9.632   5.259
 9737WAT     H129453   6.682   9.709   5.293
 9737WAT     H229454   6.541   9.629   5.307
 9738WAT      O29455   2.721   6.862   1.633
 9738WAT     H129456   2.629   6.882   1.600
 9738WAT     H229457   2.771   6.811   1.563
 9739WAT      O29458   0.391   3.801   2.620
 9739WAT     H129459   0.410   3.704   2.602
 9739WAT     H229460   0.293   3.818   2.605
 9740WAT      O29461   8.836   6.997   8.996
 9740WAT     H129462   8.770   7.023   8.925
 9740WAT     H229463   8.804   7.028   9.085
 9741WAT      O29464   0.736   3.297   1.736
 9741WAT     H129465   0.831   3.266   1.750
 9741WAT     H229466   0.735   3.397   1.729
 9742WAT      O29467   7.468   3.030   9.050
 9742WAT     H129468   7.413   3.016   8.968
 9742WAT     H229469   7.438   2.967   9.122
 9743WAT      O29470   2.908   2.547   3.030
 9743WAT     H129471   2.937   2.626   2.976
 9743WAT     H229472   2.988   2.495   3.060
 9744WAT      O29473   2.791   6.787   4.342
 9744WAT     H129474   2.757   6.737   4.421
 9744WAT     H229475   2.749   6.750   4.259
 9745WAT      O29476   5.185   1.315   0.414
 9745WAT     H129477   5.183   1.269   0.502
 9745WAT     H229478   5.262   1.379   0.410
 9746WAT      O29479   6.603   1.640   7.262
 9746WAT     H129480   6.676   1.663   7.197
 9746WAT     H229481   6.547   1.722   7.279
 9747WAT      O29482   8.252   3.689   7.218
 9747WAT     H129483   8.218   3.782   7.232
 9747WAT     H229484   8.352   3.689   7.226
 9748WAT      O29485   9.750   5.020   9.485
 9748WAT     H129486   9.802   4.938   9.509
 9748WAT     H229487   9.776   5.050   9.393
 9749WAT      O29488   8.927   4.522   3.965
 9749WAT     H129489   8.891   4.516   3.872
 9749WAT     H229490   8.850   4.523   4.030
 9750WAT      O29491   6.930   5.796   3.833
 9750WAT     H129492   6.959   5.745   3.915
 9750WAT     H229493   7.003   5.794   3.765
 9751WAT      O29494   6.340   9.783   1.463
 9751WAT     H129495   6.266   9.727   1.426
 9751WAT     H229496   6.312   9.821   1.551
 9752WAT      O29497   8.930   8.920   2.934
 9752WAT     H129498   8.945   8.966   2.847
 9752WAT     H229499   8.941   8.986   3.009
 9753WAT      O29500   1.289   4.847   9.631
 9753WAT     H129501   1.209   4.798   9.598
 9753WAT     H229502   1.267   4.945   9.638
 9754WAT      O29503   4.165   6.527   4.230
 9754WAT     H129504   4.129   6.435   4.242
 9754WAT     H229505   4.254   6.522   4.185
 9755WAT      O29506   5.267   4.689   1.424
 9755WAT     H129507   5.238   4.714   1.517
 9755WAT     H229508   5.363   4.663   1.425
 9756WAT      O29509   0.559   4.050   0.428
 9756WAT     H129510   0.463   4.075   0.443
 9756WAT     H229511   0.564   3.957   0.391
 9757WAT      O29512   3.932   7.757   5.611
 9757WAT     H129513   3.957   7.777   5.516
 9757WAT     H229514   3.839   7.791   5.629
 9758WAT      O29515   5.291   1.285   7.391
 9758WAT     H129516   5.200   1.269   7.429
 9758WAT     H229517   5.344   1.201   7.395
 9759WAT      O29518   7.154   4.871   4.011
 9759WAT     H129519   7.055   4.863   3.994
 9759WAT     H229520   7.191   4.781   4.032
 9760WAT      O29521   9.863   4.391   4.452
 9760WAT     H129522   9.936   4.460   4.455
 9760WAT     H229523   9.805   4.399   4.534
 9761WAT      O29524   4.322   2.115   0.291
 9761WAT     H129525   4.354   2.201   0.330
 9761WAT     H229526   4.389   2.043   0.309
 9762WAT      O29527   8.716   8.772   2.323
 9762WAT     H129528   8.644   8.744   2.386
 9762WAT     H229529   8.791   8.706   2.327
 9763WAT      O29530   3.658   2.946   3.653
 9763WAT     H129531   3.582   2.915   3.595
 9763WAT     H229532   3.625   2.959   3.747
 9764WAT      O29533   6.097   0.786   8.297
 9764WAT     H129534   6.021   0.721   8.308
 9764WAT     H229535   6.183   0.735   8.293
 9765WAT      O29536   1.496   3.142   4.052
 9765WAT     H129537   1.455   3.218   4.103
 9765WAT     H229538   1.487   3.159   3.954
 9766WAT      O29539   3.104   0.546   6.569
 9766WAT     H129540   3.157   0.630   6.555
 9766WAT     H229541   3.163   0.467   6.551
 9767WAT      O29542   1.974   7.720   4.494
 9767WAT     H129543   1.900   7.653   4.500
 9767WAT     H229544   2.027   7.720   4.580
 9768WAT      O29545   1.361   2.618   5.166
 9768WAT     H129546   1.358   2.718   5.166
 9768WAT     H229547   1.418   2.587   5.242
 9769WAT      O29548   0.911   8.370   5.244
 9769WAT     H129549   0.925   8.440   5.174
 9769WAT     H229550   0.928   8.410   5.335
 9770WAT      O29551   4.061   7.193   3.784
 9770WAT     H129552   4.043   7.116   3.722
 9770WAT     H229553   3.977   7.216   3.834
 9771WAT      O29554   6.526   2.924   1.567
 9771WAT     H129555   6.500   3.020   1.553
 9771WAT     H229556   6.464   2.882   1.632
 9772WAT      O29557   5.151   0.055   1.837
 9772WAT     H129558   5.226   0.022   1.895
 9772WAT     H229559   5.147  -0.000   1.754
 9773WAT      O29560   3.860   3.737   3.956
 9773WAT     H129561   3.872   3.813   4.019
 9773WAT     H229562   3.797   3.762   3.883
 9774WAT      O29563   6.993   5.777   8.973
 9774WAT     H129564   6.988   5.764   8.874
 9774WAT     H229565   6.931   5.850   9.000
 9775WAT      O29566   3.547   6.660   1.849
 9775WAT     H129567   3.515   6.731   1.912
 9775WAT     H229568   3.592   6.587   1.901
 9776WAT      O29569   8.094   9.594   8.626
 9776WAT     H129570   8.162   9.593   8.700
 9776WAT     H229571   8.034   9.515   8.635
 9777WAT      O29572   5.976   1.648   9.010
 9777WAT     H129573   6.013   1.739   9.026
 9777WAT     H229574   5.967   1.632   8.912
 9778WAT      O29575   3.845   0.234   0.378
 9778WAT     H129576   3.942   0.238   0.403
 9778WAT     H229577   3.830   0.159   0.314
 9779WAT      O29578   6.390   3.886   8.643
 9779WAT     H129579   6.346   3.805   8.606
 9779WAT     H229580   6.473   3.860   8.693
 9780WAT      O29581   5.722   2.853   1.197
 9780WAT     H129582   5.677   2.904   1.124
 9780WAT     H229583   5.675   2.870   1.284
 9781WAT      O29584   2.727   2.283   3.857
 9781WAT     H129585   2.717   2.193   3.899
 9781WAT     H229586   2.665   2.348   3.900
 9782WAT      O29587   3.132   7.403   7.020
 9782WAT     H129588   3.052   7.440   7.067
 9782WAT     H229589   3.137   7.304   7.035
 9783WAT      O29590   7.351   5.346   8.978
 9783WAT     H129591   7.394   5.323   8.890
 9783WAT     H229592   7.346   5.446   8.987
 9784WAT      O29593   9.644   4.494   5.114
 9784WAT     H129594   9.672   4.574   5.167
 9784WAT     H229595   9.577   4.441   5.166
 9785WAT      O29596   3.008   5.743   7.349
 9785WAT     H129597   2.927   5.684   7.338
 9785WAT     H229598   3.037   5.741   7.444
 9786WAT      O29599   1.772   3.856   0.914
 9786WAT     H129600   1.768   3.863   0.815
 9786WAT     H229601   1.689   3.811   0.948
 9787WAT      O29602   7.133   9.412   6.482
 9787WAT     H129603   7.057   9.467   6.517
 9787WAT     H229604   7.217   9.466   6.486
 9788WAT      O29605   3.784   2.958   4.364
 9788WAT     H129606   3.801   3.049   4.327
 9788WAT     H229607   3.861   2.898   4.343
 9789WAT      O29608   4.408   8.556   7.320
 9789WAT     H129609   4.376   8.638   7.272
 9789WAT     H229610   4.390   8.475   7.264
 9790WAT      O29611   1.665   2.980   0.451
 9790WAT     H129612   1.636   3.076   0.454
 9790WAT     H229613   1.739   2.966   0.517
 9791WAT      O29614   3.320   7.810   4.551
 9791WAT     H129615   3.314   7.768   4.460
 9791WAT     H229616   3.309   7.909   4.543
 9792WAT      O29617   5.321   0.987   3.264
 9792WAT     H129618   5.305   0.953   3.171
 9792WAT     H229619   5.409   1.034   3.268
 9793WAT      O29620   2.765   0.517   8.273
 9793WAT     H129621   2.742   0.554   8.183
 9793WAT     H229622   2.763   0.418   8.270
 9794WAT      O29623   0.861   3.721   3.966
 9794WAT     H129624   0.891   3.646   3.907
 9794WAT     H229625   0.940   3.762   4.011
 9795WAT      O29626   6.471   3.351   3.859
 9795WAT     H129627   6.386   3.358   3.808
 9795WAT     H229628   6.454   3.366   3.956
 9796WAT      O29629   6.751   7.977   3.329
 9796WAT     H129630   6.843   8.011   3.309
 9796WAT     H229631   6.707   7.948   3.245
 9797WAT      O29632   9.714   1.322   5.058
 9797WAT     H129633   9.688   1.372   5.140
 9797WAT     H229634   9.802   1.356   5.025
 9798WAT      O29635   7.494   5.636   4.267
 9798WAT     H129636   7.477   5.585   4.352
 9798WAT     H229637   7.494   5.572   4.190
 9799WAT      O29638   9.318   7.020   5.553
 9799WAT     H129639   9.355   6.966   5.629
 9799WAT     H229640   9.362   7.110   5.552
 9800WAT      O29641   3.489   6.261   6.869
 9800WAT     H129642   3.582   6.278   6.835
 9800WAT     H229643   3.439   6.205   6.803
 9801WAT      O29644   0.824   8.142   3.044
 9801WAT     H129645   0.809   8.237   3.015
 9801WAT     H229646   0.880   8.095   2.976
 9802WAT      O29647   0.488   3.665   4.959
 9802WAT     H129648   0.563   3.599   4.961
 9802WAT     H229649   0.494   3.725   5.038
 9803WAT      O29650   9.587   9.103   2.466
 9803WAT     H129651   9.660   9.171   2.475
 9803WAT     H229652   9.502   9.141   2.505
 9804WAT      O29653   5.367   8.615   1.122
 9804WAT     H129654   5.450   8.670   1.110
 9804WAT     H229655   5.293   8.654   1.068
 9805WAT      O29656   2.991   8.257   6.532
 9805WAT     H129657   3.069   8.200   6.506
 9805WAT     H229658   3.023   8.351   6.546
 9806WAT      O29659   5.894   4.051   5.795
 9806WAT     H129660   5.871   3.982   5.864
 9806WAT     H229661   5.809   4.086   5.754
 9807WAT      O29662   1.847   5.348   6.138
 9807WAT     H129663   1.803   5.416   6.080
 9807WAT     H229664   1.805   5.349   6.229
 9808WAT      O29665   1.381   9.809   1.322
 9808WAT     H129666   1.475   9.783   1.299
 9808WAT     H229667   1.381   9.867   1.404
 9809WAT      O29668   7.872   5.254   0.370
 9809WAT     H129669   7.879   5.155   0.381
 9809WAT     H229670   7.776   5.281   0.370
 9810WAT      O29671   6.771   9.614   2.696
 9810WAT     H129672   6.750   9.600   2.599
 9810WAT     H229673   6.738   9.703   2.725
 9811WAT      O29674   0.316   2.306   1.931
 9811WAT     H129675   0.306   2.267   2.023
 9811WAT     H229676   0.353   2.235   1.870
 9812WAT      O29677   9.788   3.103   6.594
 9812WAT     H129678   9.884   3.110   6.622
 9812WAT     H229679   9.751   3.195   6.582
 9813WAT      O29680   1.097   4.539   2.200
 9813WAT     H129681   1.092   4.612   2.132
 9813WAT     H229682   1.182   4.547   2.251
 9814WAT      O29683   7.247   1.102   4.187
 9814WAT     H129684   7.291   1.062   4.267
 9814WAT     H229685   7.263   1.043   4.107
 9815WAT      O29686   8.094   3.959   5.392
 9815WAT     H129687   8.110   3.915   5.480
 9815WAT     H229688   8.064   4.054   5.407
 9816WAT      O29689   4.877   6.684   8.554
 9816WAT     H129690   4.816   6.702   8.632
 9816WAT     H229691   4.946   6.617   8.580
 9817WAT      O29692   5.780   1.251   0.753
 9817WAT     H129693   5.874   1.281   0.767
 9817WAT     H229694   5.737   1.235   0.842
 9818WAT      O29695   9.564   7.886   6.650
 9818WAT     H129696   9.575   7.850   6.557
 9818WAT     H229697   9.519   7.817   6.707
 9819WAT      O29698   8.498   9.587   7.424
 9819WAT     H129699   8.583   9.550   7.463
 9819WAT     H229700   8.420   9.534   7.459
 9820WAT      O29701   1.047   0.220   1.197
 9820WAT     H129702   0.956   0.211   1.157
 9820WAT     H229703   1.108   0.153   1.154
 9821WAT      O29704   3.079   4.382   0.248
 9821WAT     H129705   3.128   4.433   0.319
 9821WAT     H229706   3.145   4.342   0.184
 9822WAT      O29707   9.096   8.090   8.287
 9822WAT     H129708   9.076   8.089   8.189
 9822WAT     H229709   9.163   8.161   8.308
 9823WAT      O29710   8.802   4.915   7.810
 9823WAT     H129711   8.738   4.947   7.741
 9823WAT     H229712   8.785   4.818   7.830
 9824WAT      O29713   8.381   7.388   8.428
 9824WAT     H129714   8.395   7.435   8.341
 9824WAT     H229715   8.434   7.434   8.499
 9825WAT      O29716   3.935   9.023   1.707
 9825WAT     H129717   3.858   9.065   1.660
 9825WAT     H229718   3.903   8.943   1.758
 9826WAT      O29719   4.189   3.440   7.719
 9826WAT     H129720   4.098   3.481   7.724
 9826WAT     H229721   4.229   3.435   7.810
 9827WAT      O29722   0.837   1.505   3.291
 9827WAT     H129723   0.814   1.413   3.259
 9827WAT     H229724   0.771   1.570   3.253
 9828WAT      O29725   5.285   4.551   5.542
 9828WAT     H129726   5.358   4.620   5.548
 9828WAT     H229727   5.310   4.471   5.596
 9829WAT      O29728   1.950   2.199   0.413
 9829WAT     H129729   1.976   2.147   0.332
 9829WAT     H229730   2.000   2.286   0.413
 9830WAT      O29731   8.062   5.857   9.564
 9830WAT     H129732   8.004   5.906   9.499
 9830WAT     H229733   8.085   5.767   9.526
 9831WAT      O29734   4.051   5.800   1.242
 9831WAT     H129735   4.071   5.743   1.162
 9831WAT     H229736   4.080   5.894   1.225
 9832WAT      O29737   8.589   2.597   5.530
 9832WAT     H129738   8.531   2.520   5.505
 9832WAT     H229739   8.582   2.668   5.460
 9833WAT      O29740   8.045   5.375   0.190
 9833WAT     H129741   8.007   5.332   0.272
 9833WAT     H229742   8.038   5.311   0.113
 9834WAT      O29743   3.167   2.470   0.381
 9834WAT     H129744   3.074   2.507   0.385
 9834WAT     H229745   3.220   2.504   0.458
 9835WAT      O29746   3.510   5.539   7.606
 9835WAT     H129747   3.605   5.567   7.620
 9835WAT     H229748   3.501   5.441   7.622
 9836WAT      O29749   6.278   0.161   0.408
 9836WAT     H129750   6.276   0.188   0.504
 9836WAT     H229751   6.298   0.063   0.400
 9837WAT      O29752   8.139   9.446   3.275
 9837WAT     H129753   8.054   9.433   3.224
 9837WAT     H229754   8.165   9.543   3.271
 9838WAT      O29755   7.477   2.470   9.259
 9838WAT     H129756   7.412   2.448   9.187
 9838WAT     H229757   7.530   2.550   9.234
 9839WAT      O29758   4.859   4.726   2.591
 9839WAT     H129759   4.874   4.813   2.638
 9839WAT     H229760   4.904   4.652   2.641
 9840WAT      O29761   5.869   2.712   3.244
 9840WAT     H129762   5.965   2.734   3.258
 9840WAT     H229763   5.862   2.621   3.202
 9841WAT      O29764   6.723   6.789   9.264
 9841WAT     H129765   6.714   6.689   9.265
 9841WAT     H229766   6.795   6.815   9.199
 9842WAT      O29767   5.506   4.091   1.768
 9842WAT     H129768   5.462   4.158   1.708
 9842WAT     H229769   5.594   4.126   1.798
 9843WAT      O29770   5.003   3.852   3.164
 9843WAT     H129771   5.047   3.812   3.084
 9843WAT     H229772   4.944   3.927   3.136
 9844WAT      O29773   0.142   2.924   9.359
 9844WAT     H129774   0.068   2.884   9.412
 9844WAT     H229775   0.154   2.874   9.273
 9845WAT      O29776   3.324   9.606   2.015
 9845WAT     H129777   3.359   9.674   2.080
 9845WAT     H229778   3.383   9.603   1.934
 9846WAT      O29779   5.114   7.480   9.067
 9846WAT     H129780   5.194   7.419   9.070
 9846WAT     H229781   5.123   7.549   9.139
 9847WAT      O29782   7.619   7.768   6.997
 9847WAT     H129783   7.531   7.783   7.043
 9847WAT     H229784   7.692   7.773   7.065
 9848WAT      O29785   9.809   6.513   6.841
 9848WAT     H129786   9.790   6.611   6.844
 9848WAT     H229787   9.770   6.474   6.758
 9849WAT      O29788   5.599   9.006   9.547
 9849WAT     H129789   5.645   9.075   9.603
 9849WAT     H229790   5.573   9.047   9.459
 9850WAT      O29791   1.683   9.435   9.420
 9850WAT     H129792   1.617   9.495   9.464
 9850WAT     H229793   1.656   9.340   9.434
 9851WAT      O29794   3.258   5.038   7.203
 9851WAT     H129795   3.358   5.031   7.196
 9851WAT     H229796   3.232   5.042   7.300
 9852WAT      O29797   4.364   0.182   0.770
 9852WAT     H129798   4.345   0.135   0.857
 9852WAT     H229799   4.371   0.114   0.697
 9853WAT      O29800   9.307   3.668   7.434
 9853WAT     H129801   9.370   3.607   7.482
 9853WAT     H229802   9.221   3.674   7.485
 9854WAT      O29803   1.899   9.137   8.649
 9854WAT     H129804   1.953   9.097   8.574
 9854WAT     H229805   1.958   9.195   8.705
 9855WAT      O29806   6.137   9.337   7.612
 9855WAT     H129807   6.142   9.238   7.619
 9855WAT     H229808   6.055   9.363   7.561
 9856WAT      O29809   9.147   4.447   5.504
 9856WAT     H129810   9.071   4.386   5.480
 9856WAT     H229811   9.143   4.529   5.447
 9857WAT      O29812   5.889   4.291   6.105
 9857WAT     H129813   5.969   4.231   6.102
 9857WAT     H229814   5.878   4.336   6.017
 9858WAT      O29815   2.477   8.765   6.014
 9858WAT     H129816   2.554   8.713   5.977
 9858WAT     H229817   2.395   8.744   5.960
 9859WAT      O29818   3.972   8.293   7.910
 9859WAT     H129819   3.951   8.390   7.896
 9859WAT     H229820   3.922   8.239   7.842
 9860WAT      O29821   4.643   1.646   1.733
 9860WAT     H129822   4.629   1.549   1.716
 9860WAT     H229823   4.669   1.660   1.828
 9861WAT      O29824   8.704   4.259   6.052
 9861WAT     H129825   8.673   4.345   6.093
 9861WAT     H229826   8.709   4.271   5.952
 9862WAT      O29827   0.189   4.640   4.002
 9862WAT     H129828   0.165   4.736   4.018
 9862WAT     H229829   0.162   4.614   3.909
 9863WAT      O29830   0.152   3.290   4.251
 9863WAT     H129831   0.133   3.218   4.318
 9863WAT     H229832   0.080   3.291   4.181
 9864WAT      O29833   1.278   4.651   5.802
 9864WAT     H129834   1.190   4.609   5.781
 9864WAT     H229835   1.338   4.583   5.844
 9865WAT      O29836   5.271   0.375   9.624
 9865WAT     H129837   5.214   0.452   9.598
 9865WAT     H229838   5.262   0.358   9.722
 9866WAT      O29839   2.158   7.253   8.500
 9866WAT     H129840   2.208   7.318   8.443
 9866WAT     H229841   2.117   7.183   8.442
 9867WAT      O29842   3.441   3.306   7.117
 9867WAT     H129843   3.396   3.293   7.028
 9867WAT     H229844   3.423   3.226   7.175
 9868WAT      O29845   1.577   8.753   6.447
 9868WAT     H129846   1.485   8.725   6.421
 9868WAT     H229847   1.589   8.740   6.546
 9869WAT      O29848   9.028   1.416   6.814
 9869WAT     H129849   8.980   1.484   6.869
 9869WAT     H229850   9.014   1.435   6.717
 9870WAT      O29851   5.892   2.685   1.079
 9870WAT     H129852   5.847   2.766   1.118
 9870WAT     H229853   5.828   2.637   1.019
 9871WAT      O29854   9.631   4.309   7.646
 9871WAT     H129855   9.599   4.368   7.572
 9871WAT     H229856   9.723   4.337   7.674
 9872WAT      O29857   7.826   2.563   0.523
 9872WAT     H129858   7.801   2.477   0.568
 9872WAT     H229859   7.768   2.636   0.558
 9873WAT      O29860   8.419   2.727   5.726
 9873WAT     H129861   8.383   2.805   5.675
 9873WAT     H229862   8.484   2.677   5.669
 9874WAT      O29863   5.164   5.674   3.643
 9874WAT     H129864   5.183   5.576   3.646
 9874WAT     H229865   5.247   5.723   3.614
 9875WAT      O29866   8.432   4.060   6.601
 9875WAT     H129867   8.339   4.033   6.575
 9875WAT     H229868   8.490   4.062   6.519
 9876WAT      O29869   3.338   4.002   9.086
 9876WAT     H129870   3.324   4.034   8.993
 9876WAT     H229871   3.319   3.904   9.091
 9877WAT      O29872   2.611   6.358   8.589
 9877WAT     H129873   2.592   6.344   8.492
 9877WAT     H229874   2.573   6.281   8.641
 9878WAT      O29875   7.839   8.088   8.892
 9878WAT     H129876   7.789   8.125   8.970
 9878WAT     H229877   7.780   8.027   8.839
 9879WAT      O29878   1.358   7.363   2.122
 9879WAT     H129879   1.399   7.428   2.058
 9879WAT     H229880   1.272   7.329   2.084
 9880WAT      O29881   7.415   2.535   1.857
 9880WAT     H129882   7.351   2.543   1.933
 9880WAT     H229883   7.477   2.459   1.873
 9881WAT      O29884   3.310   3.486   8.228
 9881WAT     H129885   3.270   3.428   8.299
 9881WAT     H229886   3.409   3.489   8.240
 9882WAT      O29887   8.972   2.598   2.716
 9882WAT     H129888   8.958   2.523   2.651
 9882WAT     H229889   8.974   2.561   2.809
 9883WAT      O29890   1.202   0.921   4.001
 9883WAT     H129891   1.179   0.875   3.915
 9883WAT     H229892   1.268   0.994   3.983
 9884WAT      O29893   9.522   7.505   5.416
 9884WAT     H129894   9.423   7.518   5.403
 9884WAT     H229895   9.551   7.421   5.371
 9885WAT      O29896   8.455   5.099   3.399
 9885WAT     H129897   8.365   5.134   3.425
 9885WAT     H229898   8.447   5.005   3.366
 9886WAT      O29899   1.440   6.622   1.285
 9886WAT     H129900   1.431   6.659   1.192
 9886WAT     H229901   1.353   6.631   1.333
 9887WAT      O29902   8.391   3.442   4.290
 9887WAT     H129903   8.479   3.424   4.245
 9887WAT     H229904   8.334   3.360   4.283
 9888WAT      O29905   0.234   1.711   5.921
 9888WAT     H129906   0.330   1.685   5.931
 9888WAT     H229907   0.214   1.732   5.826
 9889WAT      O29908   4.869   7.654   5.850
 9889WAT     H129909   4.776   7.628   5.874
 9889WAT     H229910   4.901   7.726   5.913
 9890WAT      O29911   3.520   0.166   9.617
 9890WAT     H129912   3.434   0.133   9.576
 9890WAT     H229913   3.512   0.165   9.716
 9891WAT      O29914   2.878   1.003   4.116
 9891WAT     H129915   2.863   0.905   4.125
 9891WAT     H229916   2.934   1.021   4.035
 9892WAT      O29917   8.631   5.746   7.030
 9892WAT     H129918   8.695   5.748   6.954
 9892WAT     H229919   8.574   5.664   7.023
 9893WAT      O29920   2.791   1.254   2.698
 9893WAT     H129921   2.850   1.208   2.631
 9893WAT     H229922   2.835   1.254   2.787
 9894WAT      O29923   1.602   6.422   4.322
 9894WAT     H129924   1.594   6.477   4.239
 9894WAT     H229925   1.603   6.482   4.402
 9895WAT      O29926   1.394   7.916   9.570
 9895WAT     H129927   1.449   7.978   9.627
 9895WAT     H229928   1.424   7.822   9.586
 9896WAT      O29929   5.718   8.198   9.268
 9896WAT     H129930   5.776   8.190   9.348
 9896WAT     H229931   5.705   8.108   9.226
 9897WAT      O29932   8.885   3.195   2.238
 9897WAT     H129933   8.979   3.179   2.270
 9897WAT     H229934   8.837   3.107   2.234
 9898WAT      O29935   3.264   7.949   2.995
 9898WAT     H129936   3.250   8.047   2.983
 9898WAT     H229937   3.193   7.898   2.946
 9899WAT      O29938   3.808   3.178   3.744
 9899WAT     H129939   3.750   3.112   3.695
 9899WAT     H229940   3.902   3.170   3.711
 9900WAT      O29941   3.307   2.297   2.947
 9900WAT     H129942   3.313   2.249   2.859
 9900WAT     H229943   3.398   2.306   2.987
 9901WAT      O29944   6.013   7.821   8.854
 9901WAT     H129945   5.962   7.789   8.934
 9901WAT     H229946   6.041   7.916   8.869
 9902WAT      O29947   5.357   6.629   2.163
 9902WAT     H129948   5.353   6.715   2.111
 9902WAT     H229949   5.356   6.552   2.100
 9903WAT      O29950   9.610   4.499   9.385
 9903WAT     H129951   9.569   4.494   9.476
 9903WAT     H229952   9.663   4.416   9.367
 9904WAT      O29953   4.458   8.778   1.430
 9904WAT     H129954   4.392   8.703   1.425
 9904WAT     H229955   4.411   8.864   1.411
 9905WAT      O29956   9.466   2.144   2.753
 9905WAT     H129957   9.475   2.243   2.746
 9905WAT     H229958   9.429   2.107   2.667
 9906WAT      O29959   7.460   0.718   5.611
 9906WAT     H129960   7.413   0.725   5.523
 9906WAT     H229961   7.504   0.628   5.619
 9907WAT      O29962   8.676   2.637   0.518
 9907WAT     H129963   8.647   2.542   0.503
 9907WAT     H229964   8.598   2.691   0.548
 9908WAT      O29965   3.974   9.808   8.712
 9908WAT     H129966   3.939   9.817   8.806
 9908WAT     H229967   3.930   9.729   8.668
 9909WAT      O29968   9.320   0.220   1.169
 9909WAT     H129969   9.403   0.174   1.137
 9909WAT     H229970   9.246   0.202   1.105
 9910WAT      O29971   3.767   5.636   4.019
 9910WAT     H129972   3.860   5.641   4.056
 9910WAT     H229973   3.746   5.721   3.970
 9911WAT      O29974   8.866   8.066   7.301
 9911WAT     H129975   8.800   8.018   7.245
 9911WAT     H229976   8.863   8.164   7.280
 9912WAT      O29977   1.514   8.927   7.627
 9912WAT     H129978   1.594   8.903   7.572
 9912WAT     H229979   1.442   8.963   7.568
 9913WAT      O29980   0.109   3.170   7.778
 9913WAT     H129981   0.188   3.173   7.717
 9913WAT     H229982   0.029   3.206   7.730
 9914WAT      O29983   9.791   4.655   2.972
 9914WAT     H129984   9.790   4.697   3.062
 9914WAT     H229985   9.697   4.634   2.944
 9915WAT      O29986   0.645   6.571   4.436
 9915WAT     H129987   0.668   6.513   4.514
 9915WAT     H229988   0.563   6.623   4.457
 9916WAT      O29989   7.864   4.492   2.859
 9916WAT     H129990   7.955   4.467   2.826
 9916WAT     H229991   7.803   4.413   2.853
 9917WAT      O29992   6.047   9.553   6.755
 9917WAT     H129993   6.099   9.501   6.688
 9917WAT     H229994   6.075   9.649   6.752
 9918WAT      O29995   3.086   4.497   9.744
 9918WAT     H129996   3.079   4.504   9.644
 9918WAT     H229997   3.146   4.421   9.768
 9919WAT      O29998   0.944   9.645   2.784
 9919WAT     H129999   0.854   9.686   2.789
 9919WAT     H230000   1.010   9.704   2.831
 9920WAT      O30001   7.836   2.588   4.505
 9920WAT     H130002   7.782   2.670   4.524
 9920WAT     H230003   7.812   2.516   4.570
 9921WAT      O30004   4.919   6.425   7.557
 9921WAT     H130005   4.893   6.497   7.622
 9921WAT     H230006   5.010   6.444   7.520
 9922WAT      O30007   7.035   0.163   9.717
 9922WAT     H130008   6.998   0.155   9.625
 9922WAT     H230009   7.110   0.229   9.717
 9923WAT      O30010   7.565   4.039   9.294
 9923WAT     H130011   7.506   4.093   9.234
 9923WAT     H230012   7.658   4.038   9.257
 9924WAT      O30013   1.280   9.543   1.272
 9924WAT     H130014   1.253   9.516   1.365
 9924WAT     H230015   1.328   9.630   1.276
 9925WAT      O30016   9.840   0.374   0.164
 9925WAT     H130017   9.751   0.329   0.155
 9925WAT     H230018   9.855   0.435   0.086
 9926WAT      O30019   8.346   8.368   1.547
 9926WAT     H130020   8.357   8.466   1.529
 9926WAT     H230021   8.411   8.339   1.618
 9927WAT      O30022   7.720   3.084   3.388
 9927WAT     H130023   7.663   3.059   3.466
 9927WAT     H230024   7.663   3.130   3.319
 9928WAT      O30025   3.455   0.324   6.195
 9928WAT     H130026   3.475   0.419   6.219
 9928WAT     H230027   3.461   0.267   6.276
 9929WAT      O30028   9.399   2.326   4.527
 9929WAT     H130029   9.331   2.280   4.469
 9929WAT     H230030   9.460   2.380   4.470
 9930WAT      O30031   9.588   0.341   3.655
 9930WAT     H130032   9.533   0.420   3.628
 9930WAT     H230033   9.685   0.364   3.652
 9931WAT      O30034   4.591   3.404   7.508
 9931WAT     H130035   4.677   3.451   7.488
 9931WAT     H230036   4.609   3.305   7.514
 9932WAT      O30037   1.475   5.989   6.249
 9932WAT     H130038   1.452   6.041   6.331
 9932WAT     H230039   1.501   6.051   6.175
 9933WAT      O30040   0.730   9.673   4.353
 9933WAT     H130041   0.759   9.661   4.448
 9933WAT     H230042   0.797   9.629   4.293
 9934WAT      O30043   7.794   9.126   4.124
 9934WAT     H130044   7.884   9.088   4.106
 9934WAT     H230045   7.772   9.115   4.221
 9935WAT      O30046   8.052   0.201   3.955
 9935WAT     H130047   8.033   0.194   3.857
 9935WAT     H230048   8.143   0.163   3.974
 9936WAT      O30049   5.479   4.861   6.646
 9936WAT     H130050   5.575   4.865   6.618
 9936WAT     H230051   5.437   4.778   6.610
 9937WAT      O30052   5.149   4.365   6.879
 9937WAT     H130053   5.196   4.452   6.865
 9937WAT     H230054   5.095   4.369   6.963
 9938WAT      O30055   7.541   6.934   5.799
 9938WAT     H130056   7.604   6.896   5.731
 9938WAT     H230057   7.451   6.891   5.789
 9939WAT      O30058   3.672   0.448   7.630
 9939WAT     H130059   3.735   0.379   7.595
 9939WAT     H230060   3.602   0.404   7.686
 9940WAT      O30061   2.136   5.296   7.573
 9940WAT     H130062   2.059   5.337   7.524
 9940WAT     H230063   2.194   5.368   7.611
 9941WAT      O30064   3.628   4.841   3.788
 9941WAT     H130065   3.571   4.820   3.867
 9941WAT     H230066   3.570   4.847   3.706
 9942WAT      O30067   0.096   0.041   5.239
 9942WAT     H130068   0.111   0.126   5.290
 9942WAT     H230069   0.031   0.057   5.165
 9943WAT      O30070   5.371   5.939   4.705
 9943WAT     H130071   5.298   6.005   4.724
 9943WAT     H230072   5.460   5.982   4.721
 9944WAT      O30073   0.936   0.111   7.429
 9944WAT     H130074   0.925   0.156   7.517
 9944WAT     H230075   0.847   0.076   7.398
 9945WAT      O30076   8.799   5.022   1.956
 9945WAT     H130077   8.864   5.001   1.882
 9945WAT     H230078   8.850   5.058   2.035
 9946WAT      O30079   1.753   2.387   9.863
 9946WAT     H130080   1.700   2.436   9.793
 9946WAT     H230081   1.850   2.403   9.847
 9947WAT      O30082   9.352   2.669   4.880
 9947WAT     H130083   9.293   2.749   4.891
 9947WAT     H230084   9.439   2.698   4.838
 9948WAT      O30085   1.408   6.762   4.248
 9948WAT     H130086   1.423   6.777   4.151
 9948WAT     H230087   1.380   6.848   4.291
 9949WAT      O30088   9.497   4.692   5.797
 9949WAT     H130089   9.436   4.613   5.805
 9949WAT     H230090   9.583   4.673   5.844
 9950WAT      O30091   3.300   9.165   7.061
 9950WAT     H130092   3.305   9.107   6.979
 9950WAT     H230093   3.220   9.224   7.055
 9951WAT      O30094   1.063   3.870   4.057
 9951WAT     H130095   1.138   3.910   4.003
 9951WAT     H230096   1.071   3.901   4.152
 9952WAT      O30097   1.107   6.407   1.932
 9952WAT     H130098   1.129   6.324   1.982
 9952WAT     H230099   1.096   6.483   1.997
 9953WAT      O30100   8.314   6.203   8.267
 9953WAT     H130101   8.369   6.254   8.201
 9953WAT     H230102   8.374   6.162   8.335
 9954WAT      O30103   1.498   3.924   8.867
 9954WAT     H130104   1.492   3.996   8.799
 9954WAT     H230105   1.427   3.855   8.850
 9955WAT      O30106   3.159   5.920   2.963
 9955WAT     H130107   3.234   5.886   2.906
 9955WAT     H230108   3.173   6.017   2.982
 9956WAT      O30109   4.212   8.406   5.511
 9956WAT     H130110   4.193   8.468   5.436
 9956WAT     H230111   4.218   8.457   5.597
 9957WAT      O30112   8.578   6.707   0.290
 9957WAT     H130113   8.610   6.771   0.220
 9957WAT     H230114   8.520   6.637   0.247
 9958WAT      O30115   5.818   7.056   2.636
 9958WAT     H130116   5.911   7.090   2.636
 9958WAT     H230117   5.769   7.093   2.715
 9959WAT      O30118   4.198   9.479   0.652
 9959WAT     H130119   4.184   9.392   0.699
 9959WAT     H230120   4.200   9.553   0.719
 9960WAT      O30121   7.675   3.113   9.408
 9960WAT     H130122   7.745   3.045   9.431
 9960WAT     H230123   7.663   3.117   9.309
 9961WAT      O30124   8.714   6.924   1.718
 9961WAT     H130125   8.620   6.904   1.743
 9961WAT     H230126   8.717   7.003   1.656
 9962WAT      O30127   5.851   3.703   7.155
 9962WAT     H130128   5.937   3.746   7.129
 9962WAT     H230129   5.814   3.748   7.237
 9963WAT      O30130   5.814   1.504   5.697
 9963WAT     H130131   5.818   1.476   5.601
 9963WAT     H230132   5.902   1.484   5.741
 9964WAT      O30133   1.945   4.420   3.244
 9964WAT     H130134   2.011   4.365   3.194
 9964WAT     H230135   1.881   4.462   3.179
 9965WAT      O30136   1.625   0.988   6.695
 9965WAT     H130137   1.665   1.076   6.669
 9965WAT     H230138   1.618   0.930   6.615
 9966WAT      O30139   6.565   1.385   7.355
 9966WAT     H130140   6.589   1.470   7.308
 9966WAT     H230141   6.649   1.336   7.380
 9967WAT      O30142   2.218   9.540   8.556
 9967WAT     H130143   2.226   9.444   8.528
 9967WAT     H230144   2.152   9.548   8.631
 9968WAT      O30145   7.943   7.617   6.647
 9968WAT     H130146   7.892   7.572   6.573
 9968WAT     H230147   7.884   7.681   6.694
 9969WAT      O30148   3.381   4.629   7.457
 9969WAT     H130149   3.398   4.644   7.554
 9969WAT     H230150   3.434   4.695   7.404
 9970WAT      O30151   9.604   5.635   6.326
 9970WAT     H130152   9.582   5.543   6.357
 9970WAT     H230153   9.537   5.699   6.364
 9971WAT      O30154   9.079   6.722   8.786
 9971WAT     H130155   9.162   6.778   8.781
 9971WAT     H230156   9.103   6.625   8.772
 9972WAT      O30157   0.248   9.223   5.991
 9972WAT     H130158   0.289   9.147   6.043
 9972WAT     H230159   0.314   9.255   5.922
 9973WAT      O30160   3.195   4.950   0.769
 9973WAT     H130161   3.288   4.937   0.804
 9973WAT     H230162   3.129   4.936   0.843
 9974WAT      O30163   3.770   8.022   8.595
 9974WAT     H130164   3.750   8.071   8.679
 9974WAT     H230165   3.784   8.088   8.521
 9975WAT      O30166   1.958   5.052   6.357
 9975WAT     H130167   2.027   5.017   6.421
 9975WAT     H230168   2.002   5.084   6.273
 9976WAT      O30169   1.642   9.028   9.005
 9976WAT     H130170   1.628   9.126   8.988
 9976WAT     H230171   1.585   9.000   9.082
 9977WAT      O30172   1.662   1.864   8.635
 9977WAT     H130173   1.755   1.844   8.604
 9977WAT     H230174   1.630   1.791   8.696
 9978WAT      O30175   0.210   3.349   0.563
 9978WAT     H130176   0.125   3.299   0.583
 9978WAT     H230177   0.188   3.445   0.543
 9979WAT      O30178   9.815   0.395   4.684
 9979WAT     H130179   9.864   0.368   4.601
 9979WAT     H230180   9.875   0.449   4.743
 9980WAT      O30181   4.269   0.325   9.216
 9980WAT     H130182   4.270   0.285   9.124
 9980WAT     H230183   4.184   0.374   9.231
 9981WAT      O30184   3.744   1.105   8.844
 9981WAT     H130185   3.708   1.016   8.872
 9981WAT     H230186   3.678   1.150   8.783
 9982WAT      O30187   2.936   0.701   7.733
 9982WAT     H130188   2.909   0.605   7.740
 9982WAT     H230189   2.855   0.757   7.714
 9983WAT      O30190   8.041   4.821   0.262
 9983WAT     H130191   8.030   4.721   0.258
 9983WAT     H230192   8.108   4.850   0.193
 9984WAT      O30193   4.884   8.038   2.449
 9984WAT     H130194   4.888   8.133   2.417
 9984WAT     H230195   4.971   8.013   2.491
 9985WAT      O30196   1.006   6.643   3.505
 9985WAT     H130197   1.046   6.712   3.444
 9985WAT     H230198   0.922   6.608   3.464
 9986WAT      O30199   0.917   4.172   0.871
 9986WAT     H130200   0.912   4.155   0.773
 9986WAT     H230201   0.874   4.096   0.921
 9987WAT      O30202   2.228   9.471   2.965
 9987WAT     H130203   2.155   9.538   2.960
 9987WAT     H230204   2.247   9.450   3.061
 9988WAT      O30205   5.930   9.311   3.413
 9988WAT     H130206   5.955   9.346   3.323
 9988WAT     H230207   5.877   9.226   3.402
 9989WAT      O30208   8.291   7.256   7.919
 9989WAT     H130209   8.353   7.202   7.862
 9989WAT     H230210   8.324   7.350   7.925
 9990WAT      O30211   4.980   0.788   5.809
 9990WAT     H130212   5.070   0.758   5.839
 9990WAT     H230213   4.968   0.885   5.828
 9991WAT      O30214   7.396   1.220   0.485
 9991WAT     H130215   7.364   1.143   0.541
 9991WAT     H230216   7.458   1.277   0.539
 9992WAT      O30217   6.056   7.703   7.645
 9992WAT     H130218   6.143   7.745   7.622
 9992WAT     H230219   6.072   7.621   7.700
 9993WAT      O30220   2.265   9.206   9.378
 9993WAT     H130221   2.224   9.139   9.316
 9993WAT     H230222   2.265   9.296   9.335
 9994WAT      O30223   1.249   5.601   7.833
 9994WAT     H130224   1.211   5.672   7.773
 9994WAT     H230225   1.341   5.628   7.861
 9995WAT      O30226   3.403   1.395   0.531
 9995WAT     H130227   3.461   1.400   0.613
 9995WAT     H230228   3.394   1.487   0.491
 9996WAT      O30229   7.230   5.545   7.643
 9996WAT     H130230   7.207   5.515   7.736
 9996WAT     H230231   7.204   5.475   7.578
 9997WAT      O30232   3.635   8.372   5.433
 9997WAT     H130233   3.716   8.373   5.374
 9997WAT     H230234   3.647   8.437   5.508
 9998WAT      O30235   9.326   7.341   1.598
 9998WAT     H130236   9.276   7.327   1.683
 9998WAT     H230237   9.374   7.429   1.601
 9999WAT      O30238   2.221   4.440   7.414
 9999WAT     H130239   2.226   4.341   7.402
 9999WAT     H230240   2.295   4.484   7.363
10000WAT      O30241   0.498   5.095   4.261
10000WAT     H130242   0.524   5.049   4.176
10000WAT     H230243   0.399   5.090   4.274
10001WAT      O30244   5.395   5.184   4.509
10001WAT     H130245   5.367   5.262   4.565
10001WAT     H230246   5.324   5.167   4.440
10002WAT      O30247   5.406   3.294   5.894
10002WAT     H130248   5.334   3.225   5.898
10002WAT     H230249   5.488   3.261   5.941
10003WAT      O30250   0.717   9.486   1.613
10003WAT     H130251   0.648   9.516   1.679
10003WAT     H230252   0.730   9.558   1.544
10004WAT      O30253   7.761   1.816   4.389
10004WAT     H130254   7.692   1.799   4.459
10004WAT     H230255   7.727   1.787   4.300
10005WAT      O30256   5.786   3.533   1.457
10005WAT     H130257   5.694   3.496   1.469
10005WAT     H230258   5.793   3.577   1.368
10006WAT      O30259   8.761   7.227   5.363
10006WAT     H130260   8.685   7.282   5.329
10006WAT     H230261   8.734   7.131   5.369
10007WAT      O30262   9.209   8.182   2.450
10007WAT     H130263   9.174   8.227   2.533
10007WAT     H230264   9.159   8.215   2.370
10008WAT      O30265   5.571   1.841   4.040
10008WAT     H130266   5.558   1.940   4.041
10008WAT     H230267   5.586   1.810   3.946
10009WAT      O30268   9.417   4.673   1.285
10009WAT     H130269   9.378   4.661   1.194
10009WAT     H230270   9.380   4.757   1.326
10010WAT      O30271   8.375   0.545   8.207
10010WAT     H130272   8.336   0.479   8.271
10010WAT     H230273   8.420   0.619   8.258
10011WAT      O30274   1.650   3.198   1.051
10011WAT     H130275   1.562   3.206   1.004
10011WAT     H230276   1.658   3.271   1.118
10012WAT      O30277   1.970   8.273   0.921
10012WAT     H130278   1.971   8.179   0.955
10012WAT     H230279   1.877   8.299   0.897
10013WAT      O30280   7.421   9.094   4.315
10013WAT     H130281   7.440   9.189   4.292
10013WAT     H230282   7.384   9.046   4.236
10014WAT      O30283   6.841   9.403   5.456
10014WAT     H130284   6.800   9.357   5.377
10014WAT     H230285   6.769   9.449   5.508
10015WAT      O30286   5.438   1.394   0.408
10015WAT     H130287   5.517   1.365   0.353
10015WAT     H230288   5.435   1.340   0.492
10016WAT      O30289   7.886   5.910   1.870
10016WAT     H130290   7.940   5.836   1.910
10016WAT     H230291   7.802   5.923   1.924
10017WAT      O30292   6.333   3.313   3.398
10017WAT     H130293   6.298   3.343   3.309
10017WAT     H230294   6.384   3.227   3.387
10018WAT      O30295   6.595   9.290   7.567
10018WAT     H130296   6.534   9.211   7.561
10018WAT     H230297   6.543   9.374   7.552
10019WAT      O30298   6.452   6.245   7.521
10019WAT     H130299   6.510   6.181   7.471
10019WAT     H230300   6.385   6.194   7.575
10020WAT      O30301   2.958   7.907   1.996
10020WAT     H130302   2.922   7.816   1.973
10020WAT     H230303   3.051   7.915   1.960
10021WAT      O30304   5.912   4.535   2.180
10021WAT     H130305   5.910   4.435   2.190
10021WAT     H230306   5.840   4.575   2.236
10022WAT      O30307   2.993   1.369   6.310
10022WAT     H130308   2.941   1.354   6.226
10022WAT     H230309   3.036   1.459   6.307
10023WAT      O30310   0.959   9.406   2.630
10023WAT     H130311   1.029   9.351   2.676
10023WAT     H230312   0.933   9.482   2.690
10024WAT      O30313   8.146   1.710   9.125
10024WAT     H130314   8.215   1.769   9.083
10024WAT     H230315   8.065   1.764   9.148
10025WAT      O30316   8.900   8.877   6.628
10025WAT     H130317   8.854   8.965   6.642
10025WAT     H230318   8.935   8.843   6.715
10026WAT      O30319   1.676   4.291   9.556
10026WAT     H130320   1.591   4.252   9.520
10026WAT     H230321   1.657   4.339   9.642
10027WAT      O30322   1.252   7.208   6.660
10027WAT     H130323   1.155   7.183   6.659
10027WAT     H230324   1.298   7.166   6.582
10028WAT      O30325   9.532   3.588   6.493
10028WAT     H130326   9.538   3.685   6.473
10028WAT     H230327   9.503   3.539   6.411
10029WAT      O30328   0.475   6.339   9.716
10029WAT     H130329   0.477   6.438   9.701
10029WAT     H230330   0.474   6.320   9.815
10030WAT      O30331   0.827   9.580   7.380
10030WAT     H130332   0.766   9.531   7.317
10030WAT     H230333   0.784   9.666   7.407
10031WAT      O30334   3.432   5.556   1.318
10031WAT     H130335   3.470   5.465   1.333
10031WAT     H230336   3.411   5.568   1.221
10032WAT      O30337   3.826   9.650   7.215
10032WAT     H130338   3.780   9.613   7.296
10032WAT     H230339   3.881   9.729   7.241
10033WAT      O30340   5.471   6.416   0.525
10033WAT     H130341   5.413   6.368   0.459
10033WAT     H230342   5.526   6.349   0.576
10034WAT      O30343   8.458   3.988   0.714
10034WAT     H130344   8.469   3.913   0.779
10034WAT     H230345   8.547   4.012   0.675
10035WAT      O30346   4.292   0.671   0.757
10035WAT     H130347   4.205   0.699   0.717
10035WAT     H230348   4.290   0.572   0.774
10036WAT      O30349   8.987   8.682   2.147
10036WAT     H130350   8.964   8.779   2.151
10036WAT     H230351   9.060   8.667   2.080
10037WAT      O30352   7.076   7.873   6.709
10037WAT     H130353   7.081   7.899   6.613
10037WAT     H230354   6.988   7.904   6.747
10038WAT      O30355   7.754   5.256   2.325
10038WAT     H130356   7.843   5.211   2.323
10038WAT     H230357   7.763   5.351   2.296
10039WAT      O30358   9.836   0.198   5.025
10039WAT     H130359   9.856   0.296   5.024
10039WAT     H230360   9.783   0.174   4.944
10040WAT      O30361   2.941   8.827   2.896
10040WAT     H130362   2.930   8.908   2.954
10040WAT     H230363   3.024   8.778   2.924
10041WAT      O30364   0.786   7.318   5.869
10041WAT     H130365   0.729   7.245   5.832
10041WAT     H230366   0.792   7.308   5.968
10042WAT      O30367   1.500   4.850   0.287
10042WAT     H130368   1.404   4.841   0.262
10042WAT     H230369   1.509   4.905   0.369
10043WAT      O30370   1.062   7.612   4.721
10043WAT     H130371   1.085   7.546   4.649
10043WAT     H230372   1.126   7.603   4.797
10044WAT      O30373   0.756   3.732   8.082
10044WAT     H130374   0.702   3.680   8.015
10044WAT     H230375   0.748   3.689   8.172
10045WAT      O30376   6.154   1.340   1.621
10045WAT     H130377   6.196   1.311   1.536
10045WAT     H230378   6.073   1.284   1.639
10046WAT      O30379   1.752   3.194   3.271
10046WAT     H130380   1.690   3.214   3.195
10046WAT     H230381   1.704   3.142   3.341
10047WAT      O30382   5.068   2.429   8.260
10047WAT     H130383   5.132   2.490   8.306
10047WAT     H230384   4.997   2.401   8.325
10048WAT      O30385   8.070   3.919   1.187
10048WAT     H130386   8.109   4.008   1.163
10048WAT     H230387   7.970   3.922   1.177
10049WAT      O30388   9.426   2.875   7.034
10049WAT     H130389   9.482   2.940   7.086
10049WAT     H230390   9.335   2.914   7.018
10050WAT      O30391   0.767   8.365   6.206
10050WAT     H130392   0.782   8.463   6.212
10050WAT     H230393   0.824   8.327   6.133
10051WAT      O30394   9.484   4.223   5.791
10051WAT     H130395   9.392   4.222   5.830
10051WAT     H230396   9.552   4.217   5.864
10052WAT      O30397   1.743   6.391   4.765
10052WAT     H130398   1.648   6.409   4.737
10052WAT     H230399   1.784   6.325   4.702
10053WAT      O30400   2.640   8.632   6.784
10053WAT     H130401   2.605   8.626   6.877
10053WAT     H230402   2.651   8.540   6.746
10054WAT      O30403   2.474   6.210   7.380
10054WAT     H130404   2.400   6.231   7.444
10054WAT     H230405   2.549   6.274   7.394
10055WAT      O30406   8.612   8.205   7.432
10055WAT     H130407   8.581   8.258   7.353
10055WAT     H230408   8.621   8.265   7.511
10056WAT      O30409   4.199   6.701   4.461
10056WAT     H130410   4.196   6.641   4.381
10056WAT     H230411   4.197   6.647   4.544
10057WAT      O30412   3.947   6.699   1.747
10057WAT     H130413   3.950   6.611   1.795
10057WAT     H230414   4.037   6.721   1.711
10058WAT      O30415   8.737   1.192   4.980
10058WAT     H130416   8.794   1.237   4.911
10058WAT     H230417   8.670   1.257   5.015
10059WAT      O30418   4.640   8.535   6.956
10059WAT     H130419   4.696   8.518   6.875
10059WAT     H230420   4.674   8.479   7.032
10060WAT      O30421   6.093   7.299   0.784
10060WAT     H130422   6.163   7.364   0.813
10060WAT     H230423   6.064   7.321   0.691
10061WAT      O30424   8.811   1.987   2.411
10061WAT     H130425   8.762   2.054   2.355
10061WAT     H230426   8.840   2.031   2.497
10062WAT      O30427   0.479   0.335   5.429
10062WAT     H130428   0.399   0.391   5.405
10062WAT     H230429   0.541   0.332   5.351
10063WAT      O30430   2.450   5.285   8.071
10063WAT     H130431   2.402   5.248   8.150
10063WAT     H230432   2.492   5.372   8.095
10064WAT      O30433   5.237   5.417   6.747
10064WAT     H130434   5.185   5.395   6.830
10064WAT     H230435   5.264   5.513   6.750
10065WAT      O30436   4.088   7.817   4.709
10065WAT     H130437   4.126   7.805   4.801
10065WAT     H230438   4.042   7.906   4.704
10066WAT      O30439   6.012   0.849   4.109
10066WAT     H130440   5.928   0.871   4.059
10066WAT     H230441   6.033   0.752   4.097
10067WAT      O30442   3.125   0.851   5.976
10067WAT     H130443   3.104   0.938   5.930
10067WAT     H230444   3.074   0.845   6.061
10068WAT      O30445   8.628   1.436   6.191
10068WAT     H130446   8.683   1.418   6.109
10068WAT     H230447   8.564   1.361   6.206
10069WAT      O30448   2.953   7.436   6.596
10069WAT     H130449   2.918   7.520   6.554
10069WAT     H230450   2.883   7.396   6.655
10070WAT      O30451   2.281   4.688   4.317
10070WAT     H130452   2.194   4.644   4.340
10070WAT     H230453   2.280   4.715   4.220
10071WAT      O30454   0.050   2.625   2.384
10071WAT     H130455   0.118   2.623   2.458
10071WAT     H230456   0.095   2.608   2.297
10072WAT      O30457   2.383   3.985   4.249
10072WAT     H130458   2.415   3.922   4.319
10072WAT     H230459   2.452   4.056   4.233
10073WAT      O30460   3.927   6.299   8.853
10073WAT     H130461   3.896   6.347   8.936
10073WAT     H230462   3.967   6.211   8.879
10074WAT      O30463   5.839   7.531   0.103
10074WAT     H130464   5.920   7.479   0.074
10074WAT     H230465   5.800   7.579   0.024
10075WAT      O30466   9.759   2.589   8.833
10075WAT     H130467   9.732   2.581   8.929
10075WAT     H230468   9.678   2.579   8.775
10076WAT      O30469   8.416   2.478   0.268
10076WAT     H130470   8.340   2.417   0.248
10076WAT     H230471   8.401   2.567   0.225
10077WAT      O30472   9.067   7.157   1.970
10077WAT     H130473   9.115   7.156   2.058
10077WAT     H230474   9.100   7.234   1.916
10078WAT      O30475   8.178   7.798   0.522
10078WAT     H130476   8.200   7.707   0.487
10078WAT     H230477   8.118   7.845   0.457
10079WAT      O30478   6.395   5.713   5.804
10079WAT     H130479   6.422   5.777   5.876
10079WAT     H230480   6.476   5.671   5.765
10080WAT      O30481   5.167   0.431   6.679
10080WAT     H130482   5.144   0.493   6.754
10080WAT     H230483   5.266   0.424   6.671
10081WAT      O30484   0.997   2.517   7.663
10081WAT     H130485   1.075   2.502   7.603
10081WAT     H230486   1.006   2.462   7.745
10082WAT      O30487   1.599   6.447   8.954
10082WAT     H130488   1.525   6.382   8.940
10082WAT     H230489   1.561   6.534   8.987
10083WAT      O30490   1.469   7.442   6.180
10083WAT     H130491   1.445   7.507   6.108
10083WAT     H230492   1.496   7.492   6.262
10084WAT      O30493   3.906   0.831   1.326
10084WAT     H130494   3.959   0.767   1.269
10084WAT     H230495   3.926   0.813   1.422
10085WAT      O30496   9.053   4.009   8.837
10085WAT     H130497   8.983   4.056   8.784
10085WAT     H230498   9.108   3.952   8.776
10086WAT      O30499   2.813   7.491   1.090
10086WAT     H130500   2.767   7.571   1.050
10086WAT     H230501   2.767   7.408   1.061
10087WAT      O30502   1.789   4.383   1.628
10087WAT     H130503   1.856   4.425   1.690
10087WAT     H230504   1.730   4.454   1.590
10088WAT      O30505   3.720   4.966   4.660
10088WAT     H130506   3.730   5.000   4.567
10088WAT     H230507   3.798   4.908   4.683
10089WAT      O30508   8.990   7.527   5.475
10089WAT     H130509   8.970   7.517   5.378
10089WAT     H230510   9.044   7.448   5.506
10090WAT      O30511   1.120   4.728   6.946
10090WAT     H130512   1.190   4.740   6.876
10090WAT     H230513   1.161   4.695   7.030
10091WAT      O30514   4.206   5.274   0.732
10091WAT     H130515   4.207   5.242   0.638
10091WAT     H230516   4.114   5.304   0.756
10092WAT      O30517   7.695   6.947   7.515
10092WAT     H130518   7.787   6.976   7.488
10092WAT     H230519   7.638   6.935   7.434
10093WAT      O30520   2.044   5.152   2.709
10093WAT     H130521   2.003   5.241   2.687
10093WAT     H230522   1.974   5.092   2.748
10094WAT      O30523   1.197   6.931   8.840
10094WAT     H130524   1.266   7.003   8.839
10094WAT     H230525   1.140   6.941   8.922
10095WAT      O30526   1.841   8.763   7.166
10095WAT     H130527   1.804   8.679   7.205
10095WAT     H230528   1.859   8.750   7.069
10096WAT      O30529   4.434   4.975   6.924
10096WAT     H130530   4.371   4.943   6.994
10096WAT     H230531   4.385   5.034   6.859
10097WAT      O30532   5.094   8.941   4.990
10097WAT     H130533   5.082   9.035   5.020
10097WAT     H230534   5.178   8.934   4.935
10098WAT      O30535   9.169   2.394   5.128
10098WAT     H130536   9.257   2.412   5.084
10098WAT     H230537   9.117   2.328   5.074
10099WAT      O30538   6.894   6.738   8.126
10099WAT     H130539   6.942   6.651   8.139
10099WAT     H230540   6.942   6.810   8.177
10100WAT      O30541   8.292   6.414   6.388
10100WAT     H130542   8.371   6.372   6.342
10100WAT     H230543   8.217   6.347   6.392
10101WAT      O30544   6.500   2.775   2.419
10101WAT     H130545   6.430   2.819   2.474
10101WAT     H230546   6.459   2.702   2.365
10102WAT      O30547   5.075   5.544   8.135
10102WAT     H130548   4.994   5.595   8.165
10102WAT     H230549   5.139   5.607   8.089
10103WAT      O30550   8.254   0.851   1.565
10103WAT     H130551   8.235   0.885   1.657
10103WAT     H230552   8.336   0.794   1.567
10104WAT      O30553   1.090   2.376   9.857
10104WAT     H130554   1.131   2.454   9.904
10104WAT     H230555   1.102   2.294   9.913
10105WAT      O30556   7.204   4.992   9.257
10105WAT     H130557   7.266   4.983   9.180
10105WAT     H230558   7.215   4.914   9.319
10106WAT      O30559   5.615   5.419   4.472
10106WAT     H130560   5.641   5.409   4.568
10106WAT     H230561   5.691   5.456   4.420
10107WAT      O30562   2.346   3.882   0.334
10107WAT     H130563   2.355   3.792   0.377
10107WAT     H230564   2.388   3.951   0.394
10108WAT      O30565   5.653   5.692   7.766
10108WAT     H130566   5.682   5.749   7.690
10108WAT     H230567   5.665   5.742   7.852
10109WAT      O30568   1.847   4.158   2.470
10109WAT     H130569   1.868   4.124   2.378
10109WAT     H230570   1.763   4.114   2.503
10110WAT      O30571   6.672   3.341   1.875
10110WAT     H130572   6.655   3.324   1.972
10110WAT     H230573   6.584   3.351   1.828
10111WAT      O30574   2.031   6.317   7.215
10111WAT     H130575   2.053   6.283   7.306
10111WAT     H230576   1.932   6.311   7.200
10112WAT      O30577   5.326   4.471   6.134
10112WAT     H130578   5.408   4.417   6.153
10112WAT     H230579   5.308   4.470   6.036
10113WAT      O30580   7.014   0.602   6.127
10113WAT     H130581   6.976   0.694   6.143
10113WAT     H230582   7.065   0.573   6.208
10114WAT      O30583   0.699   4.979   6.260
10114WAT     H130584   0.658   5.055   6.210
10114WAT     H230585   0.630   4.907   6.273
10115WAT      O30586   0.727   9.183   5.215
10115WAT     H130587   0.638   9.144   5.236
10115WAT     H230588   0.767   9.221   5.299
10116WAT      O30589   3.096   5.317   7.311
10116WAT     H130590   3.047   5.293   7.395
10116WAT     H230591   3.190   5.285   7.317
10117WAT      O30592   5.401   1.098   2.183
10117WAT     H130593   5.341   1.168   2.222
10117WAT     H230594   5.439   1.131   2.096
10118WAT      O30595   1.475   4.094   5.347
10118WAT     H130596   1.517   4.062   5.432
10118WAT     H230597   1.508   4.039   5.270
10119WAT      O30598   7.195   9.069   5.193
10119WAT     H130599   7.264   9.081   5.263
10119WAT     H230600   7.188   8.972   5.169
10120WAT      O30601   1.320   0.699   3.615
10120WAT     H130602   1.391   0.761   3.647
10120WAT     H230603   1.354   0.605   3.618
10121WAT      O30604   7.445   0.434   8.409
10121WAT     H130605   7.402   0.417   8.497
10121WAT     H230606   7.388   0.396   8.336
10122WAT      O30607   1.444   5.841   8.496
10122WAT     H130608   1.486   5.808   8.412
10122WAT     H230609   1.504   5.908   8.539
10123WAT      O30610   6.993   9.409   1.336
10123WAT     H130611   7.020   9.313   1.328
10123WAT     H230612   6.989   9.435   1.433
10124WAT      O30613   4.068   3.987   3.731
10124WAT     H130614   3.997   3.916   3.735
10124WAT     H230615   4.083   4.014   3.636
10125WAT      O30616   3.853   7.647   2.653
10125WAT     H130617   3.847   7.644   2.553
10125WAT     H230618   3.761   7.639   2.692
10126WAT      O30619   3.746   9.224   3.736
10126WAT     H130620   3.696   9.152   3.784
10126WAT     H230621   3.809   9.183   3.670
10127WAT      O30622   9.506   9.540   2.587
10127WAT     H130623   9.480   9.605   2.658
10127WAT     H230624   9.437   9.467   2.583
10128WAT      O30625   8.297   9.540   8.820
10128WAT     H130626   8.389   9.579   8.823
10128WAT     H230627   8.300   9.452   8.773
10129WAT      O30628  -0.000   8.484   8.078
10129WAT     H130629   0.058   8.426   8.134
10129WAT     H230630   0.057   8.546   8.024
10130WAT      O30631   8.512   6.828   2.472
10130WAT     H130632   8.551   6.739   2.494
10130WAT     H230633   8.412   6.824   2.477
10131WAT      O30634   5.080   6.743   2.253
10131WAT     H130635   5.032   6.696   2.328
10131WAT     H230636   5.128   6.676   2.197
10132WAT      O30637   6.089   6.575   6.325
10132WAT     H130638   6.170   6.616   6.284
10132WAT     H230639   6.021   6.557   6.254
10133WAT      O30640   4.529   3.730   3.623
10133WAT     H130641   4.589   3.760   3.549
10133WAT     H230642   4.570   3.650   3.669
10134WAT      O30643   9.816   9.109   7.241
10134WAT     H130644   9.779   9.072   7.326
10134WAT     H230645   9.882   9.181   7.262
10135WAT      O30646   7.955   8.046   7.825
10135WAT     H130647   7.857   8.025   7.827
10135WAT     H230648   7.993   8.021   7.736
10136WAT      O30649   0.008   5.741   1.764
10136WAT     H130650   0.059   5.825   1.779
10136WAT     H230651   0.010   5.717   1.667
10137WAT      O30652   1.347   6.994   4.396
10137WAT     H130653   1.265   7.051   4.400
10137WAT     H230654   1.424   7.042   4.438
10138WAT      O30655   8.840   5.512   4.631
10138WAT     H130656   8.886   5.433   4.672
10138WAT     H230657   8.816   5.578   4.702
10139WAT      O30658   8.398   4.032   0.404
10139WAT     H130659   8.345   4.099   0.456
10139WAT     H230660   8.417   3.953   0.462
10140WAT      O30661   1.926   8.817   4.712
10140WAT     H130662   1.871   8.814   4.629
10140WAT     H230663   1.871   8.788   4.790
10141WAT      O30664   0.436   9.391   4.809
10141WAT     H130665   0.476   9.305   4.781
10141WAT     H230666   0.504   9.464   4.801
10142WAT      O30667   6.431   6.215   6.550
10142WAT     H130668   6.439   6.275   6.629
10142WAT     H230669   6.337   6.216   6.517
10143WAT      O30670   7.258   0.460   0.167
10143WAT     H130671   7.161   0.487   0.159
10143WAT     H230672   7.315   0.542   0.165
10144WAT      O30673   4.183   0.793   1.668
10144WAT     H130674   4.179   0.800   1.768
10144WAT     H230675   4.090   0.788   1.631
10145WAT      O30676   7.208   3.086   8.292
10145WAT     H130677   7.205   3.008   8.230
10145WAT     H230678   7.297   3.131   8.285
10146WAT      O30679   2.102   8.968   7.809
10146WAT     H130680   2.149   8.913   7.878
10146WAT     H230681   2.143   9.059   7.806
10147WAT      O30682   1.414   8.327   4.191
10147WAT     H130683   1.461   8.372   4.115
10147WAT     H230684   1.345   8.388   4.230
10148WAT      O30685   3.878   1.193   6.760
10148WAT     H130686   3.808   1.136   6.803
10148WAT     H230687   3.919   1.252   6.829
10149WAT      O30688   7.213   6.619   0.436
10149WAT     H130689   7.255   6.692   0.489
10149WAT     H230690   7.172   6.552   0.497
10150WAT      O30691   3.203   1.950   3.920
10150WAT     H130692   3.234   1.859   3.947
10150WAT     H230693   3.133   1.982   3.984
10151WAT      O30694   7.804   5.080   0.099
10151WAT     H130695   7.851   5.127   0.025
10151WAT     H230696   7.871   5.043   0.164
10152WAT      O30697   6.115   0.460   3.879
10152WAT     H130698   6.116   0.509   3.792
10152WAT     H230699   6.183   0.388   3.878
10153WAT      O30700   9.762   2.282   0.416
10153WAT     H130701   9.665   2.293   0.436
10153WAT     H230702   9.815   2.295   0.499
10154WAT      O30703   7.412   0.289   2.134
10154WAT     H130704   7.340   0.354   2.112
10154WAT     H230705   7.494   0.338   2.164
10155WAT      O30706   6.949   8.893   3.564
10155WAT     H130707   6.935   8.887   3.663
10155WAT     H230708   6.881   8.955   3.525
10156WAT      O30709   4.948   9.676   7.882
10156WAT     H130710   4.990   9.586   7.893
10156WAT     H230711   4.992   9.741   7.944
10157WAT      O30712   4.216   5.858   8.599
10157WAT     H130713   4.301   5.860   8.651
10157WAT     H230714   4.228   5.908   8.513
10158WAT      O30715   6.273   2.235   5.700
10158WAT     H130716   6.250   2.138   5.712
10158WAT     H230717   6.326   2.266   5.779
10159WAT      O30718   1.899   0.790   6.120
10159WAT     H130719   1.890   0.827   6.212
10159WAT     H230720   1.878   0.692   6.121
10160WAT      O30721   7.868   6.179   7.917
10160WAT     H130722   7.845   6.213   8.009
10160WAT     H230723   7.911   6.251   7.864
10161WAT      O30724   1.271   9.622   4.304
10161WAT     H130725   1.292   9.529   4.337
10161WAT     H230726   1.356   9.672   4.289
10162WAT      O30727   0.964   7.657   5.428
10162WAT     H130728   0.986   7.623   5.519
10162WAT     H230729   1.041   7.708   5.392
10163WAT      O30730   0.029   1.470   4.973
10163WAT     H130731   0.107   1.468   5.036
10163WAT     H230732   0.062   1.462   4.879
10164WAT      O30733   5.458   2.454   9.643
10164WAT     H130734   5.441   2.552   9.628
10164WAT     H230735   5.393   2.419   9.710
10165WAT      O30736   8.719   4.606   0.484
10165WAT     H130737   8.812   4.583   0.454
10165WAT     H230738   8.675   4.663   0.415
10166WAT      O30739   6.965   8.922   0.753
10166WAT     H130740   7.033   8.851   0.770
10166WAT     H230741   6.898   8.923   0.828
10167WAT      O30742   7.613   7.572   8.212
10167WAT     H130743   7.650   7.645   8.154
10167WAT     H230744   7.579   7.612   8.297
10168WAT      O30745   4.129   2.174   1.902
10168WAT     H130746   4.102   2.104   1.836
10168WAT     H230747   4.211   2.144   1.951
10169WAT      O30748   1.990   4.461   7.222
10169WAT     H130749   1.962   4.545   7.177
10169WAT     H230750   2.008   4.478   7.319
10170WAT      O30751   8.978   8.807   0.943
10170WAT     H130752   8.896   8.862   0.935
10170WAT     H230753   9.051   8.847   0.887
10171WAT      O30754   7.620   3.473   0.396
10171WAT     H130755   7.623   3.572   0.410
10171WAT     H230756   7.527   3.446   0.372
10172WAT      O30757   7.201   9.381   1.633
10172WAT     H130758   7.236   9.394   1.541
10172WAT     H230759   7.104   9.405   1.636
10173WAT      O30760   5.055   5.810   6.280
10173WAT     H130761   5.122   5.773   6.344
10173WAT     H230762   4.972   5.754   6.282
10174WAT      O30763   9.781   2.257   7.021
10174WAT     H130764   9.868   2.290   7.056
10174WAT     H230765   9.797   2.183   6.956
10175WAT      O30766   2.799   3.854   5.136
10175WAT     H130767   2.797   3.953   5.141
10175WAT     H230768   2.892   3.821   5.156
10176WAT      O30769   6.650   2.376   0.419
10176WAT     H130770   6.551   2.379   0.407
10176WAT     H230771   6.690   2.459   0.381
10177WAT      O30772   6.344   1.723   4.651
10177WAT     H130773   6.411   1.788   4.688
10177WAT     H230774   6.382   1.681   4.568
10178WAT      O30775   7.844   9.765   9.400
10178WAT     H130776   7.873   9.704   9.326
10178WAT     H230777   7.855   9.860   9.370
10179WAT      O30778   5.173   2.472   1.733
10179WAT     H130779   5.199   2.483   1.829
10179WAT     H230780   5.181   2.560   1.686
10180WAT      O30781   6.181   0.555   8.924
10180WAT     H130782   6.151   0.639   8.879
10180WAT     H230783   6.109   0.522   8.985
10181WAT      O30784   5.461   9.534   2.958
10181WAT     H130785   5.379   9.589   2.974
10181WAT     H230786   5.532   9.558   3.024
10182WAT      O30787   7.346   7.832   9.454
10182WAT     H130788   7.384   7.832   9.547
10182WAT     H230789   7.296   7.918   9.439
10183WAT      O30790   5.756   2.948   7.626
10183WAT     H130791   5.822   3.013   7.666
10183WAT     H230792   5.779   2.856   7.656
10184WAT      O30793   8.846   4.893   9.882
10184WAT     H130794   8.750   4.883   9.908
10184WAT     H230795   8.888   4.966   9.936
10185WAT      O30796   1.161   6.283   2.340
10185WAT     H130797   1.106   6.234   2.407
10185WAT     H230798   1.161   6.233   2.254
10186WAT      O30799   1.313   8.537   0.764
10186WAT     H130800   1.378   8.564   0.693
10186WAT     H230801   1.340   8.449   0.802
10187WAT      O30802   7.913   3.891   1.604
10187WAT     H130803   7.978   3.831   1.557
10187WAT     H230804   7.917   3.875   1.702
10188WAT      O30805   8.987   1.486   6.554
10188WAT     H130806   8.914   1.469   6.488
10188WAT     H230807   9.076   1.464   6.513
10189WAT      O30808   6.804   4.963   4.482
10189WAT     H130809   6.725   4.979   4.422
10189WAT     H230810   6.872   5.034   4.467
10190WAT      O30811   3.680   7.223   0.897
10190WAT     H130812   3.753   7.179   0.949
10190WAT     H230813   3.720   7.294   0.838
10191WAT      O30814   6.462   0.655   9.051
10191WAT     H130815   6.451   0.627   8.955
10191WAT     H230816   6.512   0.741   9.055
10192WAT      O30817   0.311   3.881   1.338
10192WAT     H130818   0.353   3.880   1.247
10192WAT     H230819   0.230   3.938   1.337
10193WAT      O30820   5.926   2.446   6.021
10193WAT     H130821   5.883   2.516   5.964
10193WAT     H230822   5.859   2.375   6.044
10194WAT      O30823   7.359   2.959   5.760
10194WAT     H130824   7.407   3.042   5.729
10194WAT     H230825   7.304   2.981   5.841
10195WAT      O30826   1.038   3.117   9.822
10195WAT     H130827   1.091   3.154   9.745
10195WAT     H230828   1.063   3.021   9.836
10196WAT      O30829   2.928   7.144   2.167
10196WAT     H130830   2.905   7.161   2.071
10196WAT     H230831   2.980   7.222   2.202
10197WAT      O30832   2.149   4.933   3.289
10197WAT     H130833   2.204   4.877   3.227
10197WAT     H230834   2.096   4.874   3.349
10198WAT      O30835   4.814   4.039   5.869
10198WAT     H130836   4.868   3.956   5.881
10198WAT     H230837   4.717   4.017   5.874
10199WAT      O30838   1.540   8.943   7.155
10199WAT     H130839   1.603   8.946   7.078
10199WAT     H230840   1.571   8.876   7.222
10200WAT      O30841   0.749   1.957   9.823
10200WAT     H130842   0.705   1.935   9.736
10200WAT     H230843   0.759   1.874   9.878
10201WAT      O30844   9.199   7.230   5.258
10201WAT     H130845   9.110   7.233   5.211
10201WAT     H230846   9.189   7.270   5.349
10202WAT      O30847   1.979   3.544   2.234
10202WAT     H130848   1.932   3.614   2.288
10202WAT     H230849   1.957   3.454   2.270
10203WAT      O30850   0.613   0.518   8.199
10203WAT     H130851   0.550   0.595   8.189
10203WAT     H230852   0.634   0.480   8.110
10204WAT      O30853   0.469   4.246   6.987
10204WAT     H130854   0.452   4.148   6.999
10204WAT     H230855   0.568   4.262   6.980
10205WAT      O30856   6.714   1.641   9.750
10205WAT     H130857   6.622   1.608   9.772
10205WAT     H230858   6.773   1.629   9.829
10206WAT      O30859   8.333   8.386   5.649
10206WAT     H130860   8.322   8.485   5.641
10206WAT     H230861   8.372   8.364   5.738
10207WAT      O30862   8.000   2.427   3.353
10207WAT     H130863   8.065   2.352   3.342
10207WAT     H230864   7.981   2.441   3.450
10208WAT      O30865   2.658   0.285   4.431
10208WAT     H130866   2.577   0.245   4.389
10208WAT     H230867   2.738   0.229   4.412
10209WAT      O30868   7.690   4.386   7.839
10209WAT     H130869   7.671   4.315   7.907
10209WAT     H230870   7.716   4.344   7.753
10210WAT      O30871   3.202   6.354   0.965
10210WAT     H130872   3.104   6.373   0.964
10210WAT     H230873   3.251   6.436   0.996
10211WAT      O30874   5.155   3.690   9.506
10211WAT     H130875   5.120   3.656   9.418
10211WAT     H230876   5.237   3.639   9.531
10212WAT      O30877   5.956   9.616   7.279
10212WAT     H130878   6.034   9.568   7.240
10212WAT     H230879   5.889   9.635   7.207
10213WAT      O30880   7.841   5.046   1.794
10213WAT     H130881   7.844   5.119   1.863
10213WAT     H230882   7.781   4.973   1.825
10214WAT      O30883   1.454   2.151   2.872
10214WAT     H130884   1.475   2.234   2.822
10214WAT     H230885   1.475   2.164   2.969
10215WAT      O30886   7.296   1.077   1.703
10215WAT     H130887   7.324   1.170   1.680
10215WAT     H230888   7.351   1.042   1.779
10216WAT      O30889   4.941   1.743   0.754
10216WAT     H130890   4.996   1.660   0.760
10216WAT     H230891   4.847   1.719   0.732
10217WAT      O30892   3.633   4.058   0.561
10217WAT     H130893   3.721   4.037   0.604
10217WAT     H230894   3.649   4.102   0.472
10218WAT      O30895   6.773   8.327   0.100
10218WAT     H130896   6.687   8.316   0.049
10218WAT     H230897   6.800   8.239   0.139
10219WAT      O30898   3.072   2.409   6.937
10219WAT     H130899   3.076   2.422   6.838
10219WAT     H230900   2.995   2.461   6.974
10220WAT      O30901   3.524   4.310   8.219
10220WAT     H130902   3.547   4.391   8.165
10220WAT     H230903   3.559   4.228   8.174
10221WAT      O30904   5.126   0.027   4.598
10221WAT     H130905   5.172   0.082   4.668
10221WAT     H230906   5.195  -0.020   4.542
10222WAT      O30907   1.106   9.101   3.024
10222WAT     H130908   1.055   9.015   3.029
10222WAT     H230909   1.200   9.085   3.056
10223WAT      O30910   4.560   4.633   7.930
10223WAT     H130911   4.619   4.572   7.877
10223WAT     H230912   4.574   4.728   7.900
10224WAT      O30913   2.937   0.061   8.402
10224WAT     H130914   2.974   0.017   8.320
10224WAT     H230915   2.919  -0.009   8.471
10225WAT      O30916   7.046   1.994   4.186
10225WAT     H130917   7.075   1.924   4.251
10225WAT     H230918   6.990   2.062   4.232
10226WAT      O30919   4.365   7.276   4.081
10226WAT     H130920   4.339   7.357   4.029
10226WAT     H230921   4.288   7.244   4.136
10227WAT      O30922   8.820   3.879   2.555
10227WAT     H130923   8.862   3.883   2.465
10227WAT     H230924   8.875   3.821   2.616
10228WAT      O30925   6.339   0.518   7.588
10228WAT     H130926   6.409   0.582   7.557
10228WAT     H230927   6.382   0.432   7.614
10229WAT      O30928   0.885   0.760   2.825
10229WAT     H130929   0.946   0.681   2.819
10229WAT     H230930   0.928   0.839   2.780
10230WAT      O30931   6.221   5.419   6.651
10230WAT     H130932   6.289   5.358   6.691
10230WAT     H230933   6.222   5.409   6.552
10231WAT      O30934   9.700   3.970   3.548
10231WAT     H130935   9.795   3.949   3.571
10231WAT     H230936   9.697   4.047   3.484
10232WAT      O30937   7.101   9.535   8.775
10232WAT     H130938   7.119   9.586   8.691
10232WAT     H230939   7.093   9.437   8.753
10233WAT      O30940   3.150   6.699   2.312
10233WAT     H130941   3.218   6.643   2.360
10233WAT     H230942   3.069   6.709   2.369
10234WAT      O30943   5.988   4.377   6.345
10234WAT     H130944   5.946   4.355   6.257
10234WAT     H230945   5.993   4.295   6.401
10235WAT      O30946   5.021   6.891   5.250
10235WAT     H130947   4.961   6.870   5.172
10235WAT     H230948   4.966   6.896   5.333
10236WAT      O30949   0.685   7.852   3.900
10236WAT     H130950   0.760   7.787   3.914
10236WAT     H230951   0.718   7.929   3.844
10237WAT      O30952   4.899   5.240   4.536
10237WAT     H130953   4.957   5.192   4.470
10237WAT     H230954   4.803   5.229   4.511
10238WAT      O30955   0.144   6.446   9.505
10238WAT     H130956   0.044   6.452   9.515
10238WAT     H230957   0.178   6.373   9.564
10239WAT      O30958   5.963   5.596   1.405
10239WAT     H130959   5.895   5.578   1.477
10239WAT     H230960   6.050   5.554   1.430
10240WAT      O30961   9.618   6.137   7.755
10240WAT     H130962   9.640   6.225   7.797
10240WAT     H230963   9.671   6.065   7.799
10241WAT      O30964   1.487   0.290   6.911
10241WAT     H130965   1.526   0.381   6.922
10241WAT     H230966   1.388   0.297   6.897
10242WAT      O30967   9.350   8.933   8.988
10242WAT     H130968   9.303   8.926   8.900
10242WAT     H230969   9.306   9.005   9.043
10243WAT      O30970   9.319   9.684   2.350
10243WAT     H130971   9.353   9.760   2.405
10243WAT     H230972   9.305   9.604   2.409
10244WAT      O30973   7.234   4.578   5.239
10244WAT     H130974   7.314   4.629   5.270
10244WAT     H230975   7.157   4.595   5.301
10245WAT      O30976   7.637   9.281   3.795
10245WAT     H130977   7.569   9.211   3.817
10245WAT     H230978   7.595   9.350   3.737
10246WAT      O30979   2.743   0.900   9.400
10246WAT     H130980   2.650   0.935   9.386
10246WAT     H230981   2.746   0.846   9.483
10247WAT      O30982   9.792   3.492   3.361
10247WAT     H130983   9.892   3.492   3.352
10247WAT     H230984   9.759   3.585   3.373
10248WAT      O30985   7.152   6.040   5.516
10248WAT     H130986   7.080   6.107   5.530
10248WAT     H230987   7.215   6.072   5.445
10249WAT      O30988   0.797   6.361   4.227
10249WAT     H130989   0.795   6.449   4.274
10249WAT     H230990   0.872   6.305   4.264
10250WAT      O30991   9.674   8.901   7.736
10250WAT     H130992   9.607   8.955   7.786
10250WAT     H230993   9.733   8.853   7.801
10251WAT      O30994   7.845   1.821   8.120
10251WAT     H130995   7.936   1.829   8.161
10251WAT     H230996   7.831   1.727   8.090
10252WAT      O30997   5.749   7.909   4.629
10252WAT     H130998   5.785   7.834   4.684
10252WAT     H230999   5.649   7.904   4.628
10253WAT      O31000   2.102   5.311   6.139
10253WAT     H131001   2.111   5.211   6.140
10253WAT     H231002   2.007   5.336   6.158
10254WAT      O31003   8.520   6.886   7.056
10254WAT     H131004   8.613   6.883   7.094
10254WAT     H231005   8.498   6.798   7.014
10255WAT      O31006   0.291   5.596   9.697
10255WAT     H131007   0.254   5.688   9.687
10255WAT     H231008   0.361   5.595   9.769
10256WAT      O31009   1.276   3.226   2.507
10256WAT     H131010   1.284   3.261   2.600
10256WAT     H231011   1.243   3.299   2.446
10257WAT      O31012   8.330   5.938   4.712
10257WAT     H131013   8.230   5.940   4.720
10257WAT     H231014   8.356   5.886   4.631
10258WAT      O31015   2.060   9.341   2.773
10258WAT     H131016   2.127   9.382   2.835
10258WAT     H231017   2.081   9.368   2.679
10259WAT      O31018   9.645   8.686   3.507
10259WAT     H131019   9.555   8.730   3.515
10259WAT     H231020   9.645   8.600   3.557
10260WAT      O31021   5.785   9.273   2.800
10260WAT     H131022   5.697   9.225   2.808
10260WAT     H231023   5.774   9.352   2.740
10261WAT      O31024   7.513   3.363   1.034
10261WAT     H131025   7.481   3.279   1.079
10261WAT     H231026   7.529   3.434   1.102
10262WAT      O31027   5.402   8.907   8.668
10262WAT     H131028   5.451   8.824   8.640
10262WAT     H231029   5.465   8.967   8.718
10263WAT      O31030   1.294   9.283   0.897
10263WAT     H131031   1.263   9.330   0.814
10263WAT     H231032   1.393   9.267   0.890
10264WAT      O31033   9.270   1.374   8.358
10264WAT     H131034   9.197   1.323   8.404
10264WAT     H231035   9.279   1.343   8.264
10265WAT      O31036   5.881   5.578   8.793
10265WAT     H131037   5.793   5.544   8.759
10265WAT     H231038   5.953   5.553   8.729
10266WAT      O31039   6.260   6.508   9.018
10266WAT     H131040   6.294   6.584   8.963
10266WAT     H231041   6.162   6.517   9.031
10267WAT      O31042   3.650   8.919   0.750
10267WAT     H131043   3.598   8.834   0.750
10267WAT     H231044   3.722   8.914   0.819
10268WAT      O31045   3.152   9.365   8.351
10268WAT     H131046   3.153   9.286   8.289
10268WAT     H231047   3.239   9.413   8.345
10269WAT      O31048   0.597   7.525   5.847
10269WAT     H131049   0.668   7.454   5.852
10269WAT     H231050   0.567   7.536   5.753
10270WAT      O31051   5.709   7.951   8.745
10270WAT     H131052   5.663   7.907   8.822
10270WAT     H231053   5.771   7.885   8.702
10271WAT      O31054   8.887   3.881   2.276
10271WAT     H131055   8.846   3.940   2.206
10271WAT     H231056   8.986   3.886   2.269
10272WAT      O31057   2.773   8.709   4.771
10272WAT     H131058   2.845   8.746   4.831
10272WAT     H231059   2.746   8.778   4.705
10273WAT      O31060   8.346   1.869   9.063
10273WAT     H131061   8.421   1.909   9.115
10273WAT     H231062   8.384   1.813   8.989
10274WAT      O31063   1.305   0.864   1.017
10274WAT     H131064   1.365   0.850   0.939
10274WAT     H231065   1.210   0.854   0.989
10275WAT      O31066   9.654   1.743   1.732
10275WAT     H131067   9.583   1.695   1.784
10275WAT     H231068   9.712   1.793   1.796
10276WAT      O31069   0.855   8.165   8.551
10276WAT     H131070   0.806   8.095   8.602
10276WAT     H231071   0.794   8.243   8.535
10277WAT      O31072   8.087   8.004   5.895
10277WAT     H131073   8.118   7.949   5.818
10277WAT     H231074   7.993   7.978   5.919
10278WAT      O31075   9.618   5.068   0.826
10278WAT     H131076   9.668   5.088   0.742
10278WAT     H231077   9.625   4.971   0.847
10279WAT      O31078   9.639   3.246   3.008
10279WAT     H131079   9.594   3.161   3.036
10279WAT     H231080   9.630   3.314   3.079
10280WAT      O31081   3.451   6.696   2.101
10280WAT     H131082   3.436   6.782   2.151
10280WAT     H231083   3.544   6.663   2.118
10281WAT      O31084   7.007   8.382   4.252
10281WAT     H131085   6.909   8.363   4.246
10281WAT     H231086   7.050   8.314   4.311
10282WAT      O31087   3.844   0.561   8.078
10282WAT     H131088   3.865   0.656   8.103
10282WAT     H231089   3.916   0.526   8.019
10283WAT      O31090   5.690   7.375   4.198
10283WAT     H131091   5.681   7.432   4.280
10283WAT     H231092   5.640   7.418   4.123
10284WAT      O31093   1.278   9.027   1.290
10284WAT     H131094   1.376   9.037   1.307
10284WAT     H231095   1.250   9.093   1.220
10285WAT      O31096   0.055   5.249   5.405
10285WAT     H131097   0.151   5.223   5.416
10285WAT     H231098  -0.000   5.206   5.476
10286WAT      O31099   1.314   2.007   7.364
10286WAT     H131100   1.382   2.080   7.367
10286WAT     H231101   1.354   1.927   7.319
10287WAT      O31102   0.867   3.578   2.234
10287WAT     H131103   0.839   3.486   2.205
10287WAT     H231104   0.965   3.579   2.252
10288WAT      O31105   5.285   5.623   8.960
10288WAT     H131106   5.382   5.642   8.943
10288WAT     H231107   5.272   5.603   9.057
10289WAT      O31108   4.576   7.995   6.997
10289WAT     H131109   4.639   7.934   7.046
10289WAT     H231110   4.628   8.050   6.932
10290WAT      O31111   8.518   8.965   0.159
10290WAT     H131112   8.558   8.967   0.251
10290WAT     H231113   8.498   8.871   0.133
10291WAT      O31114   2.421   5.277   3.141
10291WAT     H131115   2.472   5.196   3.111
10291WAT     H231116   2.331   5.249   3.172
10292WAT      O31117   5.112   6.461   2.109
10292WAT     H131118   5.063   6.389   2.060
10292WAT     H231119   5.199   6.478   2.063
10293WAT      O31120   1.694   1.558   1.958
10293WAT     H131121   1.730   1.465   1.946
10293WAT     H231122   1.767   1.624   1.946
10294WAT      O31123   1.115   6.509   8.637
10294WAT     H131124   1.130   6.410   8.645
10294WAT     H231125   1.038   6.536   8.695
10295WAT      O31126   5.976   0.631   9.440
10295WAT     H131127   6.021   0.544   9.424
10295WAT     H231128   6.040   0.695   9.483
10296WAT      O31129   7.519   6.798   2.523
10296WAT     H131130   7.553   6.868   2.461
10296WAT     H231131   7.425   6.820   2.550
10297WAT      O31132   4.799   2.101   4.849
10297WAT     H131133   4.712   2.101   4.898
10297WAT     H231134   4.784   2.130   4.754
10298WAT      O31135   0.287   4.152   7.740
10298WAT     H131136   0.196   4.109   7.741
10298WAT     H231137   0.334   4.131   7.825
10299WAT      O31138   0.492   6.109   6.959
10299WAT     H131139   0.531   6.053   7.031
10299WAT     H231140   0.439   6.183   6.999
10300WAT      O31141   9.602   3.336   2.731
10300WAT     H131142   9.674   3.339   2.662
10300WAT     H231143   9.642   3.321   2.821
10301WAT      O31144   9.209   2.722   9.841
10301WAT     H131145   9.219   2.787   9.765
10301WAT     H231146   9.288   2.731   9.902
10302WAT      O31147   2.193   5.093   7.010
10302WAT     H131148   2.131   5.171   7.012
10302WAT     H231149   2.146   5.013   6.975
10303WAT      O31150   0.713   2.849   6.138
10303WAT     H131151   0.810   2.830   6.154
10303WAT     H231152   0.683   2.923   6.198
10304WAT      O31153   5.463   8.492   3.636
10304WAT     H131154   5.480   8.571   3.577
10304WAT     H231155   5.365   8.481   3.650
10305WAT      O31156   5.949   3.121   0.197
10305WAT     H131157   5.926   3.194   0.133
10305WAT     H231158   5.951   3.033   0.148
10306WAT      O31159   0.790   3.582   3.057
10306WAT     H131160   0.884   3.614   3.063
10306WAT     H231161   0.788   3.487   3.026
10307WAT      O31162   0.030   1.112   0.315
10307WAT     H131163  -0.050   1.167   0.292
10307WAT     H231164   0.011   1.059   0.398
10308WAT      O31165   6.542   1.480   6.032
10308WAT     H131166   6.504   1.435   5.951
10308WAT     H231167   6.518   1.577   6.031
10309WAT      O31168   1.883   3.654   9.361
10309WAT     H131169   1.828   3.716   9.416
10309WAT     H231170   1.980   3.665   9.386
10310WAT      O31171   3.939   4.283   0.717
10310WAT     H131172   4.007   4.290   0.790
10310WAT     H231173   3.855   4.330   0.745
10311WAT      O31174   2.706   8.287   2.071
10311WAT     H131175   2.682   8.349   1.997
10311WAT     H231176   2.709   8.193   2.037
10312WAT      O31177   9.078   5.956   7.152
10312WAT     H131178   9.081   6.028   7.082
10312WAT     H231179   9.171   5.931   7.178
10313WAT      O31180   5.911   0.088   3.684
10313WAT     H131181   5.916   0.146   3.766
10313WAT     H231182   5.914   0.146   3.603
10314WAT      O31183   9.459   1.821   9.044
10314WAT     H131184   9.474   1.851   9.138
10314WAT     H231185   9.429   1.726   9.044
10315WAT      O31186   8.168   5.086   5.814
10315WAT     H131187   8.181   5.166   5.874
10315WAT     H231188   8.222   5.009   5.848
10316WAT      O31189   0.262   5.410   0.532
10316WAT     H131190   0.321   5.334   0.506
10316WAT     H231191   0.257   5.416   0.632
10317WAT      O31192   7.162   3.326   5.210
10317WAT     H131193   7.163   3.385   5.291
10317WAT     H231194   7.086   3.261   5.218
10318WAT      O31195   4.625   5.802   8.525
10318WAT     H131196   4.585   5.729   8.470
10318WAT     H231197   4.560   5.830   8.596
10319WAT      O31198   3.172   6.417   0.438
10319WAT     H131199   3.104   6.490   0.437
10319WAT     H231200   3.232   6.428   0.517
10320WAT      O31201   5.971   8.938   2.157
10320WAT     H131202   6.005   8.880   2.231
10320WAT     H231203   5.962   9.032   2.189
10321WAT      O31204   1.553   6.250   7.882
10321WAT     H131205   1.606   6.334   7.891
10321WAT     H231206   1.599   6.176   7.931
10322WAT      O31207   8.992   5.975   1.694
10322WAT     H131208   8.989   6.048   1.625
10322WAT     H231209   9.077   5.923   1.683
10323WAT      O31210   5.929   7.592   5.595
10323WAT     H131211   5.834   7.608   5.624
10323WAT     H231212   5.952   7.655   5.520
10324WAT      O31213   6.327   9.473   5.053
10324WAT     H131214   6.335   9.505   5.147
10324WAT     H231215   6.238   9.501   5.016
10325WAT      O31216   8.668   3.190   3.035
10325WAT     H131217   8.587   3.162   2.983
10325WAT     H231218   8.739   3.120   3.027
10326WAT      O31219   9.205   3.356   5.718
10326WAT     H131220   9.197   3.259   5.740
10326WAT     H231221   9.114   3.396   5.710
10327WAT      O31222   6.636   5.722   1.167
10327WAT     H131223   6.656   5.760   1.257
10327WAT     H231224   6.656   5.790   1.097
10328WAT      O31225   9.837   7.123   8.852
10328WAT     H131226   9.937   7.132   8.851
10328WAT     H231227   9.807   7.078   8.767
10329WAT      O31228   4.415   1.703   7.984
10329WAT     H131229   4.413   1.704   8.084
10329WAT     H231230   4.412   1.797   7.950
10330WAT      O31231   4.466   6.361   2.131
10330WAT     H131232   4.369   6.377   2.152
10330WAT     H231233   4.514   6.449   2.127
10331WAT      O31234   0.776   4.631   3.526
10331WAT     H131235   0.852   4.648   3.464
10331WAT     H231236   0.805   4.648   3.620
10332WAT      O31237   5.992   1.233   6.662
10332WAT     H131238   6.022   1.195   6.574
10332WAT     H231239   5.921   1.173   6.701
10333WAT      O31240   7.395   1.410   8.941
10333WAT     H131241   7.449   1.406   8.858
10333WAT     H231242   7.455   1.397   9.021
10334WAT      O31243   7.091   1.779   4.386
10334WAT     H131244   7.073   1.689   4.346
10334WAT     H231245   7.055   1.781   4.479
10335WAT      O31246   8.041   7.064   5.836
10335WAT     H131247   8.069   6.969   5.825
10335WAT     H231248   8.002   7.098   5.751
10336WAT      O31249   5.280   4.994   9.134
10336WAT     H131250   5.204   5.027   9.078
10336WAT     H231251   5.257   5.007   9.231
10337WAT      O31252   3.174   0.636   9.177
10337WAT     H131253   3.223   0.550   9.166
10337WAT     H231254   3.129   0.660   9.091
10338WAT      O31255   3.383   0.184   0.643
10338WAT     H131256   3.421   0.251   0.580
10338WAT     H231257   3.429   0.096   0.631
10339WAT      O31258   4.765   0.769   1.871
10339WAT     H131259   4.814   0.715   1.803
10339WAT     H231260   4.825   0.840   1.907
10340WAT      O31261   3.104   9.798   0.820
10340WAT     H131262   3.017   9.827   0.860
10340WAT     H231263   3.158   9.878   0.794
10341WAT      O31264   2.559   9.039   2.065
10341WAT     H131265   2.651   9.050   2.028
10341WAT     H231266   2.512   9.128   2.064
10342WAT      O31267   1.174   3.014   2.874
10342WAT     H131268   1.163   3.049   2.967
10342WAT     H231269   1.271   2.996   2.856
10343WAT      O31270   6.016   9.425   9.304
10343WAT     H131271   6.071   9.385   9.231
10343WAT     H231272   6.075   9.476   9.366
10344WAT      O31273   9.777   6.677   4.507
10344WAT     H131274   9.709   6.662   4.435
10344WAT     H231275   9.792   6.592   4.556
10345WAT      O31276   9.445   3.528   9.162
10345WAT     H131277   9.358   3.483   9.140
10345WAT     H231278   9.513   3.458   9.184
10346WAT      O31279   5.108   3.881   3.456
10346WAT     H131280   5.202   3.913   3.454
10346WAT     H231281   5.078   3.857   3.364
10347WAT      O31282   1.764   2.319   0.744
10347WAT     H131283   1.710   2.307   0.827
10347WAT     H231284   1.715   2.381   0.681
10348WAT      O31285   5.524   5.364   1.469
10348WAT     H131286   5.451   5.412   1.517
10348WAT     H231287   5.520   5.386   1.372
10349WAT      O31288   3.515   6.467   6.651
10349WAT     H131289   3.612   6.485   6.633
10349WAT     H231290   3.498   6.468   6.750
10350WAT      O31291   8.235   1.352   4.501
10350WAT     H131292   8.284   1.325   4.418
10350WAT     H231293   8.190   1.273   4.542
10351WAT      O31294   5.388   4.140   6.432
10351WAT     H131295   5.459   4.087   6.386
10351WAT     H231296   5.425   4.227   6.462
10352WAT      O31297   3.263   2.105   8.093
10352WAT     H131298   3.237   2.012   8.067
10352WAT     H231299   3.314   2.148   8.018
10353WAT      O31300   5.296   3.133   2.795
10353WAT     H131301   5.346   3.186   2.727
10353WAT     H231302   5.296   3.182   2.882
10354WAT      O31303   2.407   7.063   3.845
10354WAT     H131304   2.325   7.007   3.836
10354WAT     H231305   2.449   7.077   3.755
10355WAT      O31306   2.928   4.740   3.407
10355WAT     H131307   2.992   4.700   3.341
10355WAT     H231308   2.978   4.774   3.486
10356WAT      O31309   1.401   9.812   9.235
10356WAT     H131310   1.377   9.716   9.254
10356WAT     H231311   1.385   9.832   9.139
10357WAT      O31312   4.290   1.341   3.292
10357WAT     H131313   4.323   1.248   3.307
10357WAT     H231314   4.356   1.393   3.238
10358WAT      O31315   9.057   6.271   3.687
10358WAT     H131316   9.016   6.323   3.761
10358WAT     H231317   8.990   6.207   3.649
10359WAT      O31318   8.147   2.961   0.333
10359WAT     H131319   8.067   2.910   0.364
10359WAT     H231320   8.168   2.936   0.239
10360WAT      O31321   9.403   7.675   6.781
10360WAT     H131322   9.326   7.708   6.836
10360WAT     H231323   9.371   7.605   6.717
10361WAT      O31324   3.595   4.831   2.493
10361WAT     H131325   3.544   4.747   2.512
10361WAT     H231326   3.579   4.897   2.566
10362WAT      O31327   9.665   6.488   7.538
10362WAT     H131328   9.616   6.401   7.544
10362WAT     H231329   9.662   6.535   7.626
10363WAT      O31330   0.128   5.098   0.519
10363WAT     H131331   0.076   5.024   0.562
10363WAT     H231332   0.064   5.162   0.476
10364WAT      O31333   7.679   0.853   5.198
10364WAT     H131334   7.582   0.842   5.223
10364WAT     H231335   7.732   0.778   5.238
10365WAT      O31336   6.086   7.745   9.250
10365WAT     H131337   6.165   7.692   9.217
10365WAT     H231338   6.015   7.683   9.283
10366WAT      O31339   6.849   0.805   3.576
10366WAT     H131340   6.773   0.817   3.512
10366WAT     H231341   6.909   0.732   3.542
10367WAT      O31342   3.228   4.684   3.702
10367WAT     H131343   3.157   4.746   3.736
10367WAT     H231344   3.291   4.735   3.643
10368WAT      O31345   6.481   7.624   1.722
10368WAT     H131346   6.478   7.720   1.695
10368WAT     H231347   6.391   7.582   1.709
10369WAT      O31348   7.746   0.494   7.142
10369WAT     H131349   7.760   0.461   7.048
10369WAT     H231350   7.658   0.461   7.176
10370WAT      O31351   7.161   8.268   4.070
10370WAT     H131352   7.115   8.326   4.137
10370WAT     H231353   7.152   8.172   4.097
10371WAT      O31354   6.205   9.123   0.795
10371WAT     H131355   6.127   9.183   0.814
10371WAT     H231356   6.210   9.052   0.865
10372WAT      O31357   2.903   8.163   9.716
10372WAT     H131358   2.959   8.091   9.676
10372WAT     H231359   2.829   8.122   9.770
10373WAT      O31360   5.189   5.917   2.470
10373WAT     H131361   5.226   5.893   2.380
10373WAT     H231362   5.108   5.973   2.458
10374WAT      O31363   7.463   9.254   6.584
10374WAT     H131364   7.435   9.337   6.535
10374WAT     H231365   7.498   9.187   6.518
10375WAT      O31366   9.687   9.129   2.048
10375WAT     H131367   9.658   9.206   2.104
10375WAT     H231368   9.654   9.142   1.954
10376WAT      O31369   7.231   4.044   2.060
10376WAT     H131370   7.321   4.039   2.103
10376WAT     H231371   7.241   4.037   1.960
10377WAT      O31372   2.113   2.270   3.830
10377WAT     H131373   2.137   2.295   3.736
10377WAT     H231374   2.131   2.172   3.844
10378WAT      O31375   4.227   7.319   9.224
10378WAT     H131376   4.263   7.394   9.280
10378WAT     H231377   4.300   7.254   9.205
10379WAT      O31378   6.214   8.123   1.935
10379WAT     H131379   6.185   8.143   2.028
10379WAT     H231380   6.134   8.117   1.876
10380WAT      O31381   1.627   6.271   1.164
10380WAT     H131382   1.675   6.210   1.101
10380WAT     H231383   1.695   6.322   1.218
10381WAT      O31384   5.998   4.093   6.938
10381WAT     H131385   5.903   4.121   6.924
10381WAT     H231386   6.043   4.159   6.998
10382WAT      O31387   5.022   7.886   8.480
10382WAT     H131388   5.020   7.834   8.394
10382WAT     H231389   5.116   7.890   8.514
10383WAT      O31390   0.726   6.787   3.500
10383WAT     H131391   0.744   6.703   3.551
10383WAT     H231392   0.794   6.856   3.525
10384WAT      O31393   4.825   4.549   3.250
10384WAT     H131394   4.810   4.526   3.153
10384WAT     H231395   4.864   4.470   3.297
10385WAT      O31396   9.326   8.283   3.861
10385WAT     H131397   9.331   8.383   3.867
10385WAT     H231398   9.332   8.244   3.953
10386WAT      O31399   9.815   8.881   5.230
10386WAT     H131400   9.838   8.839   5.143
10386WAT     H231401   9.838   8.979   5.227
10387WAT      O31402   7.753   6.578   5.896
10387WAT     H131403   7.746   6.673   5.927
10387WAT     H231404   7.732   6.516   5.972
10388WAT      O31405   2.004   7.409   1.675
10388WAT     H131406   1.928   7.433   1.616
10388WAT     H231407   2.036   7.491   1.723
10389WAT      O31408   4.715   2.953   1.703
10389WAT     H131409   4.741   2.924   1.795
10389WAT     H231410   4.631   3.007   1.707
10390WAT      O31411   6.471   6.568   1.692
10390WAT     H131412   6.542   6.498   1.696
10390WAT     H231413   6.507   6.655   1.728
10391WAT      O31414   1.906   5.633   8.527
10391WAT     H131415   1.952   5.701   8.470
10391WAT     H231416   1.828   5.594   8.478
10392WAT      O31417   4.832   5.227   9.040
10392WAT     H131418   4.768   5.243   9.115
10392WAT     H231419   4.782   5.224   8.953
10393WAT      O31420   4.095   9.180   7.411
10393WAT     H131421   4.083   9.279   7.422
10393WAT     H231422   4.008   9.139   7.383
10394WAT      O31423   8.215   1.643   5.090
10394WAT     H131424   8.282   1.639   5.164
10394WAT     H231425   8.257   1.682   5.008
10395WAT      O31426   4.015   1.480   2.463
10395WAT     H131427   4.007   1.440   2.555
10395WAT     H231428   4.091   1.545   2.462
10396WAT      O31429   7.651   0.513   5.530
10396WAT     H131430   7.618   0.437   5.475
10396WAT     H231431   7.669   0.481   5.624
10397WAT      O31432   4.253   0.117   7.428
10397WAT     H131433   4.264   0.175   7.509
10397WAT     H231434   4.254   0.175   7.346
10398WAT      O31435   1.443   7.634   2.560
10398WAT     H131436   1.471   7.538   2.557
10398WAT     H231437   1.345   7.642   2.544
10399WAT      O31438   0.955   1.358   6.403
10399WAT     H131439   0.858   1.379   6.393
10399WAT     H231440   0.965   1.264   6.436
10400WAT      O31441   0.796   2.880   9.094
10400WAT     H131442   0.754   2.820   9.163
10400WAT     H231443   0.804   2.830   9.008
10401WAT      O31444   6.094   9.254   8.504
10401WAT     H131445   6.070   9.158   8.489
10401WAT     H231446   6.027   9.313   8.459
10402WAT      O31447   1.198   6.022   1.757
10402WAT     H131448   1.130   5.951   1.740
10402WAT     H231449   1.172   6.105   1.708
10403WAT      O31450   1.696   7.585   5.067
10403WAT     H131451   1.644   7.634   4.997
10403WAT     H231452   1.686   7.487   5.054
10404WAT      O31453   7.004   7.404   1.407
10404WAT     H131454   7.032   7.309   1.421
10404WAT     H231455   7.084   7.464   1.409
10405WAT      O31456   9.892   5.122   3.790
10405WAT     H131457   9.928   5.199   3.844
10405WAT     H231458   9.792   5.125   3.793
10406WAT      O31459   1.552   4.970   6.811
10406WAT     H131460   1.520   5.040   6.747
10406WAT     H231461   1.526   4.994   6.904
10407WAT      O31462   6.128   1.015   3.164
10407WAT     H131463   6.181   1.098   3.151
10407WAT     H231464   6.177   0.937   3.125
10408WAT      O31465   1.265   1.137   2.825
10408WAT     H131466   1.247   1.046   2.864
10408WAT     H231467   1.306   1.127   2.734
10409WAT      O31468   5.379   1.087   6.802
10409WAT     H131469   5.420   1.066   6.714
10409WAT     H231470   5.332   1.006   6.838
10410WAT      O31471   1.468   0.217   0.968
10410WAT     H131472   1.524   0.188   0.890
10410WAT     H231473   1.529   0.248   1.042
10411WAT      O31474   5.334   6.911   3.648
10411WAT     H131475   5.305   6.878   3.558
10411WAT     H231476   5.342   7.011   3.646
10412WAT      O31477   7.124   7.673   3.952
10412WAT     H131478   7.167   7.611   4.018
10412WAT     H231479   7.026   7.680   3.973
10413WAT      O31480   5.542   7.174   3.449
10413WAT     H131481   5.461   7.193   3.504
10413WAT     H231482   5.554   7.246   3.381
10414WAT      O31483   3.142   1.126   0.183
10414WAT     H131484   3.154   1.039   0.135
10414WAT     H231485   3.217   1.139   0.248
10415WAT      O31486   1.817   8.975   3.574
10415WAT     H131487   1.846   8.897   3.629
10415WAT     H231488   1.720   8.994   3.592
10416WAT      O31489   9.065   4.083   0.972
10416WAT     H131490   9.155   4.116   0.946
10416WAT     H231491   8.998   4.158   0.965
10417WAT      O31492   5.430   4.825   7.775
10417WAT     H131493   5.376   4.830   7.691
10417WAT     H231494   5.525   4.851   7.755
10418WAT      O31495   6.903   0.416   4.450
10418WAT     H131496   6.905   0.326   4.494
10418WAT     H231497   6.964   0.479   4.498
10419WAT      O31498   0.365   1.727   5.378
10419WAT     H131499   0.391   1.795   5.447
10419WAT     H231500   0.395   1.758   5.288
10420WAT      O31501   3.211   5.233   0.705
10420WAT     H131502   3.263   5.285   0.637
10420WAT     H231503   3.221   5.135   0.686
10421WAT      O31504   9.045   9.786   5.558
10421WAT     H131505   9.125   9.768   5.615
10421WAT     H231506   8.999   9.869   5.589
10422WAT      O31507   5.569   7.708   1.023
10422WAT     H131508   5.607   7.720   1.115
10422WAT     H231509   5.482   7.756   1.016
10423WAT      O31510   9.027   4.347   4.750
10423WAT     H131511   8.944   4.382   4.707
10423WAT     H231512   9.036   4.249   4.730
10424WAT      O31513   5.178   4.244   3.289
10424WAT     H131514   5.223   4.317   3.341
10424WAT     H231515   5.246   4.179   3.256
10425WAT      O31516   1.395   9.109   3.404
10425WAT     H131517   1.452   9.072   3.478
10425WAT     H231518   1.299   9.111   3.434
10426WAT      O31519   1.935   4.157   1.427
10426WAT     H131520   1.890   4.223   1.487
10426WAT     H231521   2.034   4.165   1.437
10427WAT      O31522   5.472   2.104   6.156
10427WAT     H131523   5.539   2.041   6.195
10427WAT     H231524   5.463   2.184   6.214
10428WAT      O31525   2.673   8.630   6.240
10428WAT     H131526   2.703   8.706   6.182
10428WAT     H231527   2.750   8.594   6.291
10429WAT      O31528   6.707   3.433   1.509
10429WAT     H131529   6.626   3.480   1.476
10429WAT     H231530   6.702   3.336   1.484
10430WAT      O31531   2.606   4.573   2.537
10430WAT     H131532   2.611   4.621   2.625
10430WAT     H231533   2.599   4.641   2.464
10431WAT      O31534   8.279   7.920   1.602
10431WAT     H131535   8.218   7.866   1.544
10431WAT     H231536   8.239   8.010   1.619
10432WAT      O31537   1.022   1.153   4.716
10432WAT     H131538   1.041   1.250   4.703
10432WAT     H231539   1.101   1.099   4.686
10433WAT      O31540   4.270   0.054   1.783
10433WAT     H131541   4.242  -0.012   1.713
10433WAT     H231542   4.193   0.075   1.842
10434WAT      O31543   8.840   1.321   5.997
10434WAT     H131544   8.889   1.389   5.944
10434WAT     H231545   8.797   1.255   5.936
10435WAT      O31546   5.856   7.466   7.907
10435WAT     H131547   5.787   7.417   7.960
10435WAT     H231548   5.818   7.490   7.818
10436WAT      O31549   3.241   6.737   8.597
10436WAT     H131550   3.143   6.718   8.594
10436WAT     H231551   3.278   6.737   8.504
10437WAT      O31552   4.400   8.785   5.041
10437WAT     H131553   4.408   8.865   5.101
10437WAT     H231554   4.333   8.804   4.969
10438WAT      O31555   3.651   3.082   0.390
10438WAT     H131556   3.737   3.125   0.420
10438WAT     H231557   3.655   2.984   0.408
10439WAT      O31558   9.579   0.152   7.309
10439WAT     H131559   9.662   0.206   7.294
10439WAT     H231560   9.557   0.151   7.407
10440WAT      O31561   3.178   8.153   0.266
10440WAT     H131562   3.273   8.181   0.251
10440WAT     H231563   3.175   8.074   0.327
10441WAT      O31564   9.761   0.534   6.262
10441WAT     H131565   9.794   0.455   6.315
10441WAT     H231566   9.768   0.513   6.164
10442WAT      O31567   2.779   6.646   8.982
10442WAT     H131568   2.705   6.713   8.983
10442WAT     H231569   2.793   6.609   9.074
10443WAT      O31570   4.265   0.416   2.126
10443WAT     H131571   4.265   0.318   2.143
10443WAT     H231572   4.194   0.460   2.181
10444WAT      O31573   0.142   7.709   3.092
10444WAT     H131574   0.197   7.767   3.031
10444WAT     H231575   0.202   7.665   3.159
10445WAT      O31576   3.753   8.588   2.792
10445WAT     H131577   3.685   8.526   2.754
10445WAT     H231578   3.708   8.657   2.848
10446WAT      O31579   4.269   6.681   8.988
10446WAT     H131580   4.191   6.676   8.927
10446WAT     H231581   4.310   6.590   8.998
10447WAT      O31582   8.901   1.758   1.164
10447WAT     H131583   8.816   1.806   1.188
10447WAT     H231584   8.974   1.786   1.226
10448WAT      O31585   5.137   2.976   7.329
10448WAT     H131586   5.130   2.982   7.229
10448WAT     H231587   5.172   3.062   7.365
10449WAT      O31588   7.159   7.604   2.553
10449WAT     H131589   7.253   7.584   2.580
10449WAT     H231590   7.129   7.539   2.484
10450WAT      O31591   2.521   3.501   8.499
10450WAT     H131592   2.441   3.442   8.511
10450WAT     H231593   2.516   3.576   8.564
10451WAT      O31594   0.451   4.031   3.382
10451WAT     H131595   0.500   4.031   3.295
10451WAT     H231596   0.511   3.996   3.454
10452WAT      O31597   9.036   3.257   4.543
10452WAT     H131598   8.951   3.242   4.593
10452WAT     H231599   9.038   3.350   4.508
10453WAT      O31600   2.614   6.967   8.150
10453WAT     H131601   2.657   7.054   8.173
10453WAT     H231602   2.541   6.947   8.215
10454WAT      O31603   7.142   4.390   8.393
10454WAT     H131604   7.085   4.327   8.340
10454WAT     H231605   7.225   4.343   8.424
10455WAT      O31606   4.748   1.541   8.627
10455WAT     H131607   4.717   1.545   8.721
10455WAT     H231608   4.753   1.446   8.597
10456WAT      O31609   6.169   2.810   6.203
10456WAT     H131610   6.148   2.715   6.180
10456WAT     H231611   6.142   2.869   6.127
10457WAT      O31612   3.624   9.779   7.613
10457WAT     H131613   3.526   9.760   7.617
10457WAT     H231614   3.670   9.743   7.694
10458WAT      O31615   2.670   3.283   4.027
10458WAT     H131616   2.572   3.272   4.045
10458WAT     H231617   2.685   3.293   3.929
10459WAT      O31618   3.834   2.932   8.070
10459WAT     H131619   3.818   2.834   8.082
10459WAT     H231620   3.810   2.958   7.976
10460WAT      O31621   3.383   9.128   6.008
10460WAT     H131622   3.413   9.107   5.915
10460WAT     H231623   3.284   9.116   6.014
10461WAT      O31624   8.067   4.347   9.229
10461WAT     H131625   8.099   4.405   9.304
10461WAT     H231626   8.128   4.358   9.150
10462WAT      O31627   6.478   4.592   9.117
10462WAT     H131628   6.532   4.660   9.067
10462WAT     H231629   6.400   4.565   9.061
10463WAT      O31630   7.423   3.827   7.677
10463WAT     H131631   7.346   3.871   7.631
10463WAT     H231632   7.457   3.887   7.750
10464WAT      O31633   7.370   6.011   3.880
10464WAT     H131634   7.382   5.959   3.965
10464WAT     H231635   7.414   6.100   3.889
10465WAT      O31636   1.352   3.656   1.924
10465WAT     H131637   1.434   3.628   1.974
10465WAT     H231638   1.359   3.626   1.829
10466WAT      O31639   0.544   8.921   7.083
10466WAT     H131640   0.538   8.821   7.088
10466WAT     H231641   0.567   8.949   6.990
10467WAT      O31642   2.101   7.474   6.386
10467WAT     H131643   2.156   7.416   6.325
10467WAT     H231644   2.153   7.556   6.408
10468WAT      O31645   7.708   3.822   4.422
10468WAT     H131646   7.635   3.880   4.387
10468WAT     H231647   7.700   3.730   4.382
10469WAT      O31648   4.692   1.796   5.418
10469WAT     H131649   4.671   1.890   5.444
10469WAT     H231650   4.790   1.779   5.427
10470WAT      O31651   0.037   4.721   8.243
10470WAT     H131652   0.082   4.716   8.332
10470WAT     H231653   0.097   4.682   8.173
10471WAT      O31654   4.299   8.877   3.739
10471WAT     H131655   4.367   8.851   3.807
10471WAT     H231656   4.259   8.795   3.699
10472WAT      O31657   9.737   2.651   2.895
10472WAT     H131658   9.714   2.600   2.812
10472WAT     H231659   9.731   2.749   2.877
10473WAT      O31660   3.301   5.938   0.833
10473WAT     H131661   3.286   5.840   0.843
10473WAT     H231662   3.230   5.977   0.774
10474WAT      O31663   8.712   5.664   3.461
10474WAT     H131664   8.639   5.618   3.513
10474WAT     H231665   8.759   5.596   3.404
10475WAT      O31666   1.972   1.031   0.805
10475WAT     H131667   1.929   1.119   0.825
10475WAT     H231668   2.034   1.007   0.879
10476WAT      O31669   1.925   7.554   4.091
10476WAT     H131670   1.967   7.635   4.133
10476WAT     H231671   1.832   7.576   4.062
10477WAT      O31672   5.620   5.449   0.827
10477WAT     H131673   5.626   5.364   0.775
10477WAT     H231674   5.646   5.432   0.922
10478WAT      O31675   4.481   9.801   8.074
10478WAT     H131676   4.514   9.895   8.088
10478WAT     H231677   4.556   9.743   8.042
10479WAT      O31678   1.319   5.797   7.488
10479WAT     H131679   1.348   5.703   7.474
10479WAT     H231680   1.384   5.844   7.549
10480WAT      O31681   9.717   1.772   9.516
10480WAT     H131682   9.761   1.753   9.428
10480WAT     H231683   9.640   1.835   9.502
10481WAT      O31684   2.921   1.630   2.084
10481WAT     H131685   2.974   1.569   2.142
10481WAT     H231686   2.828   1.637   2.121
10482WAT      O31687   2.933   4.612   3.938
10482WAT     H131688   2.970   4.681   3.875
10482WAT     H231689   2.851   4.571   3.898
10483WAT      O31690   3.837   4.969   3.412
10483WAT     H131691   3.883   4.934   3.493
10483WAT     H231692   3.834   4.898   3.342
10484WAT      O31693   2.700   8.216   8.320
10484WAT     H131694   2.730   8.123   8.340
10484WAT     H231695   2.774   8.280   8.342
10485WAT      O31696   7.802   0.952   8.755
10485WAT     H131697   7.726   0.887   8.761
10485WAT     H231698   7.887   0.907   8.781
10486WAT      O31699   9.475   5.485   0.592
10486WAT     H131700   9.563   5.530   0.604
10486WAT     H231701   9.489   5.387   0.575
10487WAT      O31702   0.364   0.996   5.330
10487WAT     H131703   0.343   0.977   5.426
10487WAT     H231704   0.420   1.078   5.324
10488WAT      O31705   1.503   7.856   0.098
10488WAT     H131706   1.423   7.818   0.051
10488WAT     H231707   1.543   7.928   0.041
10489WAT      O31708   7.425   4.827   8.814
10489WAT     H131709   7.353   4.894   8.795
10489WAT     H231710   7.436   4.817   8.913
10490WAT      O31711   7.637   8.572   9.206
10490WAT     H131712   7.681   8.613   9.286
10490WAT     H231713   7.552   8.622   9.186
10491WAT      O31714   3.795   1.167   0.075
10491WAT     H131715   3.854   1.111   0.134
10491WAT     H231716   3.708   1.120   0.061
10492WAT      O31717   7.016   1.743   0.454
10492WAT     H131718   7.015   1.842   0.436
10492WAT     H231719   6.956   1.723   0.532
10493WAT      O31720   8.237   8.974   4.972
10493WAT     H131721   8.290   8.919   5.037
10493WAT     H231722   8.160   8.921   4.938
10494WAT      O31723   0.186   5.830   2.453
10494WAT     H131724   0.095   5.825   2.494
10494WAT     H231725   0.253   5.854   2.524
10495WAT      O31726   8.860   7.064   0.611
10495WAT     H131727   8.890   7.152   0.648
10495WAT     H231728   8.853   7.070   0.512
10496WAT      O31729   5.925   1.490   8.540
10496WAT     H131730   5.907   1.487   8.442
10496WAT     H231731   5.956   1.400   8.572
10497WAT      O31732   7.711   3.020   8.780
10497WAT     H131733   7.738   2.960   8.856
10497WAT     H231734   7.690   2.964   8.700
10498WAT      O31735   0.077   4.192   3.761
10498WAT     H131736   0.032   4.111   3.800
10498WAT     H231737   0.129   4.166   3.680
10499WAT      O31738   7.873   1.967   1.651
10499WAT     H131739   7.800   2.016   1.603
10499WAT     H231740   7.940   1.934   1.585
10500WAT      O31741   9.360   3.344   3.871
10500WAT     H131742   9.285   3.351   3.806
10500WAT     H231743   9.378   3.433   3.912
10501WAT      O31744   8.401   7.244   0.279
10501WAT     H131745   8.303   7.247   0.260
10501WAT     H231746   8.447   7.319   0.230
10502WAT      O31747   7.915   3.342   5.038
10502WAT     H131748   7.890   3.323   5.133
10502WAT     H231749   7.860   3.284   4.978
10503WAT      O31750   0.689   7.183   8.050
10503WAT     H131751   0.752   7.212   7.978
10503WAT     H231752   0.739   7.135   8.121
10504WAT      O31753   9.743   2.520   5.513
10504WAT     H131754   9.805   2.582   5.467
10504WAT     H231755   9.650   2.558   5.512
10505WAT      O31756   1.092   7.492   6.353
10505WAT     H131757   1.007   7.495   6.300
10505WAT     H231758   1.075   7.527   6.445
10506WAT      O31759   4.854   3.305   2.435
10506WAT     H131760   4.853   3.320   2.533
10506WAT     H231761   4.804   3.379   2.389
10507WAT      O31762   4.338   3.636   2.990
10507WAT     H131763   4.290   3.593   3.067
10507WAT     H231764   4.291   3.615   2.905
10508WAT      O31765   0.773   1.669   7.289
10508WAT     H131766   0.709   1.745   7.277
10508WAT     H231767   0.857   1.689   7.240
10509WAT      O31768   8.906   6.365   6.116
10509WAT     H131769   8.913   6.461   6.142
10509WAT     H231770   8.846   6.318   6.180
10510WAT      O31771   5.736   2.836   3.895
10510WAT     H131772   5.805   2.778   3.937
10510WAT     H231773   5.645   2.796   3.910
10511WAT      O31774   3.848   5.071   0.063
10511WAT     H131775   3.869   5.070  -0.034
10511WAT     H231776   3.784   4.996   0.083
10512WAT      O31777   8.323   3.583   7.883
10512WAT     H131778   8.261   3.611   7.956
10512WAT     H231779   8.340   3.485   7.889
10513WAT      O31780   2.090   5.392   7.270
10513WAT     H131781   2.145   5.310   7.287
10513WAT     H231782   2.056   5.391   7.176
10514WAT      O31783   6.389   8.296   5.518
10514WAT     H131784   6.368   8.339   5.605
10514WAT     H231785   6.487   8.275   5.514
10515WAT      O31786   0.702   8.752   3.009
10515WAT     H131787   0.691   8.697   3.092
10515WAT     H231788   0.618   8.802   2.990
10516WAT      O31789   9.850   4.393   4.983
10516WAT     H131790   9.772   4.443   5.022
10516WAT     H231791   9.836   4.380   4.885
10517WAT      O31792   1.834   6.112   7.129
10517WAT     H131793   1.808   6.195   7.079
10517WAT     H231794   1.825   6.129   7.228
10518WAT      O31795   3.109   2.600   8.935
10518WAT     H131796   3.118   2.627   8.839
10518WAT     H231797   3.013   2.606   8.962
10519WAT      O31798   0.299   2.510   2.799
10519WAT     H131799   0.282   2.564   2.881
10519WAT     H231800   0.257   2.555   2.720
10520WAT      O31801   2.848   0.888   3.804
10520WAT     H131802   2.852   0.796   3.844
10520WAT     H231803   2.770   0.938   3.842
10521WAT      O31804   6.667   6.791   1.487
10521WAT     H131805   6.625   6.882   1.485
10521WAT     H231806   6.597   6.722   1.468
10522WAT      O31807   2.847   5.363   1.104
10522WAT     H131808   2.906   5.288   1.133
10522WAT     H231809   2.903   5.440   1.074
10523WAT      O31810   6.851   6.693   8.807
10523WAT     H131811   6.763   6.737   8.828
10523WAT     H231812   6.835   6.611   8.751
10524WAT      O31813   6.351   4.253   4.843
10524WAT     H131814   6.364   4.162   4.883
10524WAT     H231815   6.350   4.245   4.743
10525WAT      O31816   8.313   5.924   5.168
10525WAT     H131817   8.338   5.875   5.085
10525WAT     H231818   8.275   6.014   5.143
10526WAT      O31819   5.075   9.669   0.317
10526WAT     H131820   5.122   9.676   0.405
10526WAT     H231821   5.030   9.580   0.309
10527WAT      O31822   8.195   5.488   1.358
10527WAT     H131823   8.188   5.403   1.306
10527WAT     H231824   8.290   5.504   1.384
10528WAT      O31825   3.114   0.424   4.177
10528WAT     H131826   3.033   0.383   4.135
10528WAT     H231827   3.088   0.478   4.256
10529WAT      O31828   4.205   0.072   5.868
10529WAT     H131829   4.243   0.107   5.782
10529WAT     H231830   4.279   0.038   5.926
10530WAT      O31831   3.475   3.944   7.325
10530WAT     H131832   3.530   4.028   7.323
10530WAT     H231833   3.530   3.867   7.292
10531WAT      O31834   5.244   0.354   4.419
10531WAT     H131835   5.276   0.342   4.325
10531WAT     H231836   5.315   0.323   4.483
10532WAT      O31837   5.171   0.684   2.870
10532WAT     H131838   5.241   0.646   2.808
10532WAT     H231839   5.081   0.671   2.829
10533WAT      O31840   7.735   9.124   8.662
10533WAT     H131841   7.711   9.138   8.566
10533WAT     H231842   7.651   9.118   8.716
10534WAT      O31843   2.955   5.487   3.528
10534WAT     H131844   2.914   5.408   3.481
10534WAT     H231845   2.882   5.542   3.569
10535WAT      O31846   8.749   0.478   1.911
10535WAT     H131847   8.712   0.554   1.858
10535WAT     H231848   8.810   0.513   1.982
10536WAT      O31849   2.347   9.092   9.777
10536WAT     H131850   2.250   9.109   9.762
10536WAT     H231851   2.392   9.075   9.689
10537WAT      O31852   6.648   2.955   2.232
10537WAT     H131853   6.720   2.893   2.200
10537WAT     H231854   6.592   2.909   2.301
10538WAT      O31855   6.759   4.528   2.302
10538WAT     H131856   6.836   4.533   2.365
10538WAT     H231857   6.674   4.521   2.354
10539WAT      O31858   0.617   1.080   0.843
10539WAT     H131859   0.652   1.001   0.894
10539WAT     H231860   0.520   1.066   0.822
10540WAT      O31861   1.398   8.761   3.948
10540WAT     H131862   1.300   8.762   3.968
10540WAT     H231863   1.446   8.712   4.019
10541WAT      O31864   5.723   8.268   4.172
10541WAT     H131865   5.673   8.242   4.090
10541WAT     H231866   5.773   8.188   4.207
10542WAT      O31867   9.687   9.670   8.781
10542WAT     H131868   9.777   9.707   8.804
10542WAT     H231869   9.687   9.642   8.685
10543WAT      O31870   3.403   6.756   6.831
10543WAT     H131871   3.418   6.818   6.907
10543WAT     H231872   3.401   6.807   6.745
10544WAT      O31873   3.893   2.830   7.112
10544WAT     H131874   3.957   2.784   7.172
10544WAT     H231875   3.886   2.779   7.025
10545WAT      O31876   6.430   5.162   5.898
10545WAT     H131877   6.527   5.178   5.881
10545WAT     H231878   6.381   5.248   5.897
10546WAT      O31879   1.898   8.236   7.171
10546WAT     H131880   1.971   8.175   7.203
10546WAT     H231881   1.927   8.281   7.087
10547WAT      O31882   5.595   9.550   6.377
10547WAT     H131883   5.495   9.543   6.379
10547WAT     H231884   5.631   9.545   6.470
10548WAT      O31885   3.025   1.467   3.936
10548WAT     H131886   3.082   1.402   3.885
10548WAT     H231887   2.999   1.427   4.024
10549WAT      O31888   4.403   1.217   6.927
10549WAT     H131889   4.367   1.129   6.896
10549WAT     H231890   4.413   1.279   6.849
10550WAT      O31891   7.121   9.636   5.073
10550WAT     H131892   7.081   9.713   5.122
10550WAT     H231893   7.144   9.665   4.979
10551WAT      O31894   8.963   6.247   3.947
10551WAT     H131895   8.961   6.148   3.939
10551WAT     H231896   9.049   6.275   3.991
10552WAT      O31897   1.263   0.400   0.047
10552WAT     H131898   1.194   0.441   0.107
10552WAT     H231899   1.288   0.465  -0.025
10553WAT      O31900   0.017   0.636   4.386
10553WAT     H131901   0.063   0.550   4.407
10553WAT     H231902   0.082   0.711   4.391
10554WAT      O31903   9.068   3.242   6.757
10554WAT     H131904   9.060   3.158   6.703
10554WAT     H231905   9.121   3.309   6.707
10555WAT      O31906   6.435   3.170   1.515
10555WAT     H131907   6.365   3.121   1.465
10555WAT     H231908   6.419   3.269   1.506
10556WAT      O31909   0.660   1.784   6.071
10556WAT     H131910   0.658   1.789   6.171
10556WAT     H231911   0.709   1.863   6.034
10557WAT      O31912   6.531   9.159   3.107
10557WAT     H131913   6.616   9.126   3.064
10557WAT     H231914   6.511   9.103   3.188
10558WAT      O31915   3.950   6.179   1.370
10558WAT     H131916   3.900   6.210   1.289
10558WAT     H231917   4.047   6.197   1.359
10559WAT      O31918   1.946   1.732   1.489
10559WAT     H131919   2.002   1.669   1.435
10559WAT     H231920   1.858   1.745   1.444
10560WAT      O31921   3.350   4.967   1.078
10560WAT     H131922   3.393   5.050   1.041
10560WAT     H231923   3.384   4.887   1.029
10561WAT      O31924   4.137   7.962   7.296
10561WAT     H131925   4.054   7.990   7.345
10561WAT     H231926   4.115   7.887   7.234
10562WAT      O31927   1.219   6.268   6.075
10562WAT     H131928   1.162   6.330   6.023
10562WAT     H231929   1.284   6.320   6.130
10563WAT      O31930   2.607   7.197   5.387
10563WAT     H131931   2.678   7.150   5.440
10563WAT     H231932   2.576   7.137   5.313
10564WAT      O31933   7.188   8.649   0.754
10564WAT     H131934   7.263   8.705   0.720
10564WAT     H231935   7.197   8.638   0.853
10565WAT      O31936   3.401   4.160   4.882
10565WAT     H131937   3.302   4.148   4.883
10565WAT     H231938   3.443   4.086   4.829
10566WAT      O31939   7.365   4.992   1.979
10566WAT     H131940   7.292   5.019   1.916
10566WAT     H231941   7.443   5.054   1.969
10567WAT      O31942   4.414   1.040   5.024
10567WAT     H131943   4.351   1.020   4.948
10567WAT     H231944   4.506   1.057   4.988
10568WAT      O31945   9.538   1.792   8.552
10568WAT     H131946   9.512   1.825   8.643
10568WAT     H231947   9.471   1.725   8.521
10569WAT      O31948   1.833   6.107   6.366
10569WAT     H131949   1.910   6.163   6.399
10569WAT     H231950   1.856   6.010   6.377
10570WAT      O31951   0.610   1.220   0.401
10570WAT     H131952   0.638   1.310   0.369
10570WAT     H231953   0.513   1.221   0.426
10571WAT      O31954   0.597   0.280   9.456
10571WAT     H131955   0.684   0.324   9.480
10571WAT     H231956   0.581   0.203   9.517
10572WAT      O31957   3.827   9.828   4.124
10572WAT     H131958   3.756   9.872   4.178
10572WAT     H231959   3.792   9.741   4.088
10573WAT      O31960   2.235   3.980   8.113
10573WAT     H131961   2.252   4.047   8.184
10573WAT     H231962   2.216   3.891   8.155
10574WAT      O31963   7.236   1.414   9.805
10574WAT     H131964   7.248   1.511   9.830
10574WAT     H231965   7.225   1.407   9.706
10575WAT      O31966   4.204   1.618   5.489
10575WAT     H131967   4.302   1.606   5.471
10575WAT     H231968   4.186   1.715   5.507
10576WAT      O31969   9.810   5.801   2.537
10576WAT     H131970   9.755   5.740   2.480
10576WAT     H231971   9.756   5.881   2.562
10577WAT      O31972   8.806   5.977   0.763
10577WAT     H131973   8.862   5.923   0.827
10577WAT     H231974   8.836   5.958   0.670
10578WAT      O31975   1.897   9.075   5.009
10578WAT     H131976   1.841   9.070   4.926
10578WAT     H231977   1.977   9.131   4.991
10579WAT      O31978   2.748   0.659   6.976
10579WAT     H131979   2.818   0.639   6.907
10579WAT     H231980   2.672   0.595   6.965
10580WAT      O31981   4.261   3.218   3.291
10580WAT     H131982   4.304   3.201   3.380
10580WAT     H231983   4.162   3.227   3.303
10581WAT      O31984   6.267   5.690   6.863
10581WAT     H131985   6.345   5.752   6.849
10581WAT     H231986   6.202   5.700   6.787
10582WAT      O31987   9.758   5.847   5.193
10582WAT     H131988   9.824   5.920   5.176
10582WAT     H231989   9.806   5.761   5.207
10583WAT      O31990   3.542   1.260   2.094
10583WAT     H131991   3.587   1.312   2.166
10583WAT     H231992   3.485   1.321   2.039
10584WAT      O31993   2.300   4.922   6.733
10584WAT     H131994   2.377   4.985   6.722
10584WAT     H231995   2.316   4.840   6.678
10585WAT      O31996   2.387   7.408   1.178
10585WAT     H131997   2.408   7.482   1.115
10585WAT     H231998   2.445   7.414   1.259
10586WAT      O31999   3.636   4.525   3.576
10586WAT     H132000   3.562   4.538   3.642
10586WAT     H232001   3.712   4.587   3.599
10587WAT      O32002   4.864   0.026   4.671
10587WAT     H132003   4.854   0.050   4.768
10587WAT     H232004   4.958   0.043   4.642
10588WAT      O32005   8.554   6.329   3.689
10588WAT     H132006   8.585   6.307   3.596
10588WAT     H232007   8.634   6.350   3.746
10589WAT      O32008   3.979   3.219   5.141
10589WAT     H132009   4.063   3.171   5.117
10589WAT     H232010   3.922   3.160   5.198
10590WAT      O32011   0.523   9.091   1.045
10590WAT     H132012   0.521   9.016   0.978
10590WAT     H232013   0.618   9.116   1.063
10591WAT      O32014   6.626   2.238   2.043
10591WAT     H132015   6.668   2.155   2.079
10591WAT     H232016   6.649   2.248   1.946
10592WAT      O32017   0.607   7.795   7.446
10592WAT     H132018   0.665   7.772   7.368
10592WAT     H232019   0.655   7.858   7.506
10593WAT      O32020   2.519   2.787   4.553
10593WAT     H132021   2.589   2.830   4.497
10593WAT     H232022   2.459   2.731   4.496
10594WAT      O32023   3.510   6.195   9.502
10594WAT     H132024   3.432   6.155   9.550
10594WAT     H232025   3.587   6.204   9.565
10595WAT      O32026   0.056   8.292   2.739
10595WAT     H132027   0.047   8.308   2.640
10595WAT     H232028   0.151   8.305   2.766
10596WAT      O32029   5.452   0.915   1.218
10596WAT     H132030   5.433   0.884   1.311
10596WAT     H232031   5.533   0.973   1.218
10597WAT      O32032   9.652   2.013   2.274
10597WAT     H132033   9.564   1.971   2.298
10597WAT     H232034   9.675   2.082   2.343
10598WAT      O32035   3.469   0.589   1.645
10598WAT     H132036   3.425   0.539   1.719
10598WAT     H232037   3.415   0.580   1.561
10599WAT      O32038   7.603   5.710   6.527
10599WAT     H132039   7.587   5.799   6.482
10599WAT     H232040   7.696   5.680   6.509
10600WAT      O32041   7.897   2.399   2.301
10600WAT     H132042   7.980   2.437   2.260
10600WAT     H232043   7.888   2.303   2.274
10601WAT      O32044   6.165   2.712   5.384
10601WAT     H132045   6.095   2.744   5.321
10601WAT     H232046   6.179   2.780   5.456
10602WAT      O32047   8.875   9.514   1.529
10602WAT     H132048   8.955   9.455   1.547
10602WAT     H232049   8.797   9.479   1.581
10603WAT      O32050   2.872   6.728   1.410
10603WAT     H132051   2.888   6.694   1.318
10603WAT     H232052   2.937   6.686   1.474
10604WAT      O32053   6.831   3.340   9.404
10604WAT     H132054   6.759   3.394   9.359
10604WAT     H232055   6.841   3.371   9.498
10605WAT      O32056   2.250   6.416   9.661
10605WAT     H132057   2.309   6.427   9.741
10605WAT     H232058   2.304   6.426   9.578
10606WAT      O32059   1.686   5.836   9.422
10606WAT     H132060   1.720   5.918   9.468
10606WAT     H232061   1.586   5.833   9.428
10607WAT      O32062   6.091   3.730   0.604
10607WAT     H132063   6.084   3.664   0.678
10607WAT     H232064   6.048   3.816   0.631
10608WAT      O32065   9.564   8.733   0.970
10608WAT     H132066   9.629   8.739   0.895
10608WAT     H232067   9.480   8.780   0.946
10609WAT      O32068   4.794   3.266   3.234
10609WAT     H132069   4.848   3.275   3.150
10609WAT     H232070   4.749   3.353   3.254
10610WAT      O32071   8.913   2.371   7.042
10610WAT     H132072   8.903   2.374   7.141
10610WAT     H232073   9.006   2.343   7.018
10611WAT      O32074   8.422   6.235   0.046
10611WAT     H132075   8.402   6.287  -0.037
10611WAT     H232076   8.349   6.168   0.062
10612WAT      O32077   2.956   4.750   7.535
10612WAT     H132078   2.946   4.841   7.576
10612WAT     H232079   3.020   4.756   7.458
10613WAT      O32080   8.544   8.810   6.625
10613WAT     H132081   8.584   8.821   6.534
10613WAT     H232082   8.514   8.899   6.659
10614WAT      O32083   0.556   0.962   7.208
10614WAT     H132084   0.507   0.964   7.295
10614WAT     H232085   0.512   0.898   7.146
10615WAT      O32086   6.811   6.641   6.090
10615WAT     H132087   6.849   6.613   6.001
10615WAT     H232088   6.871   6.709   6.132
10616WAT      O32089   1.380   1.292   7.374
10616WAT     H132090   1.301   1.231   7.371
10616WAT     H232091   1.456   1.248   7.421
10617WAT      O32092   2.592   6.008   8.347
10617WAT     H132093   2.624   6.073   8.415
10617WAT     H232094   2.649   5.926   8.350
10618WAT      O32095   3.235   2.624   5.333
10618WAT     H132096   3.330   2.643   5.311
10618WAT     H232097   3.175   2.672   5.269
10619WAT      O32098   3.869   8.326   1.652
10619WAT     H132099   3.900   8.377   1.572
10619WAT     H232100   3.804   8.381   1.704
10620WAT      O32101   0.372   4.939   5.097
10620WAT     H132102   0.279   4.939   5.136
10620WAT     H232103   0.369   4.899   5.006
10621WAT      O32104   1.183   6.274   0.182
10621WAT     H132105   1.236   6.357   0.200
10621WAT     H232106   1.216   6.200   0.240
10622WAT      O32107   8.185   7.797   1.882
10622WAT     H132108   8.126   7.845   1.946
10622WAT     H232109   8.280   7.825   1.898
10623WAT      O32110   1.446   5.776   8.973
10623WAT     H132111   1.523   5.736   9.022
10623WAT     H232112   1.438   5.873   8.997
10624WAT      O32113   2.867   8.501   7.962
10624WAT     H132114   2.933   8.568   7.997
10624WAT     H232115   2.876   8.494   7.863
10625WAT      O32116   7.692   5.877   2.507
10625WAT     H132117   7.622   5.947   2.494
10625WAT     H232118   7.758   5.882   2.431
10626WAT      O32119   1.624   5.891   3.852
10626WAT     H132120   1.716   5.913   3.819
10626WAT     H232121   1.557   5.919   3.784
10627WAT      O32122   3.791   1.407   1.986
10627WAT     H132123   3.809   1.483   2.047
10627WAT     H232124   3.693   1.402   1.966
10628WAT      O32125   3.223   0.835   0.950
10628WAT     H132126   3.193   0.833   1.045
10628WAT     H232127   3.304   0.893   0.941
10629WAT      O32128   1.759   2.860   5.438
10629WAT     H132129   1.712   2.799   5.373
10629WAT     H232130   1.696   2.932   5.467
10630WAT      O32131   8.572   6.612   6.198
10630WAT     H132132   8.597   6.622   6.294
10630WAT     H232133   8.480   6.572   6.192
10631WAT      O32134   5.945   2.306   2.813
10631WAT     H132135   6.026   2.330   2.867
10631WAT     H232136   5.889   2.387   2.799
10632WAT      O32137   8.579   8.348   3.876
10632WAT     H132138   8.548   8.440   3.851
10632WAT     H232139   8.669   8.353   3.919
10633WAT      O32140   3.554   8.731   8.689
10633WAT     H132141   3.635   8.774   8.650
10633WAT     H232142   3.538   8.767   8.781
10634WAT      O32143   8.062   3.641   1.274
10634WAT     H132144   8.119   3.568   1.238
10634WAT     H232145   8.059   3.717   1.209
10635WAT      O32146   1.509   0.937   5.993
10635WAT     H132147   1.597   0.892   5.978
10635WAT     H232148   1.512   1.030   5.959
10636WAT      O32149   1.267   8.457   2.503
10636WAT     H132150   1.314   8.443   2.590
10636WAT     H232151   1.307   8.398   2.433
10637WAT      O32152   2.597   5.355   2.495
10637WAT     H132153   2.553   5.274   2.534
10637WAT     H232154   2.576   5.435   2.553
10638WAT      O32155   1.215   2.889   9.715
10638WAT     H132156   1.153   2.834   9.771
10638WAT     H232157   1.163   2.928   9.638
10639WAT      O32158   3.192   1.454   3.205
10639WAT     H132159   3.135   1.494   3.134
10639WAT     H232160   3.140   1.384   3.254
10640WAT      O32161   7.502   9.018   8.811
10640WAT     H132162   7.510   8.920   8.829
10640WAT     H232163   7.422   9.034   8.754
10641WAT      O32164   6.935   5.724   9.724
10641WAT     H132165   6.931   5.808   9.671
10641WAT     H232166   6.969   5.650   9.666
10642WAT      O32167   4.626   6.874   1.559
10642WAT     H132168   4.586   6.788   1.590
10642WAT     H232169   4.634   6.937   1.636
10643WAT      O32170   7.833   8.029   5.364
10643WAT     H132171   7.931   8.032   5.383
10643WAT     H232172   7.783   8.070   5.440
10644WAT      O32173   2.853   4.109   5.834
10644WAT     H132174   2.869   4.023   5.883
10644WAT     H232175   2.941   4.151   5.811
10645WAT      O32176   8.986   8.865   1.797
10645WAT     H132177   9.046   8.809   1.740
10645WAT     H232178   9.000   8.843   1.893
10646WAT      O32179   4.354   9.114   1.657
10646WAT     H132180   4.262   9.153   1.669
10646WAT     H232181   4.358   9.067   1.569
10647WAT      O32182   6.680   1.562   2.488
10647WAT     H132183   6.780   1.561   2.494
10647WAT     H232184   6.651   1.505   2.411
10648WAT      O32185   9.655   7.446   2.649
10648WAT     H132186   9.634   7.509   2.574
10648WAT     H232187   9.724   7.380   2.618
10649WAT      O32188   1.914   1.494   5.400
10649WAT     H132189   1.844   1.468   5.466
10649WAT     H232190   1.873   1.497   5.308
10650WAT      O32191   8.011   5.730   4.156
10650WAT     H132192   8.044   5.773   4.240
10650WAT     H232193   7.911   5.728   4.157
10651WAT      O32194   4.465   8.806   8.944
10651WAT     H132195   4.496   8.880   8.885
10651WAT     H232196   4.410   8.843   9.019
10652WAT      O32197   3.668   8.832   6.546
10652WAT     H132198   3.700   8.851   6.639
10652WAT     H232199   3.703   8.901   6.484
10653WAT      O32200   7.036   3.630   2.333
10653WAT     H132201   7.059   3.683   2.252
10653WAT     H232202   7.118   3.584   2.367
10654WAT      O32203   8.758   8.962   7.400
10654WAT     H132204   8.661   8.940   7.395
10654WAT     H232205   8.783   8.990   7.493
10655WAT      O32206   6.885   1.607   1.338
10655WAT     H132207   6.914   1.661   1.259
10655WAT     H232208   6.811   1.655   1.385
10656WAT      O32209   2.738   3.394   1.084
10656WAT     H132210   2.667   3.452   1.044
10656WAT     H232211   2.716   3.298   1.067
10657WAT      O32212   3.773   7.973   4.914
10657WAT     H132213   3.685   7.941   4.879
10657WAT     H232214   3.842   7.967   4.842
10658WAT      O32215   1.247   5.919   2.002
10658WAT     H132216   1.309   5.841   1.994
10658WAT     H232217   1.233   5.959   1.912
10659WAT      O32218   3.337   3.055   2.569
10659WAT     H132219   3.312   3.076   2.663
10659WAT     H232220   3.414   2.991   2.568
10660WAT      O32221   5.608   0.559   6.892
10660WAT     H132222   5.561   0.474   6.915
10660WAT     H232223   5.668   0.585   6.968
10661WAT      O32224   4.145   7.026   3.072
10661WAT     H132225   4.126   6.939   3.120
10661WAT     H232226   4.144   7.010   2.974
10662WAT      O32227   2.413   2.119   2.457
10662WAT     H132228   2.340   2.053   2.475
10662WAT     H232229   2.379   2.212   2.468
10663WAT      O32230   2.605   0.283   7.857
10663WAT     H132231   2.517   0.284   7.903
10663WAT     H232232   2.678   0.293   7.924
10664WAT      O32233   8.011   4.246   2.105
10664WAT     H132234   8.047   4.339   2.114
10664WAT     H232235   7.928   4.237   2.159
10665WAT      O32236   5.630   8.286   5.603
10665WAT     H132237   5.674   8.363   5.556
10665WAT     H232238   5.687   8.204   5.594
10666WAT      O32239   6.163   2.761   4.148
10666WAT     H132240   6.187   2.665   4.159
10666WAT     H232241   6.135   2.798   4.237
10667WAT      O32242   1.742   6.135   1.724
10667WAT     H132243   1.679   6.168   1.654
10667WAT     H232244   1.741   6.198   1.802
10668WAT      O32245   3.498   0.320   1.391
10668WAT     H132246   3.587   0.364   1.384
10668WAT     H232247   3.426   0.389   1.392
10669WAT      O32248   7.950   3.175   2.095
10669WAT     H132249   8.032   3.136   2.135
10669WAT     H232250   7.876   3.108   2.099
10670WAT      O32251   4.150   5.010   9.106
10670WAT     H132252   4.062   4.982   9.066
10670WAT     H232253   4.140   5.101   9.148
10671WAT      O32254   1.336   7.979   1.463
10671WAT     H132255   1.338   7.913   1.388
10671WAT     H232256   1.424   8.025   1.470
10672WAT      O32257   6.687   5.081   2.504
10672WAT     H132258   6.729   5.153   2.560
10672WAT     H232259   6.591   5.071   2.529
10673WAT      O32260   6.086   8.052   9.071
10673WAT     H132261   6.023   8.075   8.997
10673WAT     H232262   6.036   8.048   9.157
10674WAT      O32263   6.839   0.966   7.279
10674WAT     H132264   6.812   1.060   7.299
10674WAT     H232265   6.763   0.905   7.300
10675WAT      O32266   7.191   1.724   1.938
10675WAT     H132267   7.273   1.730   1.996
10675WAT     H232268   7.186   1.806   1.881
10676WAT      O32269   0.114   3.109   4.445
10676WAT     H132270   0.137   3.167   4.523
10676WAT     H232271   0.020   3.076   4.453
10677WAT      O32272   5.853   9.009   3.403
10677WAT     H132273   5.824   8.946   3.331
10677WAT     H232274   5.840   8.967   3.492
10678WAT      O32275   3.697   4.255   7.565
10678WAT     H132276   3.677   4.233   7.469
10678WAT     H232277   3.751   4.180   7.605
10679WAT      O32278   8.351   5.342   9.785
10679WAT     H132279   8.317   5.431   9.755
10679WAT     H232280   8.418   5.355   9.859
10680WAT      O32281   9.655   0.682   2.865
10680WAT     H132282   9.722   0.619   2.905
10680WAT     H232283   9.566   0.636   2.857
10681WAT      O32284   4.005   5.671   8.526
10681WAT     H132285   4.060   5.599   8.483
10681WAT     H232286   4.062   5.750   8.547
10682WAT      O32287   2.245   2.958   9.606
10682WAT     H132288   2.325   2.898   9.603
10682WAT     H232289   2.170   2.910   9.651
10683WAT      O32290   7.183   8.266   2.103
10683WAT     H132291   7.169   8.364   2.112
10683WAT     H232292   7.149   8.235   2.014
10684WAT      O32293   3.279   5.590   4.939
10684WAT     H132294   3.276   5.685   4.909
10684WAT     H232295   3.362   5.575   4.993
10685WAT      O32296   4.711   8.106   5.428
10685WAT     H132297   4.658   8.147   5.353
10685WAT     H232298   4.787   8.053   5.391
10686WAT      O32299   2.489   0.426   3.122
10686WAT     H132300   2.450   0.356   3.182
10686WAT     H232301   2.447   0.420   3.032
10687WAT      O32302   4.747   2.134   7.214
10687WAT     H132303   4.787   2.187   7.288
10687WAT     H232304   4.658   2.172   7.190
10688WAT      O32305   7.056   5.351   8.074
10688WAT     H132306   6.962   5.318   8.064
10688WAT     H232307   7.110   5.283   8.124
10689WAT      O32308   4.700   4.048   0.607
10689WAT     H132309   4.637   3.989   0.555
10689WAT     H232310   4.652   4.085   0.686
10690WAT      O32311   4.735   8.543   4.481
10690WAT     H132312   4.794   8.482   4.428
10690WAT     H232313   4.742   8.636   4.445
10691WAT      O32314   1.071   7.511   3.375
10691WAT     H132315   1.104   7.556   3.458
10691WAT     H232316   0.994   7.451   3.398
10692WAT      O32317   1.634   6.049   8.554
10692WAT     H132318   1.667   6.092   8.639
10692WAT     H232319   1.698   6.071   8.480
10693WAT      O32320   1.661   3.961   7.732
10693WAT     H132321   1.642   3.954   7.634
10693WAT     H232322   1.592   3.909   7.783
10694WAT      O32323   2.513   8.402   9.351
10694WAT     H132324   2.433   8.459   9.374
10694WAT     H232325   2.492   8.307   9.371
10695WAT      O32326   8.718   1.018   0.978
10695WAT     H132327   8.733   1.110   1.015
10695WAT     H232328   8.639   1.019   0.917
10696WAT      O32329   9.684   7.248   3.886
10696WAT     H132330   9.610   7.257   3.952
10696WAT     H232331   9.752   7.184   3.921
10697WAT      O32332   3.665   4.107   8.991
10697WAT     H132333   3.621   4.018   8.984
10697WAT     H232334   3.758   4.096   9.026
10698WAT      O32335   7.450   6.199   3.174
10698WAT     H132336   7.438   6.201   3.273
10698WAT     H232337   7.512   6.124   3.150
10699WAT      O32338   9.699   8.246   9.279
10699WAT     H132339   9.742   8.184   9.214
10699WAT     H232340   9.764   8.267   9.353
10700WAT      O32341   7.070   3.849   2.157
10700WAT     H132342   7.006   3.844   2.081
10700WAT     H232343   7.117   3.937   2.155
10701WAT      O32344   6.634   0.901   3.455
10701WAT     H132345   6.641   0.975   3.388
10701WAT     H232346   6.590   0.936   3.538
10702WAT      O32347   1.522   5.039   7.114
10702WAT     H132348   1.465   5.105   7.163
10702WAT     H232349   1.543   4.962   7.174
10703WAT      O32350   3.857   9.362   3.925
10703WAT     H132351   3.827   9.452   3.957
10703WAT     H232352   3.805   9.337   3.843
10704WAT      O32353   6.411   3.550   4.888
10704WAT     H132354   6.374   3.643   4.899
10704WAT     H232355   6.358   3.502   4.818
10705WAT      O32356   2.102   4.707   2.486
10705WAT     H132357   2.028   4.729   2.549
10705WAT     H232358   2.068   4.710   2.392
10706WAT      O32359   5.809   0.922   5.344
10706WAT     H132360   5.806   0.847   5.411
10706WAT     H232361   5.834   1.007   5.390
10707WAT      O32362   1.776   8.247   1.853
10707WAT     H132363   1.796   8.214   1.945
10707WAT     H232364   1.848   8.310   1.824
10708WAT      O32365   5.709   8.086   4.825
10708WAT     H132366   5.738   8.056   4.734
10708WAT     H232367   5.739   8.180   4.840
10709WAT      O32368   6.953   6.195   6.658
10709WAT     H132369   6.908   6.224   6.574
10709WAT     H232370   6.950   6.095   6.664
10710WAT      O32371   8.942   9.174   8.250
10710WAT     H132372   8.979   9.184   8.158
10710WAT     H232373   9.010   9.131   8.309
10711WAT      O32374   5.428   0.441   9.406
10711WAT     H132375   5.364   0.421   9.480
10711WAT     H232376   5.488   0.516   9.434
10712WAT      O32377   1.480   3.219   5.232
10712WAT     H132378   1.444   3.279   5.303
10712WAT     H232379   1.531   3.272   5.165
10713WAT      O32380   1.911   6.473   5.925
10713WAT     H132381   1.830   6.488   5.982
10713WAT     H232382   1.934   6.375   5.927
10714WAT      O32383   2.453   8.949   4.086
10714WAT     H132384   2.353   8.944   4.096
10714WAT     H232385   2.479   9.044   4.068
10715WAT      O32386   4.204   3.205   5.817
10715WAT     H132387   4.251   3.117   5.809
10715WAT     H232388   4.113   3.199   5.776
10716WAT      O32389   1.081   0.452   1.343
10716WAT     H132390   1.068   0.365   1.295
10716WAT     H232391   1.174   0.456   1.379
10717WAT      O32392   8.424   9.504   5.331
10717WAT     H132393   8.465   9.454   5.407
10717WAT     H232394   8.367   9.577   5.367
10718WAT      O32395   3.160   0.776   4.940
10718WAT     H132396   3.180   0.678   4.945
10718WAT     H232397   3.115   0.796   4.853
10719WAT      O32398   7.596   4.963   6.343
10719WAT     H132399   7.636   4.927   6.427
10719WAT     H232400   7.629   4.911   6.265
10720WAT      O32401   7.060   1.820   1.250
10720WAT     H132402   7.133   1.860   1.194
10720WAT     H232403   7.099   1.780   1.333
10721WAT      O32404   3.825   9.019   6.045
10721WAT     H132405   3.801   9.046   5.952
10721WAT     H232406   3.751   8.964   6.084
10722WAT      O32407   6.796   5.882   9.426
10722WAT     H132408   6.761   5.835   9.345
10722WAT     H232409   6.891   5.857   9.441
10723WAT      O32410   9.818   9.455   2.696
10723WAT     H132411   9.832   9.532   2.633
10723WAT     H232412   9.763   9.487   2.774
10724WAT      O32413   4.610   6.669   2.749
10724WAT     H132414   4.658   6.624   2.824
10724WAT     H232415   4.542   6.732   2.785
10725WAT      O32416   9.528   1.855   7.355
10725WAT     H132417   9.558   1.767   7.318
10725WAT     H232418   9.432   1.849   7.383
10726WAT      O32419   3.168   0.870   0.017
10726WAT     H132420   3.084   0.816   0.019
10726WAT     H232421   3.195   0.885  -0.078
10727WAT      O32422   2.647   1.668   3.579
10727WAT     H132423   2.590   1.586   3.583
10727WAT     H232424   2.660   1.695   3.483
10728WAT      O32425   7.344   4.790   9.447
10728WAT     H132426   7.265   4.782   9.508
10728WAT     H232427   7.410   4.853   9.488
10729WAT      O32428   0.107   5.803   3.425
10729WAT     H132429   0.161   5.779   3.345
10729WAT     H232430   0.081   5.900   3.420
10730WAT      O32431   0.754   6.828   1.780
10730WAT     H132432   0.660   6.811   1.751
10730WAT     H232433   0.801   6.740   1.792
10731WAT      O32434   6.338   0.454   7.282
10731WAT     H132435   6.269   0.479   7.214
10731WAT     H232436   6.304   0.474   7.374
10732WAT      O32437   7.746   9.547   7.875
10732WAT     H132438   7.727   9.472   7.812
10732WAT     H232439   7.668   9.560   7.936
10733WAT      O32440   7.008   1.186   9.651
10733WAT     H132441   7.077   1.239   9.700
10733WAT     H232442   6.970   1.241   9.577
10734WAT      O32443   1.609   8.427   3.456
10734WAT     H132444   1.510   8.411   3.457
10734WAT     H232445   1.655   8.348   3.417
10735WAT      O32446   2.018   5.347   0.346
10735WAT     H132447   2.100   5.307   0.307
10735WAT     H232448   1.942   5.338   0.282
10736WAT      O32449   6.551   7.728   5.400
10736WAT     H132450   6.650   7.725   5.390
10736WAT     H232451   6.516   7.813   5.361
10737WAT      O32452   6.172   1.547   8.791
10737WAT     H132453   6.224   1.631   8.805
10737WAT     H232454   6.089   1.567   8.741
10738WAT      O32455   0.568   7.753   9.693
10738WAT     H132456   0.505   7.675   9.694
10738WAT     H232457   0.660   7.721   9.669
10739WAT      O32458   0.779   7.611   5.240
10739WAT     H132459   0.812   7.655   5.157
10739WAT     H232460   0.852   7.607   5.308
10740WAT      O32461   2.641   0.592   8.051
10740WAT     H132462   2.572   0.532   8.092
10740WAT     H232463   2.616   0.611   7.956
10741WAT      O32464   8.895   1.323   9.506
10741WAT     H132465   8.875   1.393   9.575
10741WAT     H232466   8.819   1.317   9.441
10742WAT      O32467   1.862   2.003   2.360
10742WAT     H132468   1.865   2.092   2.315
10742WAT     H232469   1.860   1.931   2.290
10743WAT      O32470   0.971   1.109   4.106
10743WAT     H132471   0.992   1.073   4.197
10743WAT     H232472   0.978   1.036   4.039
10744WAT      O32473   7.482   1.300   4.344
10744WAT     H132474   7.513   1.250   4.425
10744WAT     H232475   7.500   1.244   4.262
10745WAT      O32476   6.361   5.888   1.962
10745WAT     H132477   6.454   5.902   1.995
10745WAT     H232478   6.318   5.813   2.012
10746WAT      O32479   2.563   6.825   0.334
10746WAT     H132480   2.512   6.739   0.329
10746WAT     H232481   2.505   6.900   0.302
10747WAT      O32482   2.544   0.495   4.599
10747WAT     H132483   2.565   0.444   4.515
10747WAT     H232484   2.446   0.495   4.614
10748WAT      O32485   3.216   9.238   4.306
10748WAT     H132486   3.160   9.302   4.252
10748WAT     H232487   3.306   9.278   4.320
10749WAT      O32488   2.033   3.993   6.822
10749WAT     H132489   1.953   3.939   6.796
10749WAT     H232490   2.033   4.080   6.772
10750WAT      O32491   9.396   9.284   6.515
10750WAT     H132492   9.429   9.208   6.460
10750WAT     H232493   9.297   9.291   6.506
10751WAT      O32494   6.497   1.312   4.838
10751WAT     H132495   6.439   1.353   4.908
10751WAT     H232496   6.526   1.383   4.773
10752WAT      O32497   1.918   8.427   7.633
10752WAT     H132498   1.895   8.330   7.637
10752WAT     H232499   2.017   8.439   7.635
10753WAT      O32500   6.947   8.980   1.435
10753WAT     H132501   6.856   8.953   1.465
10753WAT     H232502   6.977   8.921   1.360
10754WAT      O32503   2.638   1.723   4.295
10754WAT     H132504   2.636   1.753   4.391
10754WAT     H232505   2.545   1.718   4.260
10755WAT      O32506   1.766   4.254   4.254
10755WAT     H132507   1.703   4.332   4.255
10755WAT     H232508   1.729   4.180   4.311
10756WAT      O32509   9.077   6.561   3.873
10756WAT     H132510   9.165   6.608   3.874
10756WAT     H232511   9.079   6.485   3.938
10757WAT      O32512   4.270   4.204   5.205
10757WAT     H132513   4.208   4.268   5.161
10757WAT     H232514   4.272   4.118   5.153
10758WAT      O32515   8.279   2.648   6.670
10758WAT     H132516   8.219   2.695   6.734
10758WAT     H232517   8.353   2.603   6.720
10759WAT      O32518   7.234   3.633   0.822
10759WAT     H132519   7.232   3.561   0.892
10759WAT     H232520   7.150   3.686   0.826
10760WAT      O32521   7.860   1.590   4.866
10760WAT     H132522   7.947   1.560   4.905
10760WAT     H232523   7.859   1.690   4.858
10761WAT      O32524   7.404   2.786   4.584
10761WAT     H132525   7.394   2.837   4.669
10761WAT     H232526   7.358   2.697   4.592
10762WAT      O32527   4.654   3.954   3.776
10762WAT     H132528   4.596   3.879   3.744
10762WAT     H232529   4.625   4.039   3.732
10763WAT      O32530   4.126   3.008   7.601
10763WAT     H132531   4.122   3.106   7.581
10763WAT     H232532   4.212   2.987   7.647
10764WAT      O32533   1.376   5.377   4.982
10764WAT     H132534   1.381   5.405   4.886
10764WAT     H232535   1.333   5.287   4.988
10765WAT      O32536   9.803   9.198   1.263
10765WAT     H132537   9.850   9.286   1.264
10765WAT     H232538   9.870   9.124   1.254
10766WAT      O32539   6.386   6.612   7.260
10766WAT     H132540   6.485   6.611   7.245
10766WAT     H232541   6.361   6.690   7.316
10767WAT      O32542   0.258   9.209   8.536
10767WAT     H132543   0.172   9.248   8.568
10767WAT     H232544   0.239   9.142   8.464
10768WAT      O32545   1.984   6.187   4.763
10768WAT     H132546   1.962   6.201   4.666
10768WAT     H232547   2.082   6.169   4.772
10769WAT      O32548   2.664   9.723   6.507
10769WAT     H132549   2.680   9.807   6.457
10769WAT     H232550   2.565   9.705   6.511
10770WAT      O32551   4.216   0.010   4.744
10770WAT     H132552   4.140   0.073   4.765
10770WAT     H232553   4.178  -0.080   4.721
10771WAT      O32554   4.790   5.094   0.292
10771WAT     H132555   4.862   5.123   0.230
10771WAT     H232556   4.702   5.126   0.258
10772WAT      O32557   8.892   9.646   2.235
10772WAT     H132558   8.843   9.571   2.190
10772WAT     H232559   8.938   9.702   2.165
10773WAT      O32560   1.319   1.896   1.507
10773WAT     H132561   1.253   1.839   1.458
10773WAT     H232562   1.276   1.982   1.533
10774WAT      O32563   5.527   5.186   8.710
10774WAT     H132564   5.474   5.180   8.626
10774WAT     H232565   5.514   5.102   8.764
10775WAT      O32566   9.651   2.094   7.287
10775WAT     H132567   9.681   2.093   7.192
10775WAT     H232568   9.610   2.006   7.311
10776WAT      O32569   5.490   7.535   9.485
10776WAT     H132570   5.416   7.492   9.433
10776WAT     H232571   5.517   7.474   9.561
10777WAT      O32572   5.346   8.713   4.673
10777WAT     H132573   5.404   8.712   4.592
10777WAT     H232574   5.293   8.628   4.677
10778WAT      O32575   5.226   1.950   1.879
10778WAT     H132576   5.143   2.005   1.870
10778WAT     H232577   5.211   1.876   1.944
10779WAT      O32578   2.068   2.773   6.413
10779WAT     H132579   2.080   2.686   6.366
10779WAT     H232580   2.085   2.849   6.349
10780WAT      O32581   4.207   4.409   5.633
10780WAT     H132582   4.134   4.459   5.681
10780WAT     H232583   4.254   4.472   5.571
10781WAT      O32584   5.602   8.934   5.649
10781WAT     H132585   5.680   8.976   5.696
10781WAT     H232586   5.529   8.916   5.715
10782WAT      O32587   8.745   7.403   5.774
10782WAT     H132588   8.693   7.436   5.853
10782WAT     H232589   8.744   7.474   5.703
10783WAT      O32590   4.826   9.018   2.518
10783WAT     H132591   4.754   8.998   2.452
10783WAT     H232592   4.792   9.003   2.611
10784WAT      O32593   5.051   5.727   2.628
10784WAT     H132594   5.030   5.769   2.716
10784WAT     H232595   5.121   5.781   2.581
10785WAT      O32596   4.239   7.769   6.410
10785WAT     H132597   4.240   7.854   6.356
10785WAT     H232598   4.330   7.753   6.448
10786WAT      O32599   8.750   5.435   2.102
10786WAT     H132600   8.741   5.446   2.003
10786WAT     H232601   8.686   5.496   2.148
10787WAT      O32602   0.707   0.560   4.583
10787WAT     H132603   0.693   0.461   4.586
10787WAT     H232604   0.618   0.606   4.574
10788WAT      O32605   9.629   3.356   9.259
10788WAT     H132606   9.648   3.259   9.246
10788WAT     H232607   9.629   3.377   9.357
10789WAT      O32608   6.531   6.987   5.508
10789WAT     H132609   6.488   7.037   5.583
10789WAT     H232610   6.629   6.981   5.524
10790WAT      O32611   4.533   9.651   6.635
10790WAT     H132612   4.596   9.576   6.658
10790WAT     H232613   4.490   9.633   6.547
10791WAT      O32614   9.512   7.707   7.830
10791WAT     H132615   9.580   7.779   7.842
10791WAT     H232616   9.454   7.728   7.751
10792WAT      O32617   1.833   9.281   3.847
10792WAT     H132618   1.920   9.239   3.875
10792WAT     H232619   1.820   9.270   3.749
10793WAT      O32620   6.461   3.791   1.871
10793WAT     H132621   6.433   3.796   1.967
10793WAT     H232622   6.426   3.706   1.831
10794WAT      O32623   4.144   9.519   6.667
10794WAT     H132624   4.166   9.589   6.599
10794WAT     H232625   4.228   9.485   6.709
10795WAT      O32626   6.771   2.096   6.962
10795WAT     H132627   6.805   2.073   6.870
10795WAT     H232628   6.676   2.125   6.955
10796WAT      O32629   3.574   5.962   8.504
10796WAT     H132630   3.624   5.879   8.480
10796WAT     H232631   3.525   5.948   8.590
10797WAT      O32632   0.571   4.850   3.693
10797WAT     H132633   0.540   4.945   3.690
10797WAT     H232634   0.496   4.790   3.664
10798WAT      O32635   4.130   9.305   2.127
10798WAT     H132636   4.108   9.231   2.063
10798WAT     H232637   4.229   9.318   2.130
10799WAT      O32638   3.622   3.577   0.179
10799WAT     H132639   3.665   3.558   0.091
10799WAT     H232640   3.631   3.675   0.200
10800WAT      O32641   4.208   8.992   9.452
10800WAT     H132642   4.163   8.904   9.463
10800WAT     H232643   4.307   8.978   9.444
10801WAT      O32644   9.701   4.831   4.948
10801WAT     H132645   9.750   4.839   5.035
10801WAT     H232646   9.764   4.797   4.878
10802WAT      O32647   4.863   4.296   2.291
10802WAT     H132648   4.821   4.385   2.275
10802WAT     H232649   4.839   4.264   2.382
10803WAT      O32650   5.455   6.213   4.506
10803WAT     H132651   5.535   6.167   4.544
10803WAT     H232652   5.372   6.163   4.532
10804WAT      O32653   5.432   6.432   3.975
10804WAT     H132654   5.393   6.462   3.888
10804WAT     H232655   5.506   6.367   3.957
10805WAT      O32656   0.715   3.139   9.036
10805WAT     H132657   0.731   3.050   9.078
10805WAT     H232658   0.648   3.190   9.090
10806WAT      O32659   3.254   2.015   8.735
10806WAT     H132660   3.209   2.099   8.767
10806WAT     H232661   3.273   1.955   8.813
10807WAT      O32662   6.582   8.326   9.233
10807WAT     H132663   6.496   8.284   9.206
10807WAT     H232664   6.574   8.364   9.325
10808WAT      O32665   1.367   0.331   8.155
10808WAT     H132666   1.461   0.329   8.190
10808WAT     H232667   1.350   0.419   8.110
10809WAT      O32668   5.659   5.191   0.634
10809WAT     H132669   5.720   5.122   0.673
10809WAT     H232670   5.709   5.247   0.569
10810WAT      O32671   1.595   8.594   6.736
10810WAT     H132672   1.529   8.658   6.775
10810WAT     H232673   1.547   8.513   6.702
10811WAT      O32674   7.819   9.417   2.711
10811WAT     H132675   7.900   9.378   2.755
10811WAT     H232676   7.770   9.474   2.777
10812WAT      O32677   5.838   5.474   2.384
10812WAT     H132678   5.845   5.491   2.482
10812WAT     H232679   5.823   5.561   2.337
10813WAT      O32680   1.814   4.252   2.764
10813WAT     H132681   1.885   4.266   2.833
10813WAT     H232682   1.855   4.214   2.681
10814WAT      O32683   5.573   9.122   2.908
10814WAT     H132684   5.496   9.067   2.877
10814WAT     H232685   5.629   9.067   2.971
10815WAT      O32686   2.908   3.810   0.943
10815WAT     H132687   2.916   3.819   1.042
10815WAT     H232688   2.986   3.853   0.898
10816WAT      O32689   6.077   1.002   2.708
10816WAT     H132690   6.114   0.910   2.699
10816WAT     H232691   6.009   1.003   2.781
10817WAT      O32692   0.221   0.926   5.972
10817WAT     H132693   0.313   0.954   5.944
10817WAT     H232694   0.216   0.923   6.072
10818WAT      O32695   2.176   8.486   7.673
10818WAT     H132696   2.268   8.449   7.686
10818WAT     H232697   2.177   8.584   7.691
10819WAT      O32698   9.319   5.106   3.183
10819WAT     H132699   9.349   5.199   3.163
10819WAT     H232700   9.300   5.098   3.281
10820WAT      O32701   6.043   6.847   0.972
10820WAT     H132702   6.085   6.938   0.967
10820WAT     H232703   6.024   6.814   0.880
10821WAT      O32704   8.609   2.239   7.440
10821WAT     H132705   8.547   2.161   7.442
10821WAT     H232706   8.697   2.213   7.480
10822WAT      O32707   7.863   3.174   1.037
10822WAT     H132708   7.939   3.116   1.009
10822WAT     H232709   7.816   3.132   1.115
10823WAT      O32710   6.389   5.267   3.473
10823WAT     H132711   6.341   5.342   3.428
10823WAT     H232712   6.324   5.193   3.493
10824WAT      O32713   5.836   1.345   5.170
10824WAT     H132714   5.818   1.249   5.145
10824WAT     H232715   5.915   1.379   5.119
10825WAT      O32716   1.501   8.341   7.639
10825WAT     H132717   1.500   8.248   7.602
10825WAT     H232718   1.574   8.394   7.597
10826WAT      O32719   7.608   7.250   6.948
10826WAT     H132720   7.541   7.273   6.877
10826WAT     H232721   7.668   7.178   6.916
10827WAT      O32722   7.789   5.263   2.636
10827WAT     H132723   7.784   5.166   2.613
10827WAT     H232724   7.814   5.316   2.554
10828WAT      O32725   3.822   9.778   8.977
10828WAT     H132726   3.870   9.690   8.979
10828WAT     H232727   3.725   9.762   8.964
10829WAT      O32728   7.877   4.565   9.170
10829WAT     H132729   7.940   4.491   9.149
10829WAT     H232730   7.812   4.576   9.095
10830WAT      O32731   3.523   5.227   5.099
10830WAT     H132732   3.532   5.222   5.199
10830WAT     H232733   3.430   5.201   5.073
10831WAT      O32734   8.847   8.480   2.989
10831WAT     H132735   8.749   8.500   2.981
10831WAT     H232736   8.863   8.426   3.071
10832WAT      O32737   7.677   8.661   0.677
10832WAT     H132738   7.682   8.649   0.776
10832WAT     H232739   7.687   8.758   0.655
10833WAT      O32740   4.493   3.877   8.897
10833WAT     H132741   4.495   3.972   8.866
10833WAT     H232742   4.475   3.817   8.819
10834WAT      O32743   5.413   3.508   2.810
10834WAT     H132744   5.449   3.422   2.773
10834WAT     H232745   5.489   3.572   2.825
10835WAT      O32746   0.945   0.389   5.297
10835WAT     H132747   0.964   0.392   5.395
10835WAT     H232748   1.024   0.423   5.247
10836WAT      O32749   6.952   1.586   2.495
10836WAT     H132750   7.039   1.572   2.542
10836WAT     H232751   6.969   1.612   2.400
10837WAT      O32752   4.001   3.237   3.279
10837WAT     H132753   3.946   3.193   3.350
10837WAT     H232754   3.961   3.220   3.189
10838WAT      O32755   8.649   8.577   2.774
10838WAT     H132756   8.588   8.598   2.698
10838WAT     H232757   8.603   8.516   2.838
10839WAT      O32758   8.944   0.709   5.251
10839WAT     H132759   8.860   0.760   5.271
10839WAT     H232760   9.014   0.772   5.217
10840WAT      O32761   2.676   4.755   7.722
10840WAT     H132762   2.644   4.848   7.704
10840WAT     H232763   2.763   4.758   7.772
10841WAT      O32764   2.025   2.695   5.857
10841WAT     H132765   1.990   2.644   5.935
10841WAT     H232766   1.951   2.714   5.793
10842WAT      O32767   8.879   8.982   4.544
10842WAT     H132768   8.838   8.943   4.461
10842WAT     H232769   8.873   9.082   4.540
10843WAT      O32770   1.723   0.195   0.401
10843WAT     H132771   1.717   0.225   0.496
10843WAT     H232772   1.657   0.246   0.346
10844WAT      O32773   0.462   7.734   7.043
10844WAT     H132774   0.431   7.783   6.961
10844WAT     H232775   0.407   7.763   7.121
10845WAT      O32776   0.763   7.955   8.781
10845WAT     H132777   0.825   7.880   8.758
10845WAT     H232778   0.669   7.921   8.784
10846WAT      O32779   9.487   6.658   6.879
10846WAT     H132780   9.572   6.696   6.915
10846WAT     H232781   9.413   6.725   6.888
10847WAT      O32782   7.945   6.998   5.100
10847WAT     H132783   8.014   6.968   5.034
10847WAT     H232784   7.867   7.038   5.050
10848WAT      O32785   8.005   1.752   8.442
10848WAT     H132786   8.055   1.666   8.431
10848WAT     H232787   7.907   1.734   8.433
10849WAT      O32788   6.521   5.420   0.061
10849WAT     H132789   6.450   5.390   0.125
10849WAT     H232790   6.537   5.518   0.073
10850WAT      O32791   6.302   8.678   7.612
10850WAT     H132792   6.202   8.675   7.621
10850WAT     H232793   6.342   8.702   7.701
10851WAT      O32794   7.094   3.035   1.867
10851WAT     H132795   7.138   2.964   1.922
10851WAT     H232796   6.995   3.029   1.880
10852WAT      O32797   5.515   3.743   1.714
10852WAT     H132798   5.489   3.836   1.738
10852WAT     H232799   5.468   3.679   1.775
10853WAT      O32800   4.607   4.159   3.194
10853WAT     H132801   4.563   4.238   3.236
10853WAT     H232802   4.541   4.085   3.184
10854WAT      O32803   1.313   8.038   8.472
10854WAT     H132804   1.378   8.089   8.527
10854WAT     H232805   1.303   8.082   8.382
10855WAT      O32806   2.891   6.969   4.028
10855WAT     H132807   2.798   7.001   4.005
10855WAT     H232808   2.919   6.899   3.962
10856WAT      O32809   5.166   8.216   0.799
10856WAT     H132810   5.073   8.252   0.795
10856WAT     H232811   5.165   8.125   0.841
10857WAT      O32812   4.966   4.591   7.758
10857WAT     H132813   5.001   4.638   7.839
10857WAT     H232814   4.980   4.649   7.678
10858WAT      O32815   9.804   6.418   9.072
10858WAT     H132816   9.851   6.492   9.121
10858WAT     H232817   9.727   6.456   9.021
10859WAT      O32818   6.534   9.066   6.772
10859WAT     H132819   6.436   9.061   6.793
10859WAT     H232820   6.556   9.156   6.734
10860WAT      O32821   4.015   0.462   2.243
10860WAT     H132822   3.995   0.459   2.145
10860WAT     H232823   3.975   0.544   2.283
10861WAT      O32824   4.207   4.744   2.106
10861WAT     H132825   4.247   4.819   2.052
10861WAT     H232826   4.280   4.682   2.135
10862WAT      O32827   1.297   3.631   4.675
10862WAT     H132828   1.224   3.582   4.627
10862WAT     H232829   1.258   3.711   4.720
10863WAT      O32830   5.645   6.722   6.603
10863WAT     H132831   5.648   6.755   6.698
10863WAT     H232832   5.737   6.725   6.564
10864WAT      O32833   8.996   4.910   3.492
10864WAT     H132834   8.905   4.903   3.451
10864WAT     H232835   9.013   4.831   3.550
10865WAT      O32836   7.013   4.141   9.307
10865WAT     H132837   6.971   4.224   9.344
10865WAT     H232838   6.950   4.065   9.317
10866WAT      O32839   7.979   5.825   3.458
10866WAT     H132840   7.930   5.776   3.385
10866WAT     H232841   8.072   5.844   3.427
10867WAT      O32842   4.427   2.496   7.526
10867WAT     H132843   4.403   2.401   7.545
10867WAT     H232844   4.525   2.509   7.539
10868WAT      O32845   5.759   7.722   9.493
10868WAT     H132846   5.745   7.655   9.566
10868WAT     H232847   5.707   7.805   9.513
10869WAT      O32848   4.196   2.688   9.306
10869WAT     H132849   4.148   2.745   9.373
10869WAT     H232850   4.275   2.736   9.271
10870WAT      O32851   8.094   1.117   1.793
10870WAT     H132852   8.114   1.187   1.863
10870WAT     H232853   8.148   1.136   1.711
10871WAT      O32854   3.900   6.999   0.625
10871WAT     H132855   3.840   7.078   0.613
10871WAT     H232856   3.983   7.011   0.572
10872WAT      O32857   3.624   2.020   8.638
10872WAT     H132858   3.595   1.933   8.676
10872WAT     H232859   3.721   2.014   8.611
10873WAT      O32860   1.262   0.190   7.605
10873WAT     H132861   1.323   0.115   7.633
10873WAT     H232862   1.205   0.160   7.529
10874WAT      O32863   0.473   7.799   6.234
10874WAT     H132864   0.547   7.843   6.183
10874WAT     H232865   0.464   7.841   6.324
10875WAT      O32866   6.240   3.391   7.703
10875WAT     H132867   6.152   3.413   7.743
10875WAT     H232868   6.253   3.292   7.701
10876WAT      O32869   2.568   0.516   0.582
10876WAT     H132870   2.558   0.613   0.562
10876WAT     H232871   2.477   0.476   0.597
10877WAT      O32872   4.534   0.925   6.127
10877WAT     H132873   4.448   0.970   6.103
10877WAT     H232874   4.537   0.910   6.226
10878WAT      O32875   3.679   2.753   3.030
10878WAT     H132876   3.621   2.677   2.999
10878WAT     H232877   3.651   2.837   2.984
10879WAT      O32878   5.336   6.862   2.043
10879WAT     H132879   5.256   6.902   2.088
10879WAT     H232880   5.311   6.832   1.951
10880WAT      O32881   4.511   8.982   6.262
10880WAT     H132882   4.582   8.931   6.211
10880WAT     H232883   4.468   9.048   6.200
10881WAT      O32884   3.760   2.622   6.342
10881WAT     H132885   3.797   2.647   6.432
10881WAT     H232886   3.758   2.703   6.284
10882WAT      O32887   7.331   8.398   2.454
10882WAT     H132888   7.272   8.352   2.521
10882WAT     H232889   7.287   8.482   2.423
10883WAT      O32890   5.930   5.486   9.055
10883WAT     H132891   5.890   5.524   8.972
10883WAT     H232892   6.027   5.513   9.060
10884WAT      O32893   6.419   5.799   8.813
10884WAT     H132894   6.448   5.894   8.826
10884WAT     H232895   6.500   5.741   8.809
10885WAT      O32896   2.232   4.850   0.171
10885WAT     H132897   2.230   4.835   0.270
10885WAT     H232898   2.327   4.847   0.139
10886WAT      O32899   5.185   7.100   4.368
10886WAT     H132900   5.112   7.169   4.367
10886WAT     H232901   5.258   7.130   4.431
10887WAT      O32902   6.070   1.496   3.252
10887WAT     H132903   6.110   1.463   3.338
10887WAT     H232904   6.075   1.596   3.249
10888WAT      O32905   0.000   3.954   1.873
10888WAT     H132906   0.088   3.917   1.903
10888WAT     H232907  -0.069   3.882   1.876
10889WAT      O32908   0.005   5.214   2.125
10889WAT     H132909  -0.035   5.304   2.143
10889WAT     H232910   0.101   5.225   2.100
10890WAT      O32911   7.550   8.357   5.669
10890WAT     H132912   7.481   8.310   5.723
10890WAT     H232913   7.555   8.453   5.698
10891WAT      O32914   8.293   9.020   5.909
10891WAT     H132915   8.261   9.098   5.854
10891WAT     H232916   8.379   8.986   5.873
10892WAT      O32917   3.360   9.090   0.995
10892WAT     H132918   3.339   8.998   1.030
10892WAT     H232919   3.280   9.149   1.009
10893WAT      O32920   7.515   1.750   9.121
10893WAT     H132921   7.548   1.840   9.091
10893WAT     H232922   7.593   1.692   9.143
10894WAT      O32923   7.487   0.550   6.033
10894WAT     H132924   7.461   0.627   6.092
10894WAT     H232925   7.419   0.540   5.960
10895WAT      O32926   6.336   7.645   1.297
10895WAT     H132927   6.391   7.728   1.291
10895WAT     H232928   6.397   7.565   1.301
10896WAT      O32929   4.710   3.643   3.007
10896WAT     H132930   4.724   3.680   3.099
10896WAT     H232931   4.766   3.560   2.996
10897WAT      O32932   3.127   8.981   6.036
10897WAT     H132933   3.086   8.975   5.945
10897WAT     H232934   3.099   9.066   6.079
10898WAT      O32935   6.573   8.667   1.601
10898WAT     H132936   6.543   8.612   1.523
10898WAT     H232937   6.621   8.609   1.667
10899WAT      O32938   3.347   4.341   1.444
10899WAT     H132939   3.265   4.365   1.392
10899WAT     H232940   3.337   4.372   1.539
10900WAT      O32941   6.056   6.313   6.775
10900WAT     H132942   6.072   6.405   6.811
10900WAT     H232943   6.023   6.320   6.680
10901WAT      O32944   3.389   5.068   2.192
10901WAT     H132945   3.334   5.067   2.108
10901WAT     H232946   3.405   4.975   2.223
10902WAT      O32947   3.475   8.200   8.740
10902WAT     H132948   3.483   8.221   8.643
10902WAT     H232949   3.564   8.210   8.784
10903WAT      O32950   3.452   3.254   3.989
10903WAT     H132951   3.362   3.264   3.945
10903WAT     H232952   3.439   3.215   4.081
10904WAT      O32953   1.658   1.458   0.966
10904WAT     H132954   1.749   1.455   1.006
10904WAT     H232955   1.623   1.365   0.955
10905WAT      O32956   9.011   5.878   2.905
10905WAT     H132957   8.941   5.848   2.969
10905WAT     H232958   9.089   5.914   2.955
10906WAT      O32959   2.917   5.603   2.237
10906WAT     H132960   2.935   5.662   2.159
10906WAT     H232961   2.983   5.623   2.310
10907WAT      O32962   1.254   5.214   6.819
10907WAT     H132963   1.302   5.301   6.831
10907WAT     H232964   1.218   5.183   6.907
10908WAT      O32965   5.374   5.918   5.569
10908WAT     H132966   5.336   5.832   5.535
10908WAT     H232967   5.422   5.965   5.494
10909WAT      O32968   7.146   3.278   7.717
10909WAT     H132969   7.234   3.315   7.748
10909WAT     H232970   7.138   3.183   7.745
10910WAT      O32971   1.008   6.059   8.145
10910WAT     H132972   0.962   6.093   8.063
10910WAT     H232973   1.028   6.135   8.207
10911WAT      O32974   8.705   3.709   6.186
10911WAT     H132975   8.619   3.715   6.238
10911WAT     H232976   8.703   3.775   6.111
10912WAT      O32977   3.627   1.040   8.148
10912WAT     H132978   3.594   1.097   8.223
10912WAT     H232979   3.620   0.944   8.173
10913WAT      O32980   3.778   4.991   8.736
10913WAT     H132981   3.769   5.066   8.670
10913WAT     H232982   3.811   5.028   8.823
10914WAT      O32983   5.001   4.991   1.945
10914WAT     H132984   4.991   4.982   1.846
10914WAT     H232985   5.063   5.066   1.966
10915WAT      O32986   5.273   4.527   7.400
10915WAT     H132987   5.207   4.552   7.329
10915WAT     H232988   5.226   4.521   7.488
10916WAT      O32989   7.336   3.900   8.415
10916WAT     H132990   7.387   3.951   8.485
10916WAT     H232991   7.238   3.911   8.430
10917WAT      O32992   0.957   4.319   6.853
10917WAT     H132993   1.042   4.281   6.888
10917WAT     H232994   0.963   4.419   6.851
10918WAT      O32995   9.516   4.127   6.723
10918WAT     H132996   9.515   4.167   6.815
10918WAT     H232997   9.464   4.041   6.724
10919WAT      O32998   8.340   0.451   7.129
10919WAT     H132999   8.250   0.428   7.092
10919WAT     H233000   8.389   0.510   7.064
10920WAT      O33001   0.587   1.940   3.026
10920WAT     H133002   0.562   1.924   3.121
10920WAT     H233003   0.609   2.037   3.013
10921WAT      O33004   3.967   2.654   0.314
10921WAT     H133005   4.016   2.728   0.267
10921WAT     H233006   3.959   2.576   0.252
10922WAT      O33007   8.809   0.609   3.966
10922WAT     H133008   8.719   0.610   4.011
10922WAT     H233009   8.870   0.674   4.012
10923WAT      O33010   9.411   6.188   5.614
10923WAT     H133011   9.482   6.190   5.684
10923WAT     H233012   9.368   6.097   5.613
10924WAT      O33013   3.179   5.623   6.710
10924WAT     H133014   3.201   5.562   6.635
10924WAT     H233015   3.233   5.707   6.702
10925WAT      O33016   3.332   0.669   8.649
10925WAT     H133017   3.283   0.691   8.564
10925WAT     H233018   3.400   0.740   8.667
10926WAT      O33019   8.793   0.164   8.421
10926WAT     H133020   8.729   0.196   8.351
10926WAT     H233021   8.824   0.242   8.475
10927WAT      O33022   0.773   1.246   3.230
10927WAT     H133023   0.677   1.216   3.232
10927WAT     H233024   0.818   1.209   3.149
10928WAT      O33025   1.990   8.518   4.564
10928WAT     H133026   2.046   8.599   4.542
10928WAT     H233027   1.894   8.536   4.541
10929WAT      O33028   9.810   0.834   3.754
10929WAT     H133029   9.853   0.912   3.799
10929WAT     H233030   9.848   0.749   3.791
10930WAT      O33031   5.367   0.358   1.751
10930WAT     H133032   5.279   0.354   1.798
10930WAT     H233033   5.406   0.266   1.747
10931WAT      O33034   9.524   5.700   4.788
10931WAT     H133035   9.438   5.682   4.740
10931WAT     H233036   9.505   5.750   4.873
10932WAT      O33037   1.274   3.866   4.384
10932WAT     H133038   1.261   3.893   4.479
10932WAT     H233039   1.372   3.860   4.365
10933WAT      O33040   6.829   1.551   1.670
10933WAT     H133041   6.830   1.451   1.666
10933WAT     H233042   6.770   1.587   1.598
10934WAT      O33043   9.581   7.089   0.435
10934WAT     H133044   9.508   7.066   0.370
10934WAT     H233045   9.561   7.177   0.477
10935WAT      O33046   7.486   0.436   6.632
10935WAT     H133047   7.467   0.527   6.594
10935WAT     H233048   7.439   0.426   6.720
10936WAT      O33049   3.273   4.480   7.734
10936WAT     H133050   3.313   4.568   7.759
10936WAT     H233051   3.177   4.491   7.711
10937WAT      O33052   4.290   0.494   8.592
10937WAT     H133053   4.328   0.564   8.533
10937WAT     H233054   4.216   0.447   8.544
10938WAT      O33055   1.263   0.584   4.321
10938WAT     H133056   1.269   0.503   4.380
10938WAT     H233057   1.309   0.661   4.366
10939WAT      O33058   0.616   7.892   4.150
10939WAT     H133059   0.624   7.982   4.192
10939WAT     H233060   0.644   7.897   4.055
10940WAT      O33061   2.017   5.217   8.216
10940WAT     H133062   2.029   5.297   8.157
10940WAT     H233063   1.991   5.138   8.160
10941WAT      O33064   0.586   2.868   2.162
10941WAT     H133065   0.499   2.915   2.148
10941WAT     H233066   0.606   2.810   2.083
10942WAT      O33067   9.382   8.241   1.405
10942WAT     H133068   9.426   8.200   1.485
10942WAT     H233069   9.450   8.289   1.350
10943WAT      O33070   3.675   9.425   6.141
10943WAT     H133071   3.593   9.439   6.085
10943WAT     H233072   3.662   9.469   6.230
10944WAT      O33073   7.724   4.851   6.537
10944WAT     H133074   7.696   4.757   6.554
10944WAT     H233075   7.823   4.858   6.548
10945WAT      O33076   3.206   1.995   3.110
10945WAT     H133077   3.254   1.991   3.198
10945WAT     H233078   3.273   1.990   3.036
10946WAT      O33079   1.982   6.679   8.994
10946WAT     H133080   1.908   6.732   8.953
10946WAT     H233081   2.069   6.729   8.983
10947WAT      O33082   5.436   3.080   8.305
10947WAT     H133083   5.427   3.171   8.264
10947WAT     H233084   5.345   3.044   8.325
10948WAT      O33085   3.899   1.443   1.300
10948WAT     H133086   3.822   1.379   1.304
10948WAT     H233087   3.889   1.502   1.220
10949WAT      O33088   7.878   3.115   2.497
10949WAT     H133089   7.801   3.175   2.475
10949WAT     H233090   7.876   3.092   2.594
10950WAT      O33091   3.917   3.276   8.722
10950WAT     H133092   3.899   3.177   8.717
10950WAT     H233093   3.836   3.322   8.759
10951WAT      O33094   4.018   3.877   3.207
10951WAT     H133095   4.030   3.868   3.305
10951WAT     H233096   4.071   3.806   3.160
10952WAT      O33097   6.731   6.609   7.551
10952WAT     H133098   6.635   6.604   7.581
10952WAT     H233099   6.746   6.545   7.476
10953WAT      O33100   4.586   3.752   7.261
10953WAT     H133101   4.669   3.697   7.256
10953WAT     H233102   4.512   3.706   7.212
10954WAT      O33103   1.517   9.054   9.753
10954WAT     H133104   1.590   9.113   9.788
10954WAT     H233105   1.509   8.973   9.812
10955WAT      O33106   9.731   0.744   2.612
10955WAT     H133107   9.724   0.679   2.537
10955WAT     H233108   9.706   0.700   2.698
10956WAT      O33109   4.531   1.447   3.667
10956WAT     H133110   4.621   1.463   3.626
10956WAT     H233111   4.465   1.511   3.628
10957WAT      O33112   8.415   9.149   2.839
10957WAT     H133113   8.327   9.191   2.863
10957WAT     H233114   8.457   9.201   2.765
10958WAT      O33115   1.595   6.536   2.163
10958WAT     H133116   1.498   6.548   2.183
10958WAT     H233117   1.618   6.439   2.171
10959WAT      O33118   2.030   1.241   2.015
10959WAT     H133119   1.974   1.244   1.932
10959WAT     H233120   2.081   1.155   2.018
10960WAT      O33121   0.021   0.997   3.105
10960WAT     H133122   0.033   1.074   3.042
10960WAT     H233123   0.104   0.941   3.106
10961WAT      O33124   0.093   1.506   7.882
10961WAT     H133125   0.036   1.550   7.952
10961WAT     H233126   0.103   1.409   7.904
10962WAT      O33127   5.731   5.416   9.284
10962WAT     H133128   5.777   5.467   9.211
10962WAT     H233129   5.738   5.467   9.370
10963WAT      O33130   3.605   1.644   7.774
10963WAT     H133131   3.638   1.572   7.835
10963WAT     H233132   3.679   1.708   7.755
10964WAT      O33133   2.835   6.201   9.756
10964WAT     H133134   2.920   6.215   9.706
10964WAT     H233135   2.792   6.290   9.773
10965WAT      O33136   7.757   3.090   1.253
10965WAT     H133137   7.692   3.049   1.188
10965WAT     H233138   7.822   3.021   1.284
10966WAT      O33139   1.332   9.436   3.948
10966WAT     H133140   1.430   9.429   3.968
10966WAT     H233141   1.317   9.420   3.851
10967WAT      O33142   8.720   3.561   9.270
10967WAT     H133143   8.755   3.504   9.346
10967WAT     H233144   8.621   3.573   9.281
10968WAT      O33145   8.137   8.694   8.079
10968WAT     H133146   8.180   8.783   8.094
10968WAT     H233147   8.168   8.630   8.149
10969WAT      O33148   6.484   9.713   0.142
10969WAT     H133149   6.513   9.805   0.168
10969WAT     H233150   6.540   9.681   0.065
10970WAT      O33151   8.662   8.206   1.174
10970WAT     H133152   8.651   8.194   1.075
10970WAT     H233153   8.757   8.188   1.199
10971WAT      O33154   4.889   0.353   8.967
10971WAT     H133155   4.953   0.339   9.042
10971WAT     H233156   4.921   0.427   8.909
10972WAT      O33157   3.803   3.304   7.062
10972WAT     H133158   3.891   3.332   7.101
10972WAT     H233159   3.761   3.382   7.016
10973WAT      O33160   0.028   9.217   3.104
10973WAT     H133161   0.046   9.315   3.090
10973WAT     H233162   0.001   9.175   3.018
10974WAT      O33163   7.175   2.115   5.290
10974WAT     H133164   7.155   2.198   5.238
10974WAT     H233165   7.274   2.104   5.299
10975WAT      O33166   0.582   0.226   4.779
10975WAT     H133167   0.509   0.287   4.810
10975WAT     H233168   0.590   0.231   4.679
10976WAT      O33169   9.733   6.901   0.573
10976WAT     H133170   9.651   6.945   0.536
10976WAT     H233171   9.707   6.839   0.647
10977WAT      O33172   3.938   3.042   9.869
10977WAT     H133173   3.987   3.110   9.814
10977WAT     H233174   3.887   3.089   9.940
10978WAT      O33175   8.383   8.194   0.460
10978WAT     H133176   8.415   8.287   0.480
10978WAT     H233177   8.380   8.141   0.545
10979WAT      O33178   1.887   9.009   9.364
10979WAT     H133179   1.914   8.961   9.448
10979WAT     H233180   1.968   9.028   9.309
10980WAT      O33181   7.144   6.316   3.578
10980WAT     H133182   7.241   6.290   3.573
10980WAT     H233183   7.136   6.416   3.578
10981WAT      O33184   0.879   2.841   2.182
10981WAT     H133185   0.900   2.900   2.260
10981WAT     H233186   0.780   2.826   2.176
10982WAT      O33187   6.878   3.186   2.439
10982WAT     H133188   6.901   3.262   2.378
10982WAT     H233189   6.940   3.110   2.423
10983WAT      O33190   5.403   1.226   7.693
10983WAT     H133191   5.415   1.241   7.791
10983WAT     H233192   5.488   1.192   7.654
10984WAT      O33193   1.134   2.422   5.934
10984WAT     H133194   1.057   2.371   5.972
10984WAT     H233195   1.178   2.474   6.006
10985WAT      O33196   2.444   0.960   2.324
10985WAT     H133197   2.426   0.973   2.421
10985WAT     H233198   2.442   0.862   2.302
10986WAT      O33199   2.340   4.277   9.653
10986WAT     H133200   2.285   4.209   9.703
10986WAT     H233201   2.281   4.330   9.593
10987WAT      O33202   2.064   8.817   8.211
10987WAT     H133203   1.977   8.859   8.183
10987WAT     H233204   2.061   8.719   8.191
10988WAT      O33205   8.378   9.424   8.008
10988WAT     H133206   8.427   9.413   8.094
10988WAT     H233207   8.317   9.345   7.995
10989WAT      O33208   8.682   6.460   8.382
10989WAT     H133209   8.680   6.405   8.298
10989WAT     H233210   8.589   6.469   8.419
10990WAT      O33211   9.835   4.981   3.389
10990WAT     H133212   9.743   4.955   3.418
10990WAT     H233213   9.857   5.073   3.422
10991WAT      O33214   8.695   4.934   3.089
10991WAT     H133215   8.755   4.925   3.169
10991WAT     H233216   8.713   5.021   3.043
10992WAT      O33217   5.038   8.941   4.650
10992WAT     H133218   4.993   8.962   4.738
10992WAT     H233219   5.046   8.842   4.640
10993WAT      O33220   7.573   4.250   1.964
10993WAT     H133221   7.639   4.318   1.933
10993WAT     H233222   7.609   4.158   1.945
10994WAT      O33223   1.469   7.336   2.557
10994WAT     H133224   1.444   7.304   2.465
10994WAT     H233225   1.553   7.291   2.586
10995WAT      O33226   4.860   9.576   8.543
10995WAT     H133227   4.779   9.536   8.587
10995WAT     H233228   4.936   9.578   8.607
10996WAT      O33229   9.869   8.095   2.353
10996WAT     H133230   9.899   8.189   2.369
10996WAT     H233231   9.946   8.033   2.367
10997WAT      O33232   9.321   9.726   2.071
10997WAT     H133233   9.415   9.752   2.047
10997WAT     H233234   9.315   9.707   2.169
10998WAT      O33235   8.427   3.980   0.107
10998WAT     H133236   8.416   4.006   0.203
10998WAT     H233237   8.337   3.960   0.068
10999WAT      O33238   8.502   7.762   2.104
10999WAT     H133239   8.480   7.781   2.008
10999WAT     H233240   8.569   7.687   2.109
11000WAT      O33241   5.295   9.008   2.535
11000WAT     H133242   5.207   8.977   2.499
11000WAT     H233243   5.350   9.046   2.462
11001WAT      O33244   9.634   0.202   0.354
11001WAT     H133245   9.724   0.222   0.394
11001WAT     H233246   9.625   0.104   0.341
11002WAT      O33247   2.851   8.083   4.207
11002WAT     H133248   2.775   8.127   4.255
11002WAT     H233249   2.920   8.151   4.182
11003WAT      O33250   3.204   8.576   6.791
11003WAT     H133251   3.299   8.563   6.821
11003WAT     H233252   3.178   8.672   6.801
11004WAT      O33253   0.391   6.888   0.943
11004WAT     H133254   0.294   6.863   0.947
11004WAT     H233255   0.432   6.850   0.861
11005WAT      O33256   8.267   8.791   2.899
11005WAT     H133257   8.305   8.720   2.959
11005WAT     H233258   8.244   8.871   2.954
11006WAT      O33259   1.353   4.528   3.664
11006WAT     H133260   1.451   4.524   3.641
11006WAT     H233261   1.338   4.482   3.752
11007WAT      O33262   3.360   6.057   7.527
11007WAT     H133263   3.364   5.961   7.497
11007WAT     H233264   3.358   6.117   7.447
11008WAT      O33265   5.844   1.861   2.150
11008WAT     H133266   5.935   1.869   2.110
11008WAT     H233267   5.777   1.846   2.076
11009WAT      O33268   3.778   2.829   9.769
11009WAT     H133269   3.829   2.911   9.796
11009WAT     H233270   3.842   2.753   9.758
11010WAT      O33271   6.531   2.249   0.967
11010WAT     H133272   6.493   2.157   0.978
11010WAT     H233273   6.520   2.279   0.872
11011WAT      O33274   6.667   3.310   2.145
11011WAT     H133275   6.750   3.347   2.186
11011WAT     H233276   6.612   3.264   2.216
11012WAT      O33277   1.005   1.304   0.535
11012WAT     H133278   0.989   1.318   0.437
11012WAT     H233279   0.935   1.243   0.571
11013WAT      O33280   0.255   9.537   9.399
11013WAT     H133281   0.258   9.537   9.299
11013WAT     H233282   0.221   9.625   9.432
11014WAT      O33283   0.691   5.179   3.829
11014WAT     H133284   0.776   5.224   3.802
11014WAT     H233285   0.628   5.176   3.752
11015WAT      O33286   7.319   6.730   7.885
11015WAT     H133287   7.400   6.689   7.843
11015WAT     H233288   7.300   6.685   7.973
11016WAT      O33289   3.449   4.700   8.322
11016WAT     H133290   3.491   4.640   8.390
11016WAT     H233291   3.356   4.723   8.352
11017WAT      O33292   1.063   2.645   5.084
11017WAT     H133293   1.133   2.657   5.014
11017WAT     H233294   1.072   2.554   5.124
11018WAT      O33295   7.747   3.042   4.665
11018WAT     H133296   7.659   3.064   4.624
11018WAT     H233297   7.817   3.105   4.630
11019WAT      O33298   4.912   8.304   2.442
11019WAT     H133299   4.949   8.336   2.529
11019WAT     H233300   4.861   8.378   2.398
11020WAT      O33301   6.704   6.640   4.130
11020WAT     H133302   6.622   6.586   4.110
11020WAT     H233303   6.694   6.683   4.220
11021WAT      O33304   6.817   8.378   2.889
11021WAT     H133305   6.746   8.446   2.872
11021WAT     H233306   6.898   8.424   2.927
11022WAT      O33307   2.003   8.529   9.479
11022WAT     H133308   2.002   8.584   9.396
11022WAT     H233309   1.932   8.562   9.542
11023WAT      O33310   4.494   3.625   4.806
11023WAT     H133311   4.399   3.644   4.779
11023WAT     H233312   4.539   3.711   4.831
11024WAT      O33313   8.576   4.040   6.341
11024WAT     H133314   8.674   4.038   6.319
11024WAT     H233315   8.541   4.132   6.326
11025WAT      O33316   5.641   7.572   2.944
11025WAT     H133317   5.602   7.503   2.883
11025WAT     H233318   5.631   7.662   2.902
11026WAT      O33319   0.812   1.701   9.324
11026WAT     H133320   0.899   1.654   9.335
11026WAT     H233321   0.826   1.800   9.323
11027WAT      O33322   6.064   7.191   4.369
11027WAT     H133323   6.016   7.104   4.367
11027WAT     H233324   6.154   7.178   4.413
11028WAT      O33325   2.068   7.790   2.174
11028WAT     H133326   2.107   7.703   2.204
11028WAT     H233327   2.140   7.859   2.170
11029WAT      O33328   2.378   1.513   0.739
11029WAT     H133329   2.430   1.590   0.703
11029WAT     H233330   2.315   1.546   0.810
11030WAT      O33331   9.184   6.602   7.116
11030WAT     H133332   9.238   6.678   7.149
11030WAT     H233333   9.183   6.602   7.016
11031WAT      O33334   6.976   2.218   3.442
11031WAT     H133335   7.068   2.190   3.413
11031WAT     H233336   6.982   2.268   3.528
11032WAT      O33337   7.855   3.104   6.900
11032WAT     H133338   7.822   3.193   6.931
11032WAT     H233339   7.822   3.033   6.961
11033WAT      O33340   5.444   9.474   7.356
11033WAT     H133341   5.362   9.501   7.306
11033WAT     H233342   5.473   9.548   7.417
11034WAT      O33343   8.768   2.146   3.188
11034WAT     H133344   8.750   2.156   3.286
11034WAT     H233345   8.852   2.194   3.163
11035WAT      O33346   9.590   6.445   5.096
11035WAT     H133347   9.612   6.348   5.089
11035WAT     H233348   9.499   6.462   5.057
11036WAT      O33349   3.149   2.462   2.744
11036WAT     H133350   3.055   2.491   2.763
11036WAT     H233351   3.188   2.422   2.827
11037WAT      O33352   4.269   2.554   5.140
11037WAT     H133353   4.237   2.615   5.212
11037WAT     H233354   4.278   2.461   5.176
11038WAT      O33355   3.814   2.976   5.182
11038WAT     H133356   3.724   3.003   5.216
11038WAT     H233357   3.803   2.916   5.103
11039WAT      O33358   1.442   3.193   3.773
11039WAT     H133359   1.425   3.292   3.766
11039WAT     H233360   1.398   3.147   3.696
11040WAT      O33361   4.358   9.188   5.670
11040WAT     H133362   4.388   9.213   5.578
11040WAT     H233363   4.292   9.113   5.664
11041WAT      O33364   9.207   3.970   5.456
11041WAT     H133365   9.289   3.930   5.496
11041WAT     H233366   9.147   4.003   5.529
11042WAT      O33367   2.359   3.635   0.426
11042WAT     H133368   2.450   3.637   0.468
11042WAT     H233369   2.299   3.578   0.482
11043WAT      O33370   3.736   9.836   8.349
11043WAT     H133371   3.719   9.788   8.264
11043WAT     H233372   3.755   9.933   8.330
11044WAT      O33373   7.741   5.142   3.004
11044WAT     H133374   7.721   5.175   3.096
11044WAT     H233375   7.811   5.199   2.962
11045WAT      O33376   0.048   8.907   8.901
11045WAT     H133377   0.097   8.914   8.814
11045WAT     H233378  -0.050   8.907   8.885
11046WAT      O33379   7.045   3.298   2.002
11046WAT     H133380   7.046   3.211   1.951
11046WAT     H233381   7.133   3.310   2.049
11047WAT      O33382   2.842   9.094   2.295
11047WAT     H133383   2.849   9.141   2.207
11047WAT     H233384   2.749   9.058   2.305
11048WAT      O33385   6.937   6.383   8.400
11048WAT     H133386   6.928   6.431   8.487
11048WAT     H233387   6.876   6.305   8.398
11049WAT      O33388   2.602   9.384   7.049
11049WAT     H133389   2.665   9.371   6.972
11049WAT     H233390   2.510   9.361   7.020
11050WAT      O33391   2.721   9.125   0.503
11050WAT     H133392   2.720   9.104   0.405
11050WAT     H233393   2.630   9.112   0.541
11051WAT      O33394   8.912   8.466   2.276
11051WAT     H133395   8.936   8.555   2.236
11051WAT     H233396   8.992   8.406   2.273
11052WAT      O33397   8.641   2.234   9.586
11052WAT     H133398   8.654   2.326   9.548
11052WAT     H233399   8.716   2.175   9.557
11053WAT      O33400   5.217   1.215   2.530
11053WAT     H133401   5.285   1.273   2.575
11053WAT     H233402   5.129   1.264   2.526
11054WAT      O33403   0.442   4.771   9.080
11054WAT     H133404   0.527   4.722   9.100
11054WAT     H233405   0.447   4.808   8.987
11055WAT      O33406   1.777   8.782   9.764
11055WAT     H133407   1.687   8.788   9.807
11055WAT     H233408   1.846   8.761   9.833
11056WAT      O33409   3.614   7.467   3.951
11056WAT     H133410   3.627   7.502   3.859
11056WAT     H233411   3.520   7.434   3.962
11057WAT      O33412   8.705   0.034   2.986
11057WAT     H133413   8.641  -0.026   2.938
11057WAT     H233414   8.672   0.128   2.982
11058WAT      O33415   1.454   2.337   8.594
11058WAT     H133416   1.435   2.239   8.601
11058WAT     H233417   1.382   2.388   8.641
11059WAT      O33418   6.446   5.325   1.775
11059WAT     H133419   6.368   5.273   1.740
11059WAT     H233420   6.416   5.381   1.853
11060WAT      O33421   4.230   0.114   9.438
11060WAT     H133422   4.237   0.173   9.358
11060WAT     H233423   4.320   0.103   9.480
11061WAT      O33424   2.903   0.116   4.868
11061WAT     H133425   2.931   0.120   4.964
11061WAT     H233426   2.932   0.199   4.821
11062WAT      O33427   9.214   1.504   2.939
11062WAT     H133428   9.257   1.481   3.027
11062WAT     H233429   9.134   1.562   2.956
11063WAT      O33430   1.007   7.990   2.918
11063WAT     H133431   1.105   8.012   2.912
11063WAT     H233432   0.978   7.946   2.833
11064WAT      O33433   8.165   3.949   3.950
11064WAT     H133434   8.111   3.941   3.866
11064WAT     H233435   8.117   4.007   4.015
11065WAT      O33436   8.169   2.579   8.834
11065WAT     H133437   8.210   2.491   8.860
11065WAT     H233438   8.209   2.610   8.748
11066WAT      O33439   5.969   5.325   8.186
11066WAT     H133440   5.988   5.306   8.089
11066WAT     H233441   5.878   5.291   8.208
11067WAT      O33442   9.092   7.547   0.566
11067WAT     H133443   8.994   7.529   0.574
11067WAT     H233444   9.111   7.642   0.589
11068WAT      O33445   2.834   3.032   4.026
11068WAT     H133446   2.805   3.127   4.016
11068WAT     H233447   2.760   2.971   3.997
11069WAT      O33448   8.453   1.875   3.263
11069WAT     H133449   8.504   1.801   3.218
11069WAT     H233450   8.421   1.940   3.195
11070WAT      O33451   2.943   3.020   5.080
11070WAT     H133452   2.950   2.943   5.017
11070WAT     H233453   2.895   2.991   5.163
11071WAT      O33454   5.188   5.828   7.589
11071WAT     H133455   5.193   5.781   7.500
11071WAT     H233456   5.092   5.841   7.613
11072WAT      O33457   5.492   5.220   0.412
11072WAT     H133458   5.397   5.207   0.442
11072WAT     H233459   5.553   5.215   0.492
11073WAT      O33460   4.506   2.716   3.611
11073WAT     H133461   4.553   2.712   3.524
11073WAT     H233462   4.548   2.786   3.669
11074WAT      O33463   9.528   5.845   5.032
11074WAT     H133464   9.466   5.921   5.049
11074WAT     H233465   9.606   5.851   5.094
11075WAT      O33466   1.501   0.410   1.773
11075WAT     H133467   1.411   0.366   1.770
11075WAT     H233468   1.521   0.438   1.866
11076WAT      O33469   0.176   2.633   3.366
11076WAT     H133470   0.109   2.700   3.334
11076WAT     H233471   0.174   2.553   3.306
11077WAT      O33472   1.676   0.410   9.560
11077WAT     H133473   1.765   0.364   9.558
11077WAT     H233474   1.623   0.377   9.637
11078WAT      O33475   5.201   8.131   1.816
11078WAT     H133476   5.141   8.206   1.789
11078WAT     H233477   5.160   8.044   1.789
11079WAT      O33478   4.360   9.354   6.753
11079WAT     H133479   4.345   9.380   6.848
11079WAT     H233480   4.452   9.382   6.725
11080WAT      O33481   8.459   3.392   7.157
11080WAT     H133482   8.454   3.292   7.162
11080WAT     H233483   8.427   3.422   7.067
11081WAT      O33484   4.529   5.800   8.066
11081WAT     H133485   4.441   5.790   8.111
11081WAT     H233486   4.563   5.710   8.039
11082WAT      O33487   2.906   8.475   7.300
11082WAT     H133488   2.814   8.453   7.266
11082WAT     H233489   2.974   8.440   7.235
11083WAT      O33490   2.865   0.019   1.007
11083WAT     H133491   2.887  -0.042   1.083
11083WAT     H233492   2.902   0.110   1.026
11084WAT      O33493   9.006   2.249   8.413
11084WAT     H133494   8.983   2.162   8.457
11084WAT     H233495   8.927   2.310   8.417
11085WAT      O33496   2.092   8.957   1.852
11085WAT     H133497   2.067   9.034   1.910
11085WAT     H233498   2.095   8.987   1.757
11086WAT      O33499   6.312   5.785   5.205
11086WAT     H133500   6.223   5.809   5.243
11086WAT     H233501   6.366   5.738   5.274
11087WAT      O33502   6.244   0.890   3.976
11087WAT     H133503   6.288   0.800   3.981
11087WAT     H233504   6.161   0.890   4.032
11088WAT      O33505   0.159   4.625   3.294
11088WAT     H133506   0.197   4.681   3.367
11088WAT     H233507   0.066   4.656   3.273
11089WAT      O33508   4.613   0.043   5.403
11089WAT     H133509   4.618   0.138   5.372
11089WAT     H233510   4.623  -0.018   5.324
11090WAT      O33511   3.592   3.485   8.251
11090WAT     H133512   3.579   3.433   8.167
11090WAT     H233513   3.622   3.423   8.324
11091WAT      O33514   9.709   9.152   9.415
11091WAT     H133515   9.757   9.163   9.502
11091WAT     H233516   9.613   9.177   9.426
11092WAT      O33517   6.857   4.861   4.082
11092WAT     H133518   6.774   4.879   4.030
11092WAT     H233519   6.849   4.773   4.129
11093WAT      O33520   6.673   0.815   2.854
11093WAT     H133521   6.767   0.850   2.851
11093WAT     H233522   6.621   0.865   2.922
11094WAT      O33523   7.809   9.027   6.586
11094WAT     H133524   7.844   8.935   6.571
11094WAT     H233525   7.727   9.041   6.530
11095WAT      O33526   3.875   0.860   8.168
11095WAT     H133527   3.869   0.889   8.263
11095WAT     H233528   3.812   0.915   8.112
11096WAT      O33529   8.668   3.230   9.151
11096WAT     H133530   8.752   3.250   9.100
11096WAT     H233531   8.596   3.203   9.088
11097WAT      O33532   0.430   1.744   8.084
11097WAT     H133533   0.493   1.686   8.035
11097WAT     H233534   0.350   1.764   8.026
11098WAT      O33535   6.310   3.369   6.084
11098WAT     H133536   6.307   3.447   6.021
11098WAT     H233537   6.283   3.286   6.035
11099WAT      O33538   4.744   5.096   2.775
11099WAT     H133539   4.757   5.194   2.793
11099WAT     H233540   4.651   5.080   2.743
11100WAT      O33541   2.591   3.369   7.742
11100WAT     H133542   2.641   3.282   7.737
11100WAT     H233543   2.493   3.351   7.729
11101WAT      O33544   1.019   0.178   4.784
11101WAT     H133545   0.954   0.131   4.725
11101WAT     H233546   1.026   0.274   4.756
11102WAT      O33547   8.319   6.159   3.211
11102WAT     H133548   8.309   6.177   3.308
11102WAT     H233549   8.247   6.095   3.182
11103WAT      O33550   7.034   0.782   5.115
11103WAT     H133551   7.076   0.871   5.131
11103WAT     H233552   6.940   0.795   5.083
11104WAT      O33553   8.985   9.290   0.420
11104WAT     H133554   8.984   9.195   0.452
11104WAT     H233555   9.008   9.293   0.323
11105WAT      O33556   9.230   8.649   5.720
11105WAT     H133557   9.250   8.691   5.631
11105WAT     H233558   9.315   8.631   5.769
11106WAT      O33559   8.509   0.735   6.695
11106WAT     H133560   8.533   0.647   6.653
11106WAT     H233561   8.590   0.794   6.697
11107WAT      O33562   2.502   2.907   8.783
11107WAT     H133563   2.462   2.998   8.778
11107WAT     H233564   2.527   2.876   8.692
11108WAT      O33565   8.804   4.312   3.492
11108WAT     H133566   8.738   4.268   3.553
11108WAT     H233567   8.762   4.326   3.402
11109WAT      O33568   2.447   7.225   1.749
11109WAT     H133569   2.384   7.224   1.671
11109WAT     H233570   2.541   7.222   1.715
11110WAT      O33571   6.791   5.410   8.680
11110WAT     H133572   6.753   5.453   8.762
11110WAT     H233573   6.875   5.457   8.654
11111WAT      O33574   7.894   4.728   8.876
11111WAT     H133575   7.912   4.771   8.788
11111WAT     H233576   7.811   4.673   8.871
11112WAT      O33577   2.965   5.589   9.153
11112WAT     H133578   2.892   5.531   9.116
11112WAT     H233579   3.000   5.648   9.081
11113WAT      O33580   5.970   9.684   4.215
11113WAT     H133581   6.026   9.649   4.140
11113WAT     H233582   5.911   9.756   4.182
11114WAT      O33583   6.469   6.712   5.321
11114WAT     H133584   6.475   6.618   5.353
11114WAT     H233585   6.376   6.746   5.332
11115WAT      O33586   0.741   9.310   2.517
11115WAT     H133587   0.789   9.255   2.449
11115WAT     H233588   0.807   9.344   2.585
11116WAT      O33589   1.279   2.558   6.121
11116WAT     H133590   1.334   2.475   6.125
11116WAT     H233591   1.322   2.630   6.175
11117WAT      O33592   9.436   4.395   6.324
11117WAT     H133593   9.514   4.392   6.387
11117WAT     H233594   9.469   4.420   6.232
11118WAT      O33595   7.789   4.586   4.589
11118WAT     H133596   7.804   4.500   4.540
11118WAT     H233597   7.691   4.600   4.603
11119WAT      O33598   1.213   2.426   8.689
11119WAT     H133599   1.193   2.522   8.708
11119WAT     H233600   1.170   2.398   8.603
11120WAT      O33601   5.071   5.765   8.844
11120WAT     H133602   5.139   5.710   8.894
11120WAT     H233603   4.981   5.754   8.887
11121WAT      O33604   9.163   1.245   5.159
11121WAT     H133605   9.200   1.337   5.149
11121WAT     H233606   9.215   1.195   5.228
11122WAT      O33607   9.555   8.084   8.457
11122WAT     H133608   9.619   8.028   8.510
11122WAT     H233609   9.489   8.126   8.519
11123WAT      O33610   4.315   7.596   5.261
11123WAT     H133611   4.376   7.540   5.205
11123WAT     H233612   4.224   7.553   5.263
11124WAT      O33613   6.678   4.675   1.523
11124WAT     H133614   6.728   4.737   1.462
11124WAT     H233615   6.742   4.635   1.589
11125WAT      O33616   5.840   2.533   1.303
11125WAT     H133617   5.860   2.578   1.215
11125WAT     H233618   5.763   2.471   1.291
11126WAT      O33619   4.621   9.116   7.149
11126WAT     H133620   4.579   9.197   7.109
11126WAT     H233621   4.551   9.046   7.163
11127WAT      O33622   7.743   7.405   8.700
11127WAT     H133623   7.814   7.369   8.640
11127WAT     H233624   7.774   7.401   8.795
11128WAT      O33625   5.939   0.029   4.772
11128WAT     H133626   5.889   0.013   4.686
11128WAT     H233627   5.876   0.015   4.849
11129WAT      O33628   5.124   9.041   0.102
11129WAT     H133629   5.135   8.971   0.172
11129WAT     H233630   5.096   9.127   0.145
11130WAT      O33631   3.264   7.176   9.374
11130WAT     H133632   3.224   7.117   9.304
11130WAT     H233633   3.351   7.212   9.341
11131WAT      O33634   9.228   2.686   9.224
11131WAT     H133635   9.197   2.596   9.192
11131WAT     H233636   9.156   2.754   9.209
11132WAT      O33637   0.518   9.159   5.634
11132WAT     H133638   0.566   9.074   5.617
11132WAT     H233639   0.493   9.165   5.730
11133WAT      O33640   9.383   7.647   0.722
11133WAT     H133641   9.402   7.617   0.628
11133WAT     H233642   9.447   7.719   0.748
11134WAT      O33643   8.182   2.318   0.230
11134WAT     H133644   8.120   2.314   0.308
11134WAT     H233645   8.259   2.256   0.246
11135WAT      O33646   0.779   7.475   7.954
11135WAT     H133647   0.873   7.459   7.986
11135WAT     H233648   0.737   7.546   8.010
11136WAT      O33649   0.579   1.780   8.619
11136WAT     H133650   0.588   1.768   8.718
11136WAT     H233651   0.482   1.781   8.594
11137WAT      O33652   6.651   7.089   2.427
11137WAT     H133653   6.643   7.103   2.329
11137WAT     H233654   6.730   7.139   2.462
11138WAT      O33655   1.984   2.207   1.395
11138WAT     H133656   2.008   2.259   1.477
11138WAT     H233657   2.038   2.123   1.392
11139WAT      O33658   0.905   5.864   8.579
11139WAT     H133659   0.811   5.880   8.550
11139WAT     H233660   0.968   5.898   8.510
11140WAT      O33661   7.342   4.415   0.632
11140WAT     H133662   7.245   4.390   0.627
11140WAT     H233663   7.391   4.373   0.556
11141WAT      O33664   1.912   7.633   5.226
11141WAT     H133665   1.841   7.585   5.176
11141WAT     H233666   1.943   7.576   5.302
11142WAT      O33667   7.891   8.009   1.838
11142WAT     H133668   7.965   7.945   1.820
11142WAT     H233669   7.810   7.985   1.784
11143WAT      O33670   5.529   6.093   7.170
11143WAT     H133671   5.489   6.117   7.259
11143WAT     H233672   5.475   6.021   7.127
11144WAT      O33673   1.101   1.052   3.580
11144WAT     H133674   1.165   1.124   3.604
11144WAT     H233675   1.047   1.080   3.501
11145WAT      O33676   8.121   2.993   3.846
11145WAT     H133677   8.185   2.952   3.911
11145WAT     H233678   8.169   3.019   3.762
11146WAT      O33679   6.687   8.902   1.235
11146WAT     H133680   6.678   8.900   1.334
11146WAT     H233681   6.642   8.983   1.199
11147WAT      O33682   7.538   6.373   5.071
11147WAT     H133683   7.556   6.274   5.068
11147WAT     H233684   7.582   6.417   4.994
11148WAT      O33685   1.074   9.019   7.792
11148WAT     H133686   1.090   8.921   7.785
11148WAT     H233687   1.162   9.066   7.802
11149WAT      O33688   0.833   2.043   0.822
11149WAT     H133689   0.769   1.973   0.855
11149WAT     H233690   0.858   2.024   0.728
11150WAT      O33691   1.079   6.665   7.190
11150WAT     H133692   1.033   6.582   7.220
11150WAT     H233693   1.127   6.648   7.104
11151WAT      O33694   5.769   5.955   5.224
11151WAT     H133695   5.776   5.881   5.158
11151WAT     H233696   5.810   5.927   5.311
11152WAT      O33697   7.087   5.504   5.772
11152WAT     H133698   7.123   5.542   5.687
11152WAT     H233699   7.006   5.449   5.753
11153WAT      O33700   2.584   7.957   2.296
11153WAT     H133701   2.643   7.886   2.336
11153WAT     H233702   2.585   8.038   2.355
11154WAT      O33703   0.450   6.145   9.303
11154WAT     H133704   0.370   6.199   9.331
11154WAT     H233705   0.453   6.139   9.203
11155WAT      O33706   9.863   7.766   9.421
11155WAT     H133707   9.832   7.819   9.342
11155WAT     H233708   9.962   7.776   9.431
11156WAT      O33709   2.286   4.235   1.931
11156WAT     H133710   2.304   4.136   1.935
11156WAT     H233711   2.226   4.260   2.007
11157WAT      O33712   4.941   1.367   7.761
11157WAT     H133713   4.918   1.422   7.842
11157WAT     H233714   5.037   1.382   7.736
11158WAT      O33715   0.132   1.880   5.093
11158WAT     H133716   0.054   1.834   5.136
11158WAT     H233717   0.124   1.979   5.106
11159WAT      O33718   7.463   7.947   8.433
11159WAT     H133719   7.460   7.978   8.338
11159WAT     H233720   7.530   8.002   8.484
11160WAT      O33721   1.259   4.001   9.592
11160WAT     H133722   1.307   4.072   9.542
11160WAT     H233723   1.233   4.035   9.683
11161WAT      O33724   9.386   6.079   7.890
11161WAT     H133725   9.357   6.175   7.892
11161WAT     H233726   9.469   6.070   7.835
11162WAT      O33727   2.152   7.887   3.296
11162WAT     H133728   2.172   7.977   3.258
11162WAT     H233729   2.233   7.829   3.287
11163WAT      O33730   2.563   1.865   4.790
11163WAT     H133731   2.477   1.854   4.840
11163WAT     H233732   2.574   1.961   4.765
11164WAT      O33733   3.269   8.658   8.406
11164WAT     H133734   3.364   8.635   8.425
11164WAT     H233735   3.255   8.661   8.307
11165WAT      O33736   6.669   4.807   2.876
11165WAT     H133737   6.762   4.843   2.861
11165WAT     H233738   6.674   4.708   2.892
11166WAT      O33739   6.257   3.403   0.849
11166WAT     H133740   6.188   3.433   0.783
11166WAT     H233741   6.305   3.483   0.886
11167WAT      O33742   7.543   5.176   8.200
11167WAT     H133743   7.559   5.108   8.128
11167WAT     H233744   7.549   5.268   8.161
11168WAT      O33745   5.509   1.268   1.471
11168WAT     H133746   5.596   1.314   1.453
11168WAT     H233747   5.454   1.324   1.532
11169WAT      O33748   2.858   4.409   4.596
11169WAT     H133749   2.925   4.481   4.577
11169WAT     H233750   2.900   4.319   4.578
11170WAT      O33751   0.057   2.696   8.350
11170WAT     H133752   0.145   2.649   8.353
11170WAT     H233753   0.041   2.732   8.258
11171WAT      O33754   1.441   2.645   5.908
11171WAT     H133755   1.419   2.583   5.833
11171WAT     H233756   1.385   2.621   5.988
11172WAT      O33757   3.811   5.253   3.479
11172WAT     H133758   3.818   5.165   3.431
11172WAT     H233759   3.741   5.246   3.550
11173WAT      O33760   4.923   1.244   9.642
11173WAT     H133761   4.934   1.165   9.583
11173WAT     H233762   4.848   1.228   9.706
11174WAT      O33763   0.606   8.815   3.427
11174WAT     H133764   0.559   8.733   3.395
11174WAT     H233765   0.699   8.790   3.455
11175WAT      O33766   1.962   8.354   9.206
11175WAT     H133767   1.982   8.304   9.291
11175WAT     H233768   1.871   8.395   9.212
11176WAT      O33769   1.482   0.834   0.810
11176WAT     H133770   1.568   0.866   0.771
11176WAT     H233771   1.405   0.865   0.753
11177WAT      O33772   8.427   8.293   5.881
11177WAT     H133773   8.426   8.210   5.825
11177WAT     H233774   8.456   8.271   5.974
11178WAT      O33775   1.900   9.387   6.412
11178WAT     H133776   1.868   9.473   6.451
11178WAT     H233777   1.986   9.402   6.363
11179WAT      O33778   3.100   2.508   1.394
11179WAT     H133779   3.171   2.566   1.354
11179WAT     H233780   3.050   2.560   1.462
11180WAT      O33781   2.849   2.342   7.488
11180WAT     H133782   2.907   2.261   7.484
11180WAT     H233783   2.768   2.323   7.543
11181WAT      O33784   5.309   0.116   3.023
11181WAT     H133785   5.391   0.169   3.045
11181WAT     H233786   5.274   0.071   3.105
11182WAT      O33787   1.074   0.614   9.609
11182WAT     H133788   0.980   0.596   9.640
11182WAT     H233789   1.081   0.594   9.512
11183WAT      O33790   4.880   9.166   8.568
11183WAT     H133791   4.839   9.180   8.477
11183WAT     H233792   4.822   9.208   8.637
11184WAT      O33793   4.483   6.893   6.786
11184WAT     H133794   4.580   6.870   6.785
11184WAT     H233795   4.435   6.842   6.715
11185WAT      O33796   8.342   6.167   8.646
11185WAT     H133797   8.422   6.202   8.598
11185WAT     H233798   8.260   6.213   8.612
11186WAT      O33799   5.333   2.202   7.747
11186WAT     H133800   5.245   2.202   7.794
11186WAT     H233801   5.392   2.131   7.786
11187WAT      O33802   7.885   1.692   0.547
11187WAT     H133803   7.903   1.725   0.454
11187WAT     H233804   7.970   1.662   0.589
11188WAT      O33805   4.027   7.066   4.543
11188WAT     H133806   3.999   7.147   4.491
11188WAT     H233807   3.960   7.048   4.615
11189WAT      O33808   8.323   2.630   8.588
11189WAT     H133809   8.339   2.700   8.519
11189WAT     H233810   8.405   2.621   8.646
11190WAT      O33811   2.084   1.596   6.774
11190WAT     H133812   1.998   1.570   6.818
11190WAT     H233813   2.065   1.664   6.703
11191WAT      O33814   9.002   2.372   2.555
11191WAT     H133815   9.049   2.343   2.472
11191WAT     H233816   8.956   2.294   2.597
11192WAT      O33817   4.028   3.373   6.569
11192WAT     H133818   3.994   3.452   6.620
11192WAT     H233819   3.967   3.295   6.583
11193WAT      O33820   7.009   3.102   1.435
11193WAT     H133821   7.089   3.117   1.494
11193WAT     H233822   6.973   3.190   1.405
11194WAT      O33823   6.534   2.519   1.200
11194WAT     H133824   6.559   2.527   1.296
11194WAT     H233825   6.439   2.490   1.192
11195WAT      O33826   2.674   1.783   7.906
11195WAT     H133827   2.575   1.788   7.901
11195WAT     H233828   2.701   1.704   7.961
11196WAT      O33829   5.857   4.552   6.998
11196WAT     H133830   5.892   4.571   7.090
11196WAT     H233831   5.932   4.555   6.932
11197WAT      O33832   0.813   8.205   2.504
11197WAT     H133833   0.808   8.257   2.419
11197WAT     H233834   0.895   8.232   2.555
11198WAT      O33835   5.644   6.866   7.718
11198WAT     H133836   5.570   6.800   7.730
11198WAT     H233837   5.731   6.819   7.714
11199WAT      O33838   7.636   0.679   0.005
11199WAT     H133839   7.686   0.610   0.057
11199WAT     H233840   7.621   0.647  -0.088
11200WAT      O33841   0.170   0.657   0.753
11200WAT     H133842   0.194   0.744   0.711
11200WAT     H233843   0.248   0.622   0.804
11201WAT      O33844   2.514   4.192   8.121
11201WAT     H133845   2.487   4.096   8.122
11201WAT     H233846   2.535   4.222   8.214
11202WAT      O33847   6.058   6.455   4.121
11202WAT     H133848   6.055   6.392   4.198
11202WAT     H233849   5.977   6.513   4.121
11203WAT      O33850   9.308   2.110   8.504
11203WAT     H133851   9.389   2.141   8.454
11203WAT     H233852   9.226   2.141   8.457
11204WAT      O33853   0.339   0.352   7.916
11204WAT     H133854   0.305   0.258   7.925
11204WAT     H233855   0.429   0.350   7.872
11205WAT      O33856   0.520   4.347   3.772
11205WAT     H133857   0.590   4.276   3.782
11205WAT     H233858   0.430   4.307   3.792
11206WAT      O33859   3.686   1.424   0.128
11206WAT     H133860   3.590   1.430   0.100
11206WAT     H233861   3.716   1.329   0.121
11207WAT      O33862   4.204   8.572   4.592
11207WAT     H133863   4.286   8.570   4.536
11207WAT     H233864   4.217   8.516   4.674
11208WAT      O33865   4.250   5.050   4.436
11208WAT     H133866   4.174   5.062   4.500
11208WAT     H233867   4.287   4.958   4.445
11209WAT      O33868   3.009   3.158   9.459
11209WAT     H133869   3.078   3.147   9.387
11209WAT     H233870   3.054   3.162   9.548
11210WAT      O33871   5.548   5.850   0.135
11210WAT     H133872   5.487   5.773   0.152
11210WAT     H233873   5.523   5.894   0.049
11211WAT      O33874   7.874   4.449   7.514
11211WAT     H133875   7.888   4.519   7.584
11211WAT     H233876   7.953   4.445   7.454
11212WAT      O33877   8.574   8.499   3.034
11212WAT     H133878   8.598   8.450   3.118
11212WAT     H233879   8.516   8.441   2.977
11213WAT      O33880   5.441   3.384   9.351
11213WAT     H133881   5.351   3.345   9.336
11213WAT     H233882   5.445   3.476   9.310
11214WAT      O33883   8.187   7.721   5.767
11214WAT     H133884   8.091   7.716   5.741
11214WAT     H233885   8.220   7.630   5.791
11215WAT      O33886   8.628   1.128   8.711
11215WAT     H133887   8.677   1.212   8.734
11215WAT     H233888   8.642   1.106   8.614
11216WAT      O33889   6.917   2.941   5.666
11216WAT     H133890   6.891   3.030   5.628
11216WAT     H233891   7.016   2.932   5.664
11217WAT      O33892   8.994   6.925   2.219
11217WAT     H133893   8.979   6.827   2.226
11217WAT     H233894   8.906   6.973   2.226
11218WAT      O33895   6.628   6.302   6.957
11218WAT     H133896   6.719   6.328   6.924
11218WAT     H233897   6.558   6.337   6.895
11219WAT      O33898   9.476   0.976   9.063
11219WAT     H133899   9.540   1.016   9.129
11219WAT     H233900   9.522   0.904   9.011
11220WAT      O33901   6.316   0.121   2.026
11220WAT     H133902   6.337   0.101   2.122
11220WAT     H233903   6.387   0.181   1.989
11221WAT      O33904   8.221   2.216   7.464
11221WAT     H133905   8.273   2.133   7.441
11221WAT     H233906   8.181   2.206   7.555
11222WAT      O33907   0.463   2.614   7.242
11222WAT     H133908   0.365   2.624   7.263
11222WAT     H233909   0.515   2.684   7.291
11223WAT      O33910   1.660   2.820   3.886
11223WAT     H133911   1.672   2.810   3.985
11223WAT     H233912   1.693   2.910   3.858
11224WAT      O33913   6.703   5.040   0.126
11224WAT     H133914   6.605   5.064   0.122
11224WAT     H233915   6.721   4.988   0.210
11225WAT      O33916   1.288   5.809   5.270
11225WAT     H133917   1.297   5.826   5.369
11225WAT     H233918   1.363   5.750   5.240
11226WAT      O33919   5.061   7.916   1.719
11226WAT     H133920   4.975   7.865   1.723
11226WAT     H233921   5.138   7.853   1.720
11227WAT      O33922   3.851   1.588   1.014
11227WAT     H133923   3.759   1.549   1.017
11227WAT     H233924   3.887   1.583   0.921
11228WAT      O33925   1.674   9.344   6.280
11228WAT     H133926   1.768   9.348   6.313
11228WAT     H233927   1.632   9.258   6.311
11229WAT      O33928   5.748   6.371   8.597
11229WAT     H133929   5.736   6.418   8.509
11229WAT     H233930   5.705   6.425   8.669
11230WAT      O33931   2.543   3.218   1.306
11230WAT     H133932   2.495   3.159   1.371
11230WAT     H233933   2.628   3.251   1.346
11231WAT      O33934   3.096   4.433   1.309
11231WAT     H133935   3.069   4.434   1.406
11231WAT     H233936   3.067   4.347   1.268
11232WAT      O33937   0.743   0.530   7.520
11232WAT     H133938   0.676   0.456   7.525
11232WAT     H233939   0.696   0.616   7.497
11233WAT      O33940   4.273   5.720   1.980
11233WAT     H133941   4.326   5.791   1.935
11233WAT     H233942   4.229   5.759   2.061
11234WAT      O33943   9.024   6.409   6.636
11234WAT     H133944   9.031   6.409   6.736
11234WAT     H233945   9.106   6.367   6.597
11235WAT      O33946   7.889   4.619   6.136
11235WAT     H133947   7.893   4.523   6.164
11235WAT     H233948   7.954   4.672   6.192
11236WAT      O33949   5.944   5.733   2.958
11236WAT     H133950   5.982   5.808   2.905
11236WAT     H233951   5.878   5.769   3.024
11237WAT      O33952   0.539   4.499   3.546
11237WAT     H133953   0.534   4.436   3.623
11237WAT     H233954   0.629   4.544   3.546
11238WAT      O33955   6.757   5.810   6.691
11238WAT     H133956   6.708   5.737   6.740
11238WAT     H233957   6.697   5.850   6.622
11239WAT      O33958   4.787   3.788   4.020
11239WAT     H133959   4.744   3.797   4.110
11239WAT     H233960   4.730   3.833   3.951
11240WAT      O33961   3.094   2.755   5.166
11240WAT     H133962   3.141   2.791   5.086
11240WAT     H233963   3.002   2.726   5.141
11241WAT      O33964   5.504   7.505   1.966
11241WAT     H133965   5.480   7.417   2.007
11241WAT     H233966   5.464   7.511   1.875
11242WAT      O33967   4.113   4.369   4.703
11242WAT     H133968   4.211   4.385   4.692
11242WAT     H233969   4.077   4.327   4.619
11243WAT      O33970   0.801   1.865   5.531
11243WAT     H133971   0.850   1.940   5.487
11243WAT     H233972   0.855   1.781   5.524
11244WAT      O33973   9.195   3.702   6.231
11244WAT     H133974   9.220   3.639   6.157
11244WAT     H233975   9.157   3.786   6.191
11245WAT      O33976   6.242   7.832   6.662
11245WAT     H133977   6.208   7.810   6.754
11245WAT     H233978   6.245   7.749   6.607
11246WAT      O33979   0.851   1.508   1.071
11246WAT     H133980   0.891   1.445   1.137
11246WAT     H233981   0.810   1.456   0.996
11247WAT      O33982   1.847   2.802   4.793
11247WAT     H133983   1.897   2.732   4.844
11247WAT     H233984   1.903   2.833   4.716
11248WAT      O33985   2.867   9.804   4.163
11248WAT     H133986   2.840   9.830   4.071
11248WAT     H233987   2.958   9.764   4.161
11249WAT      O33988   4.844   0.054   2.722
11249WAT     H133989   4.856   0.067   2.624
11249WAT     H233990   4.892  -0.029   2.751
11250WAT      O33991   9.308   2.880   7.333
11250WAT     H133992   9.360   2.961   7.305
11250WAT     H233993   9.325   2.806   7.268
11251WAT      O33994   6.160   5.418   8.364
11251WAT     H133995   6.088   5.365   8.318
11251WAT     H233996   6.119   5.469   8.440
11252WAT      O33997   6.073   2.604   2.689
11252WAT     H133998   5.981   2.568   2.706
11252WAT     H233999   6.103   2.658   2.768
11253WAT      O34000   8.731   0.845   3.164
11253WAT     H134001   8.680   0.850   3.079
11253WAT     H234002   8.746   0.750   3.189
11254WAT      O34003   6.220   2.745   1.329
11254WAT     H134004   6.229   2.727   1.231
11254WAT     H234005   6.123   2.750   1.353
11255WAT      O34006   3.626   6.447   9.161
11255WAT     H134007   3.555   6.481   9.099
11255WAT     H234008   3.592   6.366   9.209
11256WAT      O34009   3.426   6.653   7.842
11256WAT     H134010   3.525   6.645   7.825
11256WAT     H234011   3.400   6.750   7.837
11257WAT      O34012   5.815   9.310   3.810
11257WAT     H134013   5.914   9.322   3.801
11257WAT     H234014   5.783   9.358   3.891
11258WAT      O34015   3.631   7.257   7.744
11258WAT     H134016   3.605   7.253   7.648
11258WAT     H234017   3.728   7.280   7.751
11259WAT      O34018   0.342   8.001   3.399
11259WAT     H134019   0.311   8.043   3.314
11259WAT     H234020   0.410   7.930   3.378
11260WAT      O34021   8.608   8.705   7.444
11260WAT     H134022   8.587   8.764   7.522
11260WAT     H234023   8.706   8.707   7.426
11261WAT      O34024   8.744   6.367   1.472
11261WAT     H134025   8.777   6.442   1.416
11261WAT     H234026   8.644   6.367   1.473
11262WAT      O34027   4.775   7.834   4.393
11262WAT     H134028   4.733   7.919   4.362
11262WAT     H234029   4.814   7.847   4.485
11263WAT      O34030   1.001   8.080   1.305
11263WAT     H134031   1.003   7.982   1.325
11263WAT     H234032   1.038   8.095   1.213
11264WAT      O34033   0.956   7.553   1.317
11264WAT     H134034   0.928   7.509   1.231
11264WAT     H234035   0.905   7.513   1.393
11265WAT      O34036   1.842   2.968   0.653
11265WAT     H134037   1.926   2.916   0.636
11265WAT     H234038   1.852   3.020   0.737
11266WAT      O34039   4.689   2.812   2.988
11266WAT     H134040   4.721   2.818   2.893
11266WAT     H234041   4.683   2.903   3.028
11267WAT      O34042   9.657   9.609   8.506
11267WAT     H134043   9.567   9.629   8.469
11267WAT     H234044   9.725   9.670   8.465
11268WAT      O34045   6.092   0.260   5.798
11268WAT     H134046   6.028   0.307   5.858
11268WAT     H234047   6.127   0.179   5.844
11269WAT      O34048   0.941   6.151   7.896
11269WAT     H134049   1.023   6.095   7.886
11269WAT     H234050   0.896   6.159   7.807
11270WAT      O34051   4.161   0.309   7.973
11270WAT     H134052   4.064   0.311   7.946
11270WAT     H234053   4.202   0.399   7.956
11271WAT      O34054   0.997   3.714   9.168
11271WAT     H134055   0.968   3.788   9.107
11271WAT     H234056   1.085   3.678   9.136
11272WAT      O34057   1.528   6.483   3.587
11272WAT     H134058   1.518   6.470   3.685
11272WAT     H234059   1.595   6.418   3.551
11273WAT      O34060   6.764   5.129   6.157
11273WAT     H134061   6.770   5.227   6.178
11273WAT     H234062   6.672   5.096   6.176
11274WAT      O34063   4.283   3.367   8.417
11274WAT     H134064   4.303   3.353   8.513
11274WAT     H234065   4.184   3.383   8.406
11275WAT      O34066   6.625   2.886   7.595
11275WAT     H134067   6.617   2.870   7.496
11275WAT     H234068   6.681   2.967   7.610
11276WAT      O34069   6.015   2.395   1.453
11276WAT     H134070   6.109   2.429   1.458
11276WAT     H234071   5.962   2.452   1.391
11277WAT      O34072   3.757   0.287   4.422
11277WAT     H134073   3.804   0.359   4.472
11277WAT     H234074   3.757   0.308   4.324
11278WAT      O34075   4.543   2.461   4.549
11278WAT     H134076   4.470   2.466   4.481
11278WAT     H234077   4.628   2.433   4.504
11279WAT      O34078   9.470   8.871   1.999
11279WAT     H134079   9.560   8.828   2.003
11279WAT     H234080   9.404   8.817   2.051
11280WAT      O34081   6.243   2.448   2.532
11280WAT     H134082   6.193   2.398   2.462
11280WAT     H234083   6.182   2.511   2.580
11281WAT      O34084   6.286   1.389   5.230
11281WAT     H134085   6.228   1.375   5.310
11281WAT     H234086   6.328   1.302   5.204
11282WAT      O34087   3.352   9.618   9.556
11282WAT     H134088   3.395   9.702   9.590
11282WAT     H234089   3.393   9.593   9.468
11283WAT      O34090   0.234   9.651   7.938
11283WAT     H134091   0.225   9.564   7.891
11283WAT     H234092   0.221   9.638   8.036
11284WAT      O34093   4.601   7.191   5.211
11284WAT     H134094   4.546   7.113   5.241
11284WAT     H234095   4.621   7.250   5.289
11285WAT      O34096   5.394   6.444   4.345
11285WAT     H134097   5.426   6.371   4.406
11285WAT     H234098   5.473   6.495   4.310
11286WAT      O34099   4.589   3.384   4.797
11286WAT     H134100   4.545   3.474   4.807
11286WAT     H234101   4.686   3.393   4.820
11287WAT      O34102   1.365   9.057   8.556
11287WAT     H134103   1.350   8.987   8.626
11287WAT     H234104   1.334   9.145   8.592
11288WAT      O34105   1.349   6.858   6.134
11288WAT     H134106   1.254   6.834   6.156
11288WAT     H234107   1.393   6.899   6.213
11289WAT      O34108   8.707   5.699   0.350
11289WAT     H134109   8.716   5.679   0.447
11289WAT     H234110   8.785   5.754   0.320
11290WAT      O34111   9.506   6.179   0.219
11290WAT     H134112   9.549   6.148   0.303
11290WAT     H234113   9.486   6.101   0.160
11291WAT      O34114   3.205   8.338   1.115
11291WAT     H134115   3.150   8.255   1.109
11291WAT     H234116   3.150   8.412   1.154
11292WAT      O34117   0.140   5.326   1.779
11292WAT     H134118   0.042   5.340   1.792
11292WAT     H234119   0.185   5.325   1.868
11293WAT      O34120   4.338   5.185   3.110
11293WAT     H134121   4.323   5.142   3.199
11293WAT     H234122   4.338   5.116   3.039
11294WAT      O34123   9.287   8.677   3.068
11294WAT     H134124   9.320   8.744   3.002
11294WAT     H234125   9.187   8.674   3.066
11295WAT      O34126   7.464   4.200   6.136
11295WAT     H134127   7.392   4.265   6.112
11295WAT     H234128   7.490   4.212   6.231
11296WAT      O34129   0.550   9.114   4.142
11296WAT     H134130   0.453   9.119   4.169
11296WAT     H234131   0.561   9.040   4.076
11297WAT      O34132   9.443   1.847   2.407
11297WAT     H134133   9.387   1.765   2.407
11297WAT     H234134   9.531   1.827   2.452
11298WAT      O34135   1.131   5.855   2.223
11298WAT     H134136   1.207   5.829   2.283
11298WAT     H234137   1.167   5.891   2.137
11299WAT      O34138   3.848   1.964   9.093
11299WAT     H134139   3.801   2.045   9.126
11299WAT     H234140   3.783   1.888   9.086
11300WAT      O34141   5.624   0.498   1.219
11300WAT     H134142   5.546   0.560   1.228
11300WAT     H234143   5.634   0.470   1.124
11301WAT      O34144   5.154   9.094   6.395
11301WAT     H134145   5.115   9.088   6.303
11301WAT     H234146   5.118   9.020   6.451
11302WAT      O34147   6.576   2.241   6.357
11302WAT     H134148   6.589   2.144   6.337
11302WAT     H234149   6.648   2.294   6.311
11303WAT      O34150   0.787   2.782   9.711
11303WAT     H134151   0.824   2.717   9.645
11303WAT     H234152   0.688   2.772   9.715
11304WAT      O34153   9.291   7.520   6.191
11304WAT     H134154   9.226   7.594   6.205
11304WAT     H234155   9.245   7.441   6.151
11305WAT      O34156   6.845   3.297   4.651
11305WAT     H134157   6.821   3.203   4.670
11305WAT     H234158   6.778   3.359   4.691
11306WAT      O34159   1.908   5.228   1.375
11306WAT     H134160   1.833   5.208   1.311
11306WAT     H234161   1.987   5.172   1.353
11307WAT      O34162   9.593   5.372   5.360
11307WAT     H134163   9.572   5.278   5.333
11307WAT     H234164   9.574   5.383   5.458
11308WAT      O34165   0.055   1.148   3.343
11308WAT     H134166   0.040   1.077   3.274
11308WAT     H234167   0.062   1.106   3.433
11309WAT      O34168   4.881   0.296   0.119
11309WAT     H134169   4.824   0.355   0.176
11309WAT     H234170   4.846   0.202   0.124
11310WAT      O34171   3.273   0.553   1.877
11310WAT     H134172   3.223   0.620   1.823
11310WAT     H234173   3.241   0.555   1.972
11311WAT      O34174   8.115   5.769   5.284
11311WAT     H134175   8.078   5.815   5.364
11311WAT     H234176   8.170   5.834   5.231
11312WAT      O34177   4.323   4.244   2.106
11312WAT     H134178   4.301   4.311   2.035
11312WAT     H234179   4.422   4.240   2.118
11313WAT      O34180   4.941   9.568   7.616
11313WAT     H134181   5.018   9.623   7.583
11313WAT     H234182   4.917   9.599   7.708
11314WAT      O34183   4.178   0.655   5.999
11314WAT     H134184   4.112   0.598   5.950
11314WAT     H234185   4.169   0.750   5.969
11315WAT      O34186   5.757   5.340   6.068
11315WAT     H134187   5.776   5.435   6.043
11315WAT     H234188   5.663   5.317   6.043
11316WAT      O34189   1.594   4.307   6.988
11316WAT     H134190   1.665   4.240   6.964
11316WAT     H234191   1.528   4.314   6.913
11317WAT      O34192   3.389   1.380   5.470
11317WAT     H134193   3.331   1.299   5.469
11317WAT     H234194   3.461   1.369   5.400
11318WAT      O34195   0.984   6.926   2.332
11318WAT     H134196   1.067   6.980   2.344
11318WAT     H234197   1.004   6.829   2.347
11319WAT      O34198   0.240   8.475   2.063
11319WAT     H134199   0.306   8.549   2.072
11319WAT     H234200   0.147   8.512   2.066
11320WAT      O34201   6.633   0.864   3.751
11320WAT     H134202   6.719   0.864   3.701
11320WAT     H234203   6.644   0.912   3.838
11321WAT      O34204   5.816   7.725   9.062
11321WAT     H134205   5.828   7.690   9.155
11321WAT     H234206   5.737   7.681   9.020
11322WAT      O34207   4.163   8.201   4.622
11322WAT     H134208   4.244   8.254   4.648
11322WAT     H234209   4.147   8.211   4.524
11323WAT      O34210   2.236   9.575   1.097
11323WAT     H134211   2.217   9.666   1.060
11323WAT     H234212   2.214   9.506   1.028
11324WAT      O34213   5.214   8.450   3.711
11324WAT     H134214   5.152   8.415   3.641
11324WAT     H234215   5.232   8.379   3.778
11325WAT      O34216   4.303   0.454   1.236
11325WAT     H134217   4.203   0.451   1.243
11325WAT     H234218   4.329   0.470   1.140
11326WAT      O34219   2.656   2.251   3.288
11326WAT     H134220   2.714   2.332   3.297
11326WAT     H234221   2.687   2.196   3.212
11327WAT      O34222   2.462   2.421   9.549
11327WAT     H134223   2.494   2.367   9.627
11327WAT     H234224   2.396   2.367   9.496
11328WAT      O34225   9.192   8.832   6.602
11328WAT     H134226   9.227   8.801   6.514
11328WAT     H234227   9.100   8.869   6.591
11329WAT      O34228   8.327   5.661   5.803
11329WAT     H134229   8.325   5.759   5.783
11329WAT     H234230   8.348   5.610   5.720
11330WAT      O34231   0.123   6.011   7.336
11330WAT     H134232   0.057   6.067   7.387
11330WAT     H234233   0.200   5.987   7.395
11331WAT      O34234   2.815   8.753   7.728
11331WAT     H134235   2.716   8.738   7.731
11331WAT     H234236   2.858   8.680   7.674
11332WAT      O34237   6.863   8.925   3.250
11332WAT     H134238   6.804   8.856   3.207
11332WAT     H234239   6.806   8.988   3.304
11333WAT      O34240   2.610   3.617   2.521
11333WAT     H134241   2.526   3.623   2.467
11333WAT     H234242   2.665   3.700   2.507
11334WAT      O34243   3.950   2.257   8.753
11334WAT     H134244   3.970   2.296   8.663
11334WAT     H234245   3.920   2.162   8.742
11335WAT      O34246   3.796   7.376   1.587
11335WAT     H134247   3.834   7.469   1.586
11335WAT     H234248   3.810   7.336   1.678
11336WAT      O34249   0.818   5.798   8.074
11336WAT     H134250   0.907   5.834   8.101
11336WAT     H234251   0.752   5.872   8.070
11337WAT      O34252   1.230   7.688   5.777
11337WAT     H134253   1.177   7.771   5.797
11337WAT     H234254   1.173   7.624   5.724
11338WAT      O34255   8.401   9.431   2.675
11338WAT     H134256   8.320   9.452   2.730
11338WAT     H234257   8.384   9.455   2.579
11339WAT      O34258   4.140   0.770   5.278
11339WAT     H134259   4.159   0.796   5.373
11339WAT     H234260   4.112   0.850   5.226
11340WAT      O34261   7.365   1.425   5.004
11340WAT     H134262   7.314   1.434   4.919
11340WAT     H234263   7.367   1.513   5.051
11341WAT      O34264   7.488   2.954   2.150
11341WAT     H134265   7.447   2.863   2.151
11341WAT     H234266   7.484   2.991   2.057
11342WAT      O34267   3.487   5.749   4.688
11342WAT     H134268   3.463   5.667   4.637
11342WAT     H234269   3.438   5.828   4.649
11343WAT      O34270   0.518   8.444   2.592
11343WAT     H134271   0.507   8.469   2.496
11343WAT     H234272   0.592   8.498   2.632
11344WAT      O34273   0.772   6.035   2.058
11344WAT     H134274   0.761   6.105   1.988
11344WAT     H234275   0.701   5.966   2.048
11345WAT      O34276   3.227   6.005   6.431
11345WAT     H134277   3.234   5.912   6.395
11345WAT     H234278   3.185   6.065   6.363
11346WAT      O34279   5.158   9.043   3.653
11346WAT     H134280   5.174   8.965   3.592
11346WAT     H234281   5.141   9.010   3.746
11347WAT      O34282   6.871   6.921   0.049
11347WAT     H134283   6.914   7.009   0.029
11347WAT     H234284   6.814   6.894  -0.028
11348WAT      O34285   2.790   8.301   3.211
11348WAT     H134286   2.796   8.251   3.124
11348WAT     H234287   2.764   8.396   3.192
11349WAT      O34288   0.500   1.923   0.094
11349WAT     H134289   0.583   1.922   0.038
11349WAT     H234290   0.522   1.896   0.187
11350WAT      O34291   7.656   0.087   4.719
11350WAT     H134292   7.711   0.121   4.643
11350WAT     H234293   7.567   0.057   4.685
11351WAT      O34294   3.632   0.928   6.819
11351WAT     H134295   3.581   1.013   6.805
11351WAT     H234296   3.716   0.947   6.869
11352WAT      O34297   4.782   0.002   9.799
11352WAT     H134298   4.858  -0.024   9.859
11352WAT     H234299   4.696  -0.007   9.848
11353WAT      O34300   7.856   1.830   3.030
11353WAT     H134301   7.823   1.799   3.119
11353WAT     H234302   7.781   1.825   2.964
11354WAT      O34303   9.233   3.965   4.664
11354WAT     H134304   9.293   3.932   4.738
11354WAT     H234305   9.283   4.032   4.609
11355WAT      O34306   3.280   1.253   6.276
11355WAT     H134307   3.194   1.285   6.316
11355WAT     H234308   3.354   1.264   6.342
11356WAT      O34309   7.566   4.316   6.639
11356WAT     H134310   7.474   4.293   6.668
11356WAT     H234311   7.632   4.258   6.687
11357WAT      O34312   8.051   6.783   7.349
11357WAT     H134313   8.090   6.707   7.400
11357WAT     H234314   8.077   6.869   7.393
11358WAT      O34315   5.263   9.130   8.129
11358WAT     H134316   5.253   9.110   8.032
11358WAT     H234317   5.174   9.150   8.169
11359WAT      O34318   6.726   3.000   3.115
11359WAT     H134319   6.777   2.915   3.129
11359WAT     H234320   6.656   3.009   3.186
11360WAT      O34321   2.686   1.752   9.362
11360WAT     H134322   2.783   1.760   9.386
11360WAT     H234323   2.632   1.738   9.445
11361WAT      O34324   8.076   0.599   6.786
11361WAT     H134325   7.983   0.621   6.754
11361WAT     H234326   8.109   0.672   6.845
11362WAT      O34327   5.303   1.507   4.027
11362WAT     H134328   5.364   1.430   4.049
11362WAT     H234329   5.259   1.490   3.939
11363WAT      O34330   4.310   0.238   3.918
11363WAT     H134331   4.273   0.331   3.919
11363WAT     H234332   4.310   0.204   3.824
11364WAT      O34333   8.469   7.608   4.697
11364WAT     H134334   8.436   7.702   4.685
11364WAT     H234335   8.548   7.593   4.638
11365WAT      O34336   4.249   4.831   3.199
11365WAT     H134337   4.153   4.805   3.205
11365WAT     H234338   4.259   4.928   3.221
11366WAT      O34339   4.111   2.651   5.350
11366WAT     H134340   4.020   2.685   5.372
11366WAT     H234341   4.129   2.567   5.403
11367WAT      O34342   8.759   7.572   6.605
11367WAT     H134343   8.795   7.481   6.626
11367WAT     H234344   8.715   7.571   6.515
11368WAT      O34345   6.135   0.424   9.373
11368WAT     H134346   6.069   0.357   9.339
11368WAT     H234347   6.213   0.429   9.310
11369WAT      O34348   1.758   4.186   6.293
11369WAT     H134349   1.784   4.166   6.199
11369WAT     H234350   1.836   4.221   6.344
11370WAT      O34351   1.289   5.215   6.249
11370WAT     H134352   1.276   5.122   6.284
11370WAT     H234353   1.212   5.272   6.277
11371WAT      O34354   6.608   5.888   5.435
11371WAT     H134355   6.609   5.789   5.419
11371WAT     H234356   6.517   5.915   5.468
11372WAT      O34357   9.331   7.625   4.187
11372WAT     H134358   9.261   7.619   4.116
11372WAT     H234359   9.364   7.720   4.193
11373WAT      O34360   7.497   9.281   6.848
11373WAT     H134361   7.451   9.360   6.887
11373WAT     H234362   7.482   9.278   6.749
11374WAT      O34363   0.056   3.302   1.557
11374WAT     H134364  -0.038   3.277   1.534
11374WAT     H234365   0.080   3.388   1.513
11375WAT      O34366   5.073   6.138   9.618
11375WAT     H134367   5.052   6.206   9.689
11375WAT     H234368   4.988   6.112   9.571
11376WAT      O34369   8.628   6.129   6.151
11376WAT     H134370   8.653   6.037   6.179
11376WAT     H234371   8.641   6.139   6.052
11377WAT      O34372   2.660   7.104   3.966
11377WAT     H134373   2.706   7.180   3.920
11377WAT     H234374   2.565   7.099   3.935
11378WAT      O34375   4.013   3.100   1.416
11378WAT     H134376   3.962   3.185   1.406
11378WAT     H234377   3.955   3.030   1.457
11379WAT      O34378   8.315   7.477   2.201
11379WAT     H134379   8.247   7.418   2.245
11379WAT     H234380   8.294   7.485   2.104
11380WAT      O34381   3.063   6.411   4.407
11380WAT     H134382   2.979   6.387   4.455
11380WAT     H234383   3.070   6.510   4.396
11381WAT      O34384   2.915   0.249   9.472
11381WAT     H134385   2.892   0.195   9.391
11381WAT     H234386   2.873   0.207   9.553
11382WAT      O34387   2.371   1.452   5.618
11382WAT     H134388   2.416   1.449   5.529
11382WAT     H234389   2.278   1.419   5.610
11383WAT      O34390   9.169   6.420   6.214
11383WAT     H134391   9.097   6.364   6.171
11383WAT     H234392   9.258   6.378   6.196
11384WAT      O34393   1.189   8.914   6.475
11384WAT     H134394   1.269   8.964   6.440
11384WAT     H234395   1.125   8.898   6.400
11385WAT      O34396   9.157   9.383   2.953
11385WAT     H134397   9.086   9.453   2.962
11385WAT     H234398   9.135   9.323   2.876
11386WAT      O34399   0.601   4.035   2.407
11386WAT     H134400   0.539   4.080   2.472
11386WAT     H234401   0.600   4.086   2.320
11387WAT      O34402   7.412   4.141   7.765
11387WAT     H134403   7.484   4.120   7.699
11387WAT     H234404   7.450   4.139   7.858
11388WAT      O34405   6.549   2.526   4.757
11388WAT     H134406   6.544   2.626   4.759
11388WAT     H234407   6.629   2.496   4.809
11389WAT      O34408   6.283   8.816   5.114
11389WAT     H134409   6.241   8.904   5.097
11389WAT     H234410   6.330   8.784   5.031
11390WAT      O34411   8.317   4.915   7.125
11390WAT     H134412   8.322   4.841   7.192
11390WAT     H234413   8.323   4.877   7.032
11391WAT      O34414   1.663   4.795   4.469
11391WAT     H134415   1.659   4.827   4.375
11391WAT     H234416   1.609   4.711   4.478
11392WAT      O34417   4.347   0.628   4.471
11392WAT     H134418   4.445   0.606   4.477
11392WAT     H234419   4.311   0.644   4.563
11393WAT      O34420   4.621   7.564   2.179
11393WAT     H134421   4.644   7.467   2.168
11393WAT     H234422   4.702   7.614   2.209
11394WAT      O34423   7.891   9.692   3.430
11394WAT     H134424   7.902   9.639   3.514
11394WAT     H234425   7.812   9.656   3.379
11395WAT      O34426   7.644   5.601   0.076
11395WAT     H134427   7.599   5.516   0.048
11395WAT     H234428   7.608   5.677   0.023
11396WAT      O34429   8.166   1.960   1.113
11396WAT     H134430   8.123   1.907   1.186
11396WAT     H234431   8.113   2.043   1.096
11397WAT      O34432   3.973   9.227   4.946
11397WAT     H134433   4.071   9.244   4.951
11397WAT     H234434   3.954   9.133   4.976
11398WAT      O34435   6.759   1.363   5.447
11398WAT     H134436   6.800   1.441   5.399
11398WAT     H234437   6.823   1.286   5.444
11399WAT      O34438   8.088   3.671   6.119
11399WAT     H134439   8.160   3.621   6.166
11399WAT     H234440   8.000   3.654   6.164
11400WAT      O34441   2.813   9.769   8.848
11400WAT     H134442   2.910   9.792   8.857
11400WAT     H234443   2.762   9.816   8.920
11401WAT      O34444   1.963   4.545   3.484
11401WAT     H134445   2.020   4.627   3.491
11401WAT     H234446   1.962   4.513   3.389
11402WAT      O34447   1.239   2.608   0.049
11402WAT     H134448   1.152   2.657   0.046
11402WAT     H234449   1.313   2.673   0.061
11403WAT      O34450   4.599   3.828   8.283
11403WAT     H134451   4.574   3.871   8.370
11403WAT     H234452   4.521   3.831   8.220
11404WAT      O34453   8.881   8.360   0.219
11404WAT     H134454   8.889   8.353   0.319
11404WAT     H234455   8.907   8.452   0.190
11405WAT      O34456   0.347   4.947   3.083
11405WAT     H134457   0.371   5.044   3.075
11405WAT     H234458   0.360   4.902   2.995
11406WAT      O34459   6.466   8.389   6.599
11406WAT     H134460   6.505   8.397   6.691
11406WAT     H234461   6.540   8.382   6.532
11407WAT      O34462   3.695   1.766   6.090
11407WAT     H134463   3.603   1.730   6.078
11407WAT     H234464   3.690   1.858   6.129
11408WAT      O34465   9.687   7.220   4.972
11408WAT     H134466   9.615   7.213   5.042
11408WAT     H234467   9.670   7.300   4.914
11409WAT      O34468   8.970   0.143   1.645
11409WAT     H134469   8.984   0.045   1.657
11409WAT     H234470   8.884   0.171   1.688
11410WAT      O34471   6.132   3.167   0.909
11410WAT     H134472   6.163   3.262   0.903
11410WAT     H234473   6.117   3.131   0.817
11411WAT      O34474   7.799   3.722   5.935
11411WAT     H134475   7.809   3.699   6.032
11411WAT     H234476   7.793   3.638   5.881
11412WAT      O34477   3.252   8.226   6.218
11412WAT     H134478   3.307   8.271   6.290
11412WAT     H234479   3.313   8.193   6.146
11413WAT      O34480   1.167   8.615   1.631
11413WAT     H134481   1.073   8.633   1.603
11413WAT     H234482   1.223   8.696   1.614
11414WAT      O34483   9.070   3.885   3.387
11414WAT     H134484   9.124   3.856   3.308
11414WAT     H234485   9.126   3.944   3.445
11415WAT      O34486   0.725   6.054   8.808
11415WAT     H134487   0.779   6.094   8.882
11415WAT     H234488   0.773   5.974   8.771
11416WAT      O34489   7.326   3.505   1.463
11416WAT     H134490   7.268   3.471   1.538
11416WAT     H234491   7.419   3.471   1.475
11417WAT      O34492   7.220   4.630   4.111
11417WAT     H134493   7.320   4.622   4.109
11417WAT     H234494   7.183   4.569   4.181
11418WAT      O34495   4.561   7.492   9.497
11418WAT     H134496   4.535   7.466   9.590
11418WAT     H234497   4.594   7.412   9.448
11419WAT      O34498   3.922   1.749   8.072
11419WAT     H134499   3.966   1.743   7.983
11419WAT     H234500   3.830   1.788   8.061
11420WAT      O34501   5.107   8.582   6.157
11420WAT     H134502   5.033   8.553   6.097
11420WAT     H234503   5.195   8.562   6.113
11421WAT      O34504   9.600   1.193   5.631
11421WAT     H134505   9.516   1.160   5.587
11421WAT     H234506   9.668   1.212   5.560
11422WAT      O34507   7.727   8.741   6.659
11422WAT     H134508   7.724   8.697   6.749
11422WAT     H234509   7.633   8.758   6.627
11423WAT      O34510   1.833   3.758   5.354
11423WAT     H134511   1.786   3.724   5.435
11423WAT     H234512   1.818   3.696   5.277
11424WAT      O34513   1.112   7.793   9.675
11424WAT     H134514   1.041   7.723   9.682
11424WAT     H234515   1.174   7.771   9.600
11425WAT      O34516   4.764   2.099   5.773
11425WAT     H134517   4.859   2.087   5.800
11425WAT     H234518   4.724   2.009   5.751
11426WAT      O34519   5.052   6.453   0.533
11426WAT     H134520   5.103   6.480   0.615
11426WAT     H234521   5.043   6.531   0.472
11427WAT      O34522   2.189   8.719   0.103
11427WAT     H134523   2.091   8.718   0.086
11427WAT     H234524   2.212   8.648   0.170
11428WAT      O34525   2.186   2.399   7.638
11428WAT     H134526   2.088   2.391   7.621
11428WAT     H234527   2.208   2.356   7.726
11429WAT      O34528   5.866   7.884   1.449
11429WAT     H134529   5.933   7.818   1.415
11429WAT     H234530   5.838   7.944   1.373
11430WAT      O34531   7.766   8.547   8.520
11430WAT     H134532   7.841   8.613   8.528
11430WAT     H234533   7.797   8.467   8.469
11431WAT      O34534   7.808   1.398   3.245
11431WAT     H134535   7.748   1.386   3.165
11431WAT     H234536   7.897   1.357   3.225
11432WAT      O34537   4.543   5.321   8.037
11432WAT     H134538   4.634   5.298   8.004
11432WAT     H234539   4.474   5.290   7.970
11433WAT      O34540   3.060   2.362   6.274
11433WAT     H134541   3.142   2.373   6.331
11433WAT     H234542   3.038   2.448   6.229
11434WAT      O34543   3.207   0.500   4.929
11434WAT     H134544   3.198   0.449   4.843
11434WAT     H234545   3.272   0.453   4.989
11435WAT      O34546   0.684   5.115   6.592
11435WAT     H134547   0.667   5.163   6.678
11435WAT     H234548   0.764   5.057   6.601
11436WAT      O34549   5.406   3.990   6.901
11436WAT     H134550   5.366   4.059   6.961
11436WAT     H234551   5.354   3.904   6.910
11437WAT      O34552   9.791   6.501   0.897
11437WAT     H134553   9.871   6.498   0.837
11437WAT     H234554   9.816   6.465   0.987
11438WAT      O34555   6.095   2.170   5.203
11438WAT     H134556   6.172   2.177   5.267
11438WAT     H234557   6.019   2.123   5.247
11439WAT      O34558   8.387   6.871   2.746
11439WAT     H134559   8.481   6.842   2.729
11439WAT     H234560   8.383   6.923   2.831
11440WAT      O34561   2.890   2.062   9.147
11440WAT     H134562   2.849   1.979   9.109
11440WAT     H234563   2.897   2.132   9.075
11441WAT      O34564   1.273   2.152   0.801
11441WAT     H134565   1.182   2.137   0.840
11441WAT     H234566   1.285   2.093   0.722
11442WAT      O34567   2.942   5.044   0.306
11442WAT     H134568   2.846   5.016   0.307
11442WAT     H234569   2.976   5.045   0.400
11443WAT      O34570   3.133   5.972   4.780
11443WAT     H134571   3.215   5.938   4.827
11443WAT     H234572   3.052   5.940   4.828
11444WAT      O34573   2.654   8.730   5.380
11444WAT     H134574   2.696   8.803   5.434
11444WAT     H234575   2.562   8.712   5.415
11445WAT      O34576   2.612   6.191   5.302
11445WAT     H134577   2.644   6.155   5.390
11445WAT     H234578   2.515   6.169   5.291
11446WAT      O34579   1.723   4.635   2.349
11446WAT     H134580   1.682   4.544   2.351
11446WAT     H234581   1.688   4.689   2.425
11447WAT      O34582   2.806   7.752   8.819
11447WAT     H134583   2.732   7.694   8.854
11447WAT     H234584   2.808   7.838   8.869
11448WAT      O34585   3.011   9.429   5.028
11448WAT     H134586   2.925   9.465   4.991
11448WAT     H234587   3.084   9.440   4.960
11449WAT      O34588   9.785   5.580   5.430
11449WAT     H134589   9.725   5.500   5.426
11449WAT     H234590   9.854   5.574   5.358
11450WAT      O34591   0.887   6.564   1.808
11450WAT     H134592   0.966   6.524   1.856
11450WAT     H234593   0.804   6.544   1.859
11451WAT      O34594   0.090   6.149   8.494
11451WAT     H134595   0.103   6.246   8.513
11451WAT     H234596  -0.005   6.134   8.467
11452WAT      O34597   6.457   6.283   1.316
11452WAT     H134598   6.417   6.348   1.252
11452WAT     H234599   6.456   6.192   1.276
11453WAT      O34600   4.944   3.105   5.874
11453WAT     H134601   5.034   3.088   5.913
11453WAT     H234602   4.954   3.142   5.781
11454WAT      O34603   7.303   3.688   1.801
11454WAT     H134604   7.215   3.715   1.761
11454WAT     H234605   7.371   3.759   1.783
11455WAT      O34606   7.608   3.536   0.019
11455WAT     H134607   7.622   3.590  -0.064
11455WAT     H234608   7.679   3.558   0.085
11456WAT      O34609   8.436   9.763   3.750
11456WAT     H134610   8.440   9.684   3.688
11456WAT     H234611   8.528   9.798   3.765
11457WAT      O34612   0.497   3.515   9.706
11457WAT     H134613   0.584   3.504   9.658
11457WAT     H234614   0.424   3.530   9.640
11458WAT      O34615   1.467   3.651   9.786
11458WAT     H134616   1.416   3.598   9.853
11458WAT     H234617   1.512   3.590   9.721
11459WAT      O34618   5.818   7.420   0.850
11459WAT     H134619   5.913   7.397   0.826
11459WAT     H234620   5.774   7.341   0.892
11460WAT      O34621   4.563   4.028   4.856
11460WAT     H134622   4.637   3.963   4.839
11460WAT     H234623   4.560   4.095   4.782
11461WAT      O34624   2.344   2.657   9.615
11461WAT     H134625   2.419   2.723   9.606
11461WAT     H234626   2.372   2.569   9.578
11462WAT      O34627   8.308   7.909   3.380
11462WAT     H134628   8.289   7.814   3.404
11462WAT     H234629   8.338   7.959   3.461
11463WAT      O34630   2.476   0.885   1.050
11463WAT     H134631   2.430   0.880   0.961
11463WAT     H234632   2.411   0.916   1.119
11464WAT      O34633   4.947   6.492   7.162
11464WAT     H134634   4.855   6.532   7.169
11464WAT     H234635   4.956   6.445   7.074
11465WAT      O34636   7.823   8.925   5.122
11465WAT     H134637   7.849   8.957   5.213
11465WAT     H234638   7.731   8.886   5.126
11466WAT      O34639   9.697   1.556   9.667
11466WAT     H134640   9.711   1.645   9.623
11466WAT     H234641   9.784   1.507   9.671
11467WAT      O34642   3.429   6.995   4.905
11467WAT     H134643   3.415   7.083   4.859
11467WAT     H234644   3.340   6.951   4.921
11468WAT      O34645   1.437   7.100   9.437
11468WAT     H134646   1.502   7.175   9.445
11468WAT     H234647   1.344   7.137   9.433
11469WAT      O34648   7.760   9.825   2.120
11469WAT     H134649   7.820   9.758   2.078
11469WAT     H234650   7.707   9.872   2.050
11470WAT      O34651   4.901   5.922   1.411
11470WAT     H134652   4.876   6.016   1.388
11470WAT     H234653   4.836   5.859   1.368
11471WAT      O34654   4.847   5.515   3.373
11471WAT     H134655   4.754   5.478   3.361
11471WAT     H234656   4.913   5.451   3.335
11472WAT      O34657   0.697   7.038   0.674
11472WAT     H134658   0.667   7.105   0.743
11472WAT     H234659   0.696   7.080   0.584
11473WAT      O34660   8.804   2.733   3.577
11473WAT     H134661   8.716   2.733   3.625
11473WAT     H234662   8.787   2.723   3.478
11474WAT      O34663   9.168   4.297   6.976
11474WAT     H134664   9.145   4.318   6.881
11474WAT     H234665   9.139   4.373   7.034
11475WAT      O34666   6.767   5.030   3.343
11475WAT     H134667   6.841   5.096   3.338
11475WAT     H234668   6.805   4.937   3.343
11476WAT      O34669   0.210   2.660   3.020
11476WAT     H134670   0.110   2.662   3.018
11476WAT     H234671   0.245   2.743   3.063
11477WAT      O34672   6.310   7.842   2.605
11477WAT     H134673   6.358   7.817   2.521
11477WAT     H234674   6.219   7.877   2.582
11478WAT      O34675   9.322   0.938   4.488
11478WAT     H134676   9.298   0.841   4.496
11478WAT     H234677   9.302   0.985   4.574
11479WAT      O34678   8.395   7.847   7.449
11479WAT     H134679   8.334   7.926   7.451
11479WAT     H234680   8.489   7.878   7.437
11480WAT      O34681   6.921   1.159   4.628
11480WAT     H134682   6.963   1.069   4.635
11480WAT     H234683   6.829   1.151   4.590
11481WAT      O34684   3.448   8.796   2.382
11481WAT     H134685   3.389   8.784   2.303
11481WAT     H234686   3.494   8.710   2.403
11482WAT      O34687   7.753   4.945   9.390
11482WAT     H134688   7.698   4.944   9.306
11482WAT     H234689   7.776   4.851   9.416
11483WAT      O34690   5.119   5.748   0.143
11483WAT     H134691   5.049   5.678   0.133
11483WAT     H234692   5.107   5.818   0.073
11484WAT      O34693   4.337   8.717   3.303
11484WAT     H134694   4.381   8.807   3.304
11484WAT     H234695   4.240   8.727   3.328
11485WAT      O34696   1.208   5.615   6.204
11485WAT     H134697   1.194   5.713   6.215
11485WAT     H234698   1.284   5.599   6.141
11486WAT      O34699   5.451   7.533   4.815
11486WAT     H134700   5.391   7.502   4.742
11486WAT     H234701   5.397   7.574   4.888
11487WAT      O34702   7.747   2.104   0.731
11487WAT     H134703   7.768   2.043   0.808
11487WAT     H234704   7.653   2.088   0.701
11488WAT      O34705   8.977   0.218   4.322
11488WAT     H134706   9.019   0.130   4.345
11488WAT     H234707   8.987   0.280   4.400
11489WAT      O34708   4.207   3.795   6.669
11489WAT     H134709   4.245   3.747   6.590
11489WAT     H234710   4.244   3.888   6.672
11490WAT      O34711   4.638   9.101   7.725
11490WAT     H134712   4.652   9.163   7.648
11490WAT     H234713   4.690   9.017   7.711
11491WAT      O34714   7.174   3.333   6.572
11491WAT     H134715   7.228   3.317   6.655
11491WAT     H234716   7.086   3.288   6.581
11492WAT      O34717   0.915   9.838   8.840
11492WAT     H134718   0.938   9.748   8.803
11492WAT     H234719   0.906   9.833   8.939
11493WAT      O34720   8.904   4.112   3.934
11493WAT     H134721   8.905   4.134   3.836
11493WAT     H234722   8.905   4.013   3.946
11494WAT      O34723   7.352   1.103   6.898
11494WAT     H134724   7.356   1.011   6.937
11494WAT     H234725   7.302   1.163   6.960
11495WAT      O34726   6.402   3.355   6.624
11495WAT     H134727   6.416   3.273   6.680
11495WAT     H234728   6.392   3.329   6.528
11496WAT      O34729   6.314   9.364   9.895
11496WAT     H134730   6.326   9.301   9.818
11496WAT     H234731   6.379   9.440   9.887
11497WAT      O34732   4.915   0.290   3.975
11497WAT     H134733   4.994   0.348   3.992
11497WAT     H234734   4.866   0.322   3.894
11498WAT      O34735   7.929   3.013   5.933
11498WAT     H134736   7.973   2.941   5.988
11498WAT     H234737   7.989   3.039   5.858
11499WAT      O34738   4.104   7.606   3.004
11499WAT     H134739   4.132   7.689   2.956
11499WAT     H234740   4.085   7.534   2.938
11500WAT      O34741   7.816   5.962   1.166
11500WAT     H134742   7.883   5.893   1.141
11500WAT     H234743   7.810   5.970   1.266
11501WAT      O34744   2.256   8.543   0.314
11501WAT     H134745   2.176   8.484   0.324
11501WAT     H234746   2.283   8.578   0.403
11502WAT      O34747   0.684   6.972   1.514
11502WAT     H134748   0.745   6.929   1.581
11502WAT     H234749   0.737   7.034   1.456
11503WAT      O34750   0.729   7.710   6.005
11503WAT     H134751   0.770   7.791   5.963
11503WAT     H234752   0.677   7.660   5.935
11504WAT      O34753   4.215   1.643   2.554
11504WAT     H134754   4.215   1.687   2.644
11504WAT     H234755   4.215   1.713   2.482
11505WAT      O34756   9.005   3.574   5.862
11505WAT     H134757   9.037   3.649   5.804
11505WAT     H234758   8.951   3.510   5.807
11506WAT      O34759   4.536   9.824   0.070
11506WAT     H134760   4.461   9.865   0.121
11506WAT     H234761   4.587   9.762   0.130
11507WAT      O34762   1.954   1.739   4.460
11507WAT     H134763   1.944   1.685   4.376
11507WAT     H234764   1.910   1.690   4.535
11508WAT      O34765   9.132   5.684   6.088
11508WAT     H134766   9.114   5.687   5.990
11508WAT     H234767   9.122   5.590   6.121
11509WAT      O34768   2.063   9.299   7.620
11509WAT     H134769   1.978   9.257   7.589
11509WAT     H234770   2.091   9.369   7.555
11510WAT      O34771   1.137   9.529   8.733
11510WAT     H134772   1.039   9.542   8.750
11510WAT     H234773   1.168   9.594   8.663
11511WAT      O34774   3.718   8.316   3.542
11511WAT     H134775   3.693   8.346   3.450
11511WAT     H234776   3.655   8.355   3.608
11512WAT      O34777   6.005   9.433   2.880
11512WAT     H134778   6.087   9.426   2.824
11512WAT     H234779   5.934   9.373   2.842
11513WAT      O34780   5.880   6.448   7.500
11513WAT     H134781   5.952   6.393   7.456
11513WAT     H234782   5.889   6.441   7.599
11514WAT      O34783   7.729   5.594   7.080
11514WAT     H134784   7.649   5.652   7.098
11514WAT     H234785   7.812   5.643   7.107
11515WAT      O34786   8.479   1.062   4.953
11515WAT     H134787   8.574   1.084   4.931
11515WAT     H234788   8.468   1.054   5.052
11516WAT      O34789   5.784   2.641   6.351
11516WAT     H134790   5.862   2.679   6.301
11516WAT     H234791   5.702   2.646   6.294
11517WAT      O34792   4.504   2.122   1.832
11517WAT     H134793   4.442   2.168   1.896
11517WAT     H234794   4.558   2.191   1.783
11518WAT      O34795   1.783   1.580   4.621
11518WAT     H134796   1.837   1.507   4.579
11518WAT     H234797   1.686   1.566   4.600
11519WAT      O34798   7.898   8.589   7.954
11519WAT     H134799   7.958   8.649   8.008
11519WAT     H234800   7.906   8.613   7.857
11520WAT      O34801   2.830   3.346   6.358
11520WAT     H134802   2.734   3.363   6.380
11520WAT     H234803   2.888   3.407   6.412
11521WAT      O34804   9.310   0.933   3.220
11521WAT     H134805   9.288   0.962   3.127
11521WAT     H234806   9.226   0.903   3.266
11522WAT      O34807   6.896   3.281   0.548
11522WAT     H134808   6.989   3.310   0.573
11522WAT     H234809   6.889   3.274   0.449
11523WAT      O34810   6.927   9.722   0.297
11523WAT     H134811   7.004   9.659   0.289
11523WAT     H234812   6.959   9.816   0.287
11524WAT      O34813   3.355   7.387   3.934
11524WAT     H134814   3.287   7.454   3.963
11524WAT     H234815   3.360   7.387   3.834
11525WAT      O34816   6.217   8.614   1.326
11525WAT     H134817   6.195   8.710   1.344
11525WAT     H234818   6.309   8.607   1.289
11526WAT      O34819   7.996   7.390   3.066
11526WAT     H134820   8.025   7.382   2.971
11526WAT     H234821   8.020   7.306   3.116
11527WAT      O34822   6.322   1.421   1.142
11527WAT     H134823   6.257   1.364   1.093
11527WAT     H234824   6.409   1.372   1.152
11528WAT      O34825   0.700   8.331   3.601
11528WAT     H134826   0.663   8.347   3.509
11528WAT     H234827   0.679   8.238   3.630
11529WAT      O34828   6.685   6.838   5.794
11529WAT     H134829   6.687   6.932   5.829
11529WAT     H234830   6.601   6.825   5.741
11530WAT      O34831   6.641   7.279   6.726
11530WAT     H134832   6.740   7.295   6.722
11530WAT     H234833   6.593   7.360   6.695
11531WAT      O34834   7.634   9.827   1.742
11531WAT     H134835   7.567   9.757   1.768
11531WAT     H234836   7.724   9.785   1.732
11532WAT      O34837   5.128   6.387   0.191
11532WAT     H134838   5.190   6.455   0.151
11532WAT     H234839   5.175   6.339   0.265
11533WAT      O34840   5.846   0.331   6.874
11533WAT     H134841   5.834   0.309   6.971
11533WAT     H234842   5.763   0.309   6.824
11534WAT      O34843   6.631   7.806   0.786
11534WAT     H134844   6.560   7.773   0.848
11534WAT     H234845   6.709   7.839   0.840
11535WAT      O34846   9.405   8.988   6.800
11535WAT     H134847   9.483   8.925   6.804
11535WAT     H234848   9.337   8.952   6.736
11536WAT      O34849   6.603   9.029   7.047
11536WAT     H134850   6.574   9.118   7.082
11536WAT     H234851   6.599   9.030   6.947
11537WAT      O34852   6.695   1.868   4.543
11537WAT     H134853   6.655   1.866   4.635
11537WAT     H234854   6.637   1.814   4.481
11538WAT      O34855   4.841   2.059   6.365
11538WAT     H134856   4.927   2.111   6.370
11538WAT     H234857   4.821   2.019   6.454
11539WAT      O34858   5.398   0.906   8.985
11539WAT     H134859   5.316   0.889   9.039
11539WAT     H234860   5.439   0.993   9.012
11540WAT      O34861   4.247   8.942   2.515
11540WAT     H134862   4.286   8.933   2.423
11540WAT     H234863   4.155   8.981   2.508
11541WAT      O34864   2.747   5.808   6.603
11541WAT     H134865   2.709   5.892   6.567
11541WAT     H234866   2.837   5.826   6.642
11542WAT      O34867   7.708   7.738   7.648
11542WAT     H134868   7.760   7.799   7.589
11542WAT     H234869   7.736   7.751   7.743
11543WAT      O34870   9.118   3.473   7.102
11543WAT     H134871   9.202   3.528   7.106
11543WAT     H234872   9.047   3.517   7.156
11544WAT      O34873   1.215   5.705   8.438
11544WAT     H134874   1.215   5.625   8.499
11544WAT     H234875   1.288   5.768   8.466
11545WAT      O34876   3.099   1.053   0.655
11545WAT     H134877   3.191   1.080   0.684
11545WAT     H234878   3.104   0.967   0.604
11546WAT      O34879   6.327   8.839   3.483
11546WAT     H134880   6.302   8.791   3.399
11546WAT     H234881   6.248   8.890   3.517
11547WAT      O34882   0.518   2.211   3.684
11547WAT     H134883   0.587   2.141   3.667
11547WAT     H234884   0.436   2.168   3.721
11548WAT      O34885   1.691   5.579   1.543
11548WAT     H134886   1.685   5.676   1.569
11548WAT     H234887   1.784   5.559   1.512
11549WAT      O34888   1.411   1.913   4.589
11549WAT     H134889   1.474   1.978   4.546
11549WAT     H234890   1.463   1.853   4.649
11550WAT      O34891   0.542   9.496   3.486
11550WAT     H134892   0.483   9.543   3.552
11550WAT     H234893   0.602   9.562   3.442
11551WAT      O34894   0.256   4.717   8.070
11551WAT     H134895   0.280   4.620   8.074
11551WAT     H234896   0.320   4.769   8.127
11552WAT      O34897   1.816   8.345   1.226
11552WAT     H134898   1.757   8.426   1.229
11552WAT     H234899   1.768   8.269   1.182
11553WAT      O34900   2.629   2.878   5.145
11553WAT     H134901   2.535   2.907   5.130
11553WAT     H234902   2.662   2.918   5.231
11554WAT      O34903   4.175   8.616   2.363
11554WAT     H134904   4.210   8.705   2.336
11554WAT     H234905   4.140   8.621   2.457
11555WAT      O34906   5.406   6.427   0.826
11555WAT     H134907   5.474   6.417   0.754
11555WAT     H234908   5.373   6.336   0.853
11556WAT      O34909   4.677   6.138   0.171
11556WAT     H134910   4.766   6.182   0.174
11556WAT     H234911   4.649   6.112   0.263
11557WAT      O34912   3.414   7.547   8.700
11557WAT     H134913   3.408   7.451   8.671
11557WAT     H234914   3.376   7.605   8.629
11558WAT      O34915   8.171   8.658   5.934
11558WAT     H134916   8.222   8.705   5.862
11558WAT     H234917   8.224   8.662   6.019
11559WAT      O34918   7.792   4.225   1.103
11559WAT     H134919   7.842   4.303   1.141
11559WAT     H234920   7.719   4.258   1.043
11560WAT      O34921   0.006   7.761   7.558
11560WAT     H134922  -0.039   7.783   7.644
11560WAT     H234923   0.038   7.845   7.514
11561WAT      O34924   5.727   6.444   0.397
11561WAT     H134925   5.628   6.432   0.401
11561WAT     H234926   5.770   6.389   0.469
11562WAT      O34927   4.450   7.802   6.893
11562WAT     H134928   4.541   7.766   6.874
11562WAT     H234929   4.457   7.899   6.918
11563WAT      O34930   1.804   0.827   2.343
11563WAT     H134931   1.759   0.738   2.330
11563WAT     H234932   1.748   0.899   2.302
11564WAT      O34933   5.340   2.187   1.980
11564WAT     H134934   5.386   2.141   2.056
11564WAT     H234935   5.298   2.120   1.920
11565WAT      O34936   9.771   1.692   5.048
11565WAT     H134937   9.834   1.617   5.029
11565WAT     H234938   9.679   1.655   5.063
11566WAT      O34939   1.754   3.104   1.646
11566WAT     H134940   1.765   3.186   1.703
11566WAT     H234941   1.794   3.025   1.692
11567WAT      O34942   5.481   2.951   5.142
11567WAT     H134943   5.387   2.935   5.171
11567WAT     H234944   5.505   3.047   5.158
11568WAT      O34945   8.894   0.791   5.576
11568WAT     H134946   8.887   0.852   5.655
11568WAT     H234947   8.804   0.783   5.533
11569WAT      O34948   9.288   2.730   6.805
11569WAT     H134949   9.312   2.808   6.863
11569WAT     H234950   9.191   2.735   6.782
11570WAT      O34951   2.222   2.360   5.953
11570WAT     H134952   2.183   2.312   6.032
11570WAT     H234953   2.317   2.332   5.941
11571WAT      O34954   5.249   1.283   0.907
11571WAT     H134955   5.228   1.371   0.950
11571WAT     H234956   5.183   1.265   0.833
11572WAT      O34957   5.694   9.538   7.779
11572WAT     H134958   5.621   9.477   7.811
11572WAT     H234959   5.758   9.486   7.723
11573WAT      O34960   2.875   3.276   4.908
11573WAT     H134961   2.864   3.279   5.007
11573WAT     H234962   2.785   3.281   4.864
11574WAT      O34963   8.916   1.610   0.763
11574WAT     H134964   9.003   1.653   0.737
11574WAT     H234965   8.923   1.575   0.856
11575WAT      O34966   4.628   2.416   5.167
11575WAT     H134967   4.612   2.467   5.082
11575WAT     H234968   4.607   2.319   5.151
11576WAT      O34969   7.267   4.659   6.732
11576WAT     H134970   7.293   4.684   6.639
11576WAT     H234971   7.167   4.658   6.740
11577WAT      O34972   1.882   9.672   6.894
11577WAT     H134973   1.953   9.740   6.913
11577WAT     H234974   1.862   9.621   6.977
11578WAT      O34975   0.208   7.217   8.820
11578WAT     H134976   0.262   7.169   8.750
11578WAT     H234977   0.178   7.305   8.784
11579WAT      O34978   7.844   2.041   4.495
11579WAT     H134979   7.899   2.034   4.578
11579WAT     H234980   7.832   1.951   4.455
11580WAT      O34981   2.989   5.187   6.056
11580WAT     H134982   3.008   5.157   5.963
11580WAT     H234983   2.938   5.273   6.054
11581WAT      O34984   7.529   5.283   8.763
11581WAT     H134985   7.580   5.219   8.706
11581WAT     H234986   7.592   5.348   8.805
11582WAT      O34987   7.962   2.693   5.885
11582WAT     H134988   7.904   2.674   5.806
11582WAT     H234989   8.058   2.682   5.860
11583WAT      O34990   5.399   5.771   2.585
11583WAT     H134991   5.323   5.830   2.558
11583WAT     H234992   5.419   5.787   2.682
11584WAT      O34993   8.966   8.542   5.881
11584WAT     H134994   8.903   8.558   5.956
11584WAT     H234995   8.915   8.510   5.801
11585WAT      O34996   2.608   8.929   8.902
11585WAT     H134997   2.545   8.986   8.954
11585WAT     H234998   2.561   8.889   8.823
11586WAT      O34999   7.659   5.569   5.146
11586WAT     H135000   7.725   5.631   5.105
11586WAT     H235001   7.566   5.603   5.130
11587WAT      O35002   6.212   4.103   4.282
11587WAT     H135003   6.174   4.191   4.310
11587WAT     H235004   6.299   4.117   4.236
11588WAT      O35005   1.426   7.949   5.132
11588WAT     H135006   1.436   7.905   5.043
11588WAT     H235007   1.508   7.934   5.187
11589WAT      O35008   5.808   8.644   3.661
11589WAT     H135009   5.722   8.593   3.658
11589WAT     H235010   5.867   8.614   3.586
11590WAT      O35011  -0.001   8.802   2.357
11590WAT     H135012   0.090   8.770   2.329
11590WAT     H235013   0.000   8.902   2.363
11591WAT      O35014   4.418   0.533   6.903
11591WAT     H135015   4.507   0.489   6.906
11591WAT     H235016   4.424   0.619   6.851
11592WAT      O35017   9.412   3.181   1.702
11592WAT     H135018   9.329   3.230   1.674
11592WAT     H235019   9.389   3.110   1.767
11593WAT      O35020   0.052   8.642   2.879
11593WAT     H135021   0.059   8.611   2.784
11593WAT     H235022   0.036   8.741   2.880
11594WAT      O35023   3.778   9.667   9.895
11594WAT     H135024   3.826   9.742   9.851
11594WAT     H235025   3.835   9.585   9.892
11595WAT      O35026   5.792   6.936   1.091
11595WAT     H135027   5.793   6.880   1.174
11595WAT     H235028   5.865   6.906   1.030
11596WAT      O35029   1.289   4.858   1.975
11596WAT     H135030   1.324   4.885   2.065
11596WAT     H235031   1.361   4.808   1.926
11597WAT      O35032   2.687   4.920   8.149
11597WAT     H135033   2.633   4.943   8.230
11597WAT     H235034   2.780   4.957   8.160
11598WAT      O35035   3.010   8.281   3.373
11598WAT     H135036   3.066   8.201   3.353
11598WAT     H235037   2.927   8.278   3.317
11599WAT      O35038   0.177   2.621   1.279
11599WAT     H135039   0.170   2.607   1.180
11599WAT     H235040   0.269   2.597   1.310
11600WAT      O35041   9.136   4.497   3.178
11600WAT     H135042   9.140   4.516   3.080
11600WAT     H235043   9.212   4.542   3.224
11601WAT      O35044   0.632   0.038   4.945
11601WAT     H135045   0.643   0.081   5.034
11601WAT     H235046   0.622   0.108   4.874
11602WAT      O35047   5.917   7.913   6.171
11602WAT     H135048   5.912   8.012   6.180
11602WAT     H235049   5.881   7.885   6.083
11603WAT      O35050   4.293   4.008   5.779
11603WAT     H135051   4.332   4.099   5.794
11603WAT     H235052   4.309   3.980   5.685
11604WAT      O35053   6.663   4.223   9.428
11604WAT     H135054   6.642   4.200   9.523
11604WAT     H235055   6.747   4.277   9.425
11605WAT      O35056   0.414   5.299   8.161
11605WAT     H135057   0.441   5.334   8.071
11605WAT     H235058   0.495   5.284   8.217
11606WAT      O35059   5.443   6.167   9.098
11606WAT     H135060   5.448   6.165   9.197
11606WAT     H235061   5.449   6.074   9.062
11607WAT      O35062   5.012   2.895   9.552
11607WAT     H135063   5.039   2.866   9.644
11607WAT     H235064   5.076   2.965   9.519
11608WAT      O35065   7.360   6.190   2.206
11608WAT     H135066   7.389   6.260   2.271
11608WAT     H235067   7.297   6.230   2.140
11609WAT      O35068   3.532   4.642   5.968
11609WAT     H135069   3.448   4.695   5.971
11609WAT     H235070   3.578   4.646   6.057
11610WAT      O35071   6.008   8.746   0.690
11610WAT     H135072   6.013   8.664   0.634
11610WAT     H235073   6.087   8.750   0.751
11611WAT      O35074   9.124   8.979   8.800
11611WAT     H135075   9.050   8.915   8.816
11611WAT     H235076   9.089   9.073   8.805
11612WAT      O35077   1.079   4.162   3.818
11612WAT     H135078   1.114   4.075   3.853
11612WAT     H235079   1.023   4.206   3.888
11613WAT      O35080   9.507   2.620   5.579
11613WAT     H135081   9.468   2.581   5.663
11613WAT     H235082   9.466   2.576   5.499
11614WAT      O35083   9.777   0.842   1.948
11614WAT     H135084   9.855   0.867   2.006
11614WAT     H235085   9.810   0.807   1.861
11615WAT      O35086   5.335   4.816   8.193
11615WAT     H135087   5.328   4.857   8.284
11615WAT     H235088   5.300   4.881   8.125
11616WAT      O35089   7.797   9.295   5.815
11616WAT     H135090   7.828   9.324   5.905
11616WAT     H235091   7.873   9.253   5.765
11617WAT      O35092   5.409   8.011   6.569
11617WAT     H135093   5.419   8.109   6.553
11617WAT     H235094   5.333   7.976   6.514
11618WAT      O35095   5.480   0.121   1.801
11618WAT     H135096   5.549   0.141   1.870
11618WAT     H235097   5.393   0.097   1.845
11619WAT      O35098   3.143   6.479   0.170
11619WAT     H135099   3.046   6.462   0.152
11619WAT     H235100   3.169   6.439   0.257
11620WAT      O35101   9.758   0.087   8.492
11620WAT     H135102   9.825   0.151   8.529
11620WAT     H235103   9.804   0.016   8.440
11621WAT      O35104   5.978   4.000   4.983
11621WAT     H135105   5.896   3.960   5.023
11621WAT     H235106   6.026   4.053   5.053
11622WAT      O35107   7.310   9.276   1.399
11622WAT     H135108   7.353   9.215   1.465
11622WAT     H235109   7.238   9.226   1.350
11623WAT      O35110   5.770   2.020   1.796
11623WAT     H135111   5.837   2.093   1.810
11623WAT     H235112   5.680   2.060   1.776
11624WAT      O35113   7.454   0.005   2.108
11624WAT     H135114   7.382  -0.032   2.166
11624WAT     H235115   7.446   0.105   2.106
11625WAT      O35116   8.657   8.997   3.412
11625WAT     H135117   8.605   9.047   3.343
11625WAT     H235118   8.663   8.901   3.386
11626WAT      O35119   5.950   6.703   1.618
11626WAT     H135120   5.855   6.733   1.627
11626WAT     H235121   6.010   6.773   1.657
11627WAT      O35122   4.213   5.642   7.885
11627WAT     H135123   4.167   5.725   7.854
11627WAT     H235124   4.191   5.566   7.823
11628WAT      O35125   7.714   5.551   3.050
11628WAT     H135126   7.691   5.512   3.139
11628WAT     H235127   7.668   5.499   2.978
11629WAT      O35128   5.362   5.866   4.451
11629WAT     H135129   5.377   5.886   4.548
11629WAT     H235130   5.449   5.842   4.408
11630WAT      O35131   3.158   1.966   9.106
11630WAT     H135132   3.080   2.019   9.139
11630WAT     H235133   3.231   2.029   9.078
11631WAT      O35134   2.394   1.992   3.635
11631WAT     H135135   2.313   2.008   3.579
11631WAT     H235136   2.475   1.993   3.577
11632WAT      O35137   7.051   6.551   6.428
11632WAT     H135138   7.016   6.644   6.418
11632WAT     H235139   6.977   6.490   6.455
11633WAT      O35140   1.326   1.862   5.286
11633WAT     H135141   1.299   1.920   5.209
11633WAT     H235142   1.405   1.806   5.258
11634WAT      O35143   2.718   9.580   9.409
11634WAT     H135144   2.768   9.615   9.330
11634WAT     H235145   2.778   9.574   9.488
11635WAT      O35146   7.661   4.670   5.391
11635WAT     H135147   7.660   4.714   5.481
11635WAT     H235148   7.733   4.601   5.389
11636WAT      O35149   7.686   2.873   2.574
11636WAT     H135150   7.725   2.786   2.544
11636WAT     H235151   7.755   2.924   2.625
11637WAT      O35152   7.034   5.884   3.424
11637WAT     H135153   7.020   5.983   3.413
11637WAT     H235154   6.945   5.838   3.418
11638WAT      O35155   9.062   5.217   1.160
11638WAT     H135156   9.016   5.298   1.124
11638WAT     H235157   9.108   5.240   1.246
11639WAT      O35158   6.489   1.220   9.802
11639WAT     H135159   6.543   1.151   9.849
11639WAT     H235160   6.543   1.261   9.729
11640WAT      O35161   1.695   5.751   8.699
11640WAT     H135162   1.616   5.712   8.653
11640WAT     H235163   1.775   5.744   8.639
11641WAT      O35164   2.814   0.848   4.811
11641WAT     H135165   2.885   0.788   4.775
11641WAT     H235166   2.857   0.921   4.865
11642WAT      O35167   4.969   5.879   5.026
11642WAT     H135168   4.965   5.862   4.927
11642WAT     H235169   4.946   5.796   5.075
11643WAT      O35170   9.528   6.944   7.530
11643WAT     H135171   9.616   6.931   7.486
11643WAT     H235172   9.462   6.879   7.492
11644WAT      O35173   3.528   3.363   4.694
11644WAT     H135174   3.617   3.334   4.658
11644WAT     H235175   3.507   3.312   4.778
11645WAT      O35176   7.572   1.822   1.212
11645WAT     H135177   7.572   1.802   1.310
11645WAT     H235178   7.532   1.912   1.197
11646WAT      O35179   9.764   8.366   1.012
11646WAT     H135180   9.772   8.266   1.011
11646WAT     H235181   9.854   8.407   0.998
11647WAT      O35182   7.087   6.147   4.238
11647WAT     H135183   7.167   6.204   4.218
11647WAT     H235184   7.019   6.158   4.165
11648WAT      O35185   8.225   3.171   8.719
11648WAT     H135186   8.232   3.257   8.770
11648WAT     H235187   8.144   3.121   8.749
11649WAT      O35188   3.648   2.213   7.579
11649WAT     H135189   3.648   2.165   7.492
11649WAT     H235190   3.696   2.300   7.570
11650WAT      O35191   7.092   0.275   3.208
11650WAT     H135192   7.075   0.183   3.242
11650WAT     H235193   7.006   0.317   3.181
11651WAT      O35194   6.954   9.285   8.334
11651WAT     H135195   6.911   9.216   8.276
11651WAT     H235196   6.972   9.368   8.281
11652WAT      O35197   4.238   9.545   6.134
11652WAT     H135198   4.304   9.566   6.063
11652WAT     H235199   4.286   9.530   6.221
11653WAT      O35200   9.025   1.283   2.736
11653WAT     H135201   9.009   1.286   2.637
11653WAT     H235202   9.123   1.271   2.754
11654WAT      O35203   0.779   4.824   5.828
11654WAT     H135204   0.865   4.802   5.875
11654WAT     H235205   0.798   4.845   5.732
11655WAT      O35206   9.054   5.878   8.703
11655WAT     H135207   9.083   5.972   8.690
11655WAT     H235208   8.956   5.876   8.726
11656WAT      O35209   0.900   6.900   8.078
11656WAT     H135210   0.937   6.813   8.113
11656WAT     H235211   0.871   6.956   8.156
11657WAT      O35212   3.724   3.432   3.286
11657WAT     H135213   3.719   3.352   3.347
11657WAT     H235214   3.820   3.457   3.272
11658WAT      O35215   6.776   2.031   2.121
11658WAT     H135216   6.826   1.979   2.052
11658WAT     H235217   6.835   2.051   2.198
11659WAT      O35218   2.019   6.415   5.518
11659WAT     H135219   1.967   6.397   5.434
11659WAT     H235220   2.036   6.513   5.526
11660WAT      O35221   8.152   0.724   5.172
11660WAT     H135222   8.090   0.711   5.249
11660WAT     H235223   8.118   0.796   5.113
11661WAT      O35224   5.703   6.863   1.577
11661WAT     H135225   5.644   6.818   1.644
11661WAT     H235226   5.696   6.962   1.588
11662WAT      O35227   2.239   6.951   0.648
11662WAT     H135228   2.209   7.042   0.677
11662WAT     H235229   2.271   6.900   0.727
11663WAT      O35230   4.052   0.104   1.913
11663WAT     H135231   4.057   0.204   1.923
11663WAT     H235232   4.017   0.064   1.998
11664WAT      O35233   1.331   3.792   2.288
11664WAT     H135234   1.246   3.793   2.235
11664WAT     H235235   1.333   3.872   2.349
11665WAT      O35236   6.041   8.744   3.469
11665WAT     H135237   6.042   8.832   3.517
11665WAT     H235238   6.081   8.673   3.529
11666WAT      O35239   2.597   4.011   7.218
11666WAT     H135240   2.551   3.942   7.273
11666WAT     H235241   2.598   4.098   7.268
11667WAT      O35242   0.598   7.148   5.297
11667WAT     H135243   0.501   7.158   5.273
11667WAT     H235244   0.611   7.177   5.392
11668WAT      O35245   1.767   6.884   6.890
11668WAT     H135246   1.840   6.914   6.828
11668WAT     H235247   1.752   6.953   6.961
11669WAT      O35248   4.840   1.473   9.272
11669WAT     H135249   4.818   1.490   9.176
11669WAT     H235250   4.938   1.457   9.282
11670WAT      O35251   3.928   4.009   7.213
11670WAT     H135252   3.970   4.077   7.273
11670WAT     H235253   3.999   3.951   7.174
11671WAT      O35254   5.809   3.132   2.072
11671WAT     H135255   5.735   3.071   2.101
11671WAT     H235256   5.779   3.227   2.081
11672WAT      O35257   6.247   4.634   7.447
11672WAT     H135258   6.345   4.612   7.448
11672WAT     H235259   6.205   4.600   7.531
11673WAT      O35260   6.979   1.990   0.964
11673WAT     H135261   6.931   2.036   0.890
11673WAT     H235262   6.954   1.893   0.966
11674WAT      O35263   0.997   8.176   4.781
11674WAT     H135264   0.996   8.208   4.686
11674WAT     H235265   1.043   8.087   4.786
11675WAT      O35266   7.021   2.190   7.725
11675WAT     H135267   6.938   2.140   7.748
11675WAT     H235268   7.018   2.281   7.766
11676WAT      O35269   9.066   8.536   3.643
11676WAT     H135270   8.981   8.501   3.683
11676WAT     H235271   9.135   8.547   3.714
11677WAT      O35272   0.858   3.385   0.749
11677WAT     H135273   0.883   3.481   0.763
11677WAT     H235274   0.814   3.350   0.832
11678WAT      O35275   1.208   0.274   3.736
11678WAT     H135276   1.133   0.339   3.720
11678WAT     H235277   1.179   0.205   3.802
11679WAT      O35278   2.004   5.298   5.717
11679WAT     H135279   2.064   5.273   5.640
11679WAT     H235280   1.913   5.260   5.701
11680WAT      O35281   8.982   5.572   3.663
11680WAT     H135282   9.004   5.614   3.575
11680WAT     H235283   8.915   5.500   3.649
11681WAT      O35284   9.739   7.710   9.668
11681WAT     H135285   9.737   7.794   9.720
11681WAT     H235286   9.768   7.729   9.574
11682WAT      O35287   9.457   0.246   7.585
11682WAT     H135288   9.478   0.235   7.682
11682WAT     H235289   9.357   0.246   7.572
11683WAT      O35290   5.394   5.448   4.287
11683WAT     H135291   5.389   5.538   4.245
11683WAT     H235292   5.456   5.452   4.366
11684WAT      O35293   0.196   0.397   0.663
11684WAT     H135294   0.191   0.491   0.696
11684WAT     H235295   0.106   0.354   0.673
11685WAT      O35296   9.404   9.716   8.420
11685WAT     H135297   9.437   9.794   8.473
11685WAT     H235298   9.308   9.728   8.399
11686WAT      O35299   0.263   2.874   9.759
11686WAT     H135300   0.299   2.800   9.703
11686WAT     H235301   0.215   2.940   9.700
11687WAT      O35302   9.182   4.722   7.877
11687WAT     H135303   9.134   4.637   7.897
11687WAT     H235304   9.126   4.778   7.816
11688WAT      O35305   9.778   9.584   2.033
11688WAT     H135306   9.761   9.523   1.956
11688WAT     H235307   9.710   9.658   2.032
11689WAT      O35308   4.377   9.259   8.208
11689WAT     H135309   4.425   9.200   8.142
11689WAT     H235310   4.435   9.337   8.231
11690WAT      O35311   3.564   3.890   3.991
11690WAT     H135312   3.550   3.947   4.072
11690WAT     H235313   3.617   3.941   3.923
11691WAT      O35314   3.258   5.675   0.854
11691WAT     H135315   3.263   5.689   0.755
11691WAT     H235316   3.183   5.613   0.875
11692WAT      O35317   6.674   3.778   6.606
11692WAT     H135318   6.681   3.805   6.702
11692WAT     H235319   6.647   3.682   6.600
11693WAT      O35320   8.346   2.546   8.118
11693WAT     H135321   8.442   2.537   8.144
11693WAT     H235322   8.287   2.518   8.194
11694WAT      O35323   7.671   5.588   4.772
11694WAT     H135324   7.583   5.634   4.788
11694WAT     H235325   7.672   5.500   4.820
11695WAT      O35326   7.294   0.313   9.698
11695WAT     H135327   7.274   0.300   9.601
11695WAT     H235328   7.297   0.411   9.719
11696WAT      O35329   5.083   2.741   3.480
11696WAT     H135330   5.116   2.813   3.420
11696WAT     H235331   4.983   2.736   3.474
11697WAT      O35332   0.819   9.183   5.877
11697WAT     H135333   0.823   9.266   5.933
11697WAT     H235334   0.726   9.147   5.878
11698WAT      O35335   0.005   6.936   3.532
11698WAT     H135336   0.029   6.890   3.447
11698WAT     H235337  -0.068   6.886   3.577
11699WAT      O35338   3.002   1.783   7.394
11699WAT     H135339   3.000   1.716   7.320
11699WAT     H235340   3.090   1.830   7.395
11700WAT      O35341   0.048   4.762   6.868
11700WAT     H135342  -0.008   4.750   6.950
11700WAT     H235343   0.130   4.705   6.875
11701WAT      O35344   9.260   9.460   7.750
11701WAT     H135345   9.217   9.519   7.681
11701WAT     H235346   9.357   9.481   7.755
11702WAT      O35347   8.532   6.159   1.281
11702WAT     H135348   8.542   6.095   1.357
11702WAT     H235349   8.455   6.220   1.298
11703WAT      O35350   3.015   4.521   7.672
11703WAT     H135351   2.939   4.455   7.673
11703WAT     H235352   2.990   4.599   7.615
11704WAT      O35353   4.125   2.236   4.814
11704WAT     H135354   4.097   2.332   4.810
11704WAT     H235355   4.072   2.188   4.884
11705WAT      O35356   9.320   8.922   3.938
11705WAT     H135357   9.346   8.835   3.896
11705WAT     H235358   9.393   8.988   3.926
11706WAT      O35359   4.500   4.674   1.588
11706WAT     H135360   4.438   4.722   1.650
11706WAT     H235361   4.454   4.658   1.500
11707WAT      O35362   4.791   1.914   6.614
11707WAT     H135363   4.839   1.827   6.621
11707WAT     H235364   4.692   1.899   6.613
11708WAT      O35365   1.632   1.232   2.786
11708WAT     H135366   1.729   1.228   2.807
11708WAT     H235367   1.599   1.141   2.762
11709WAT      O35368   0.657   0.613   9.148
11709WAT     H135369   0.741   0.647   9.192
11709WAT     H235370   0.595   0.578   9.218
11710WAT      O35371   1.225   3.008   0.239
11710WAT     H135372   1.266   2.917   0.230
11710WAT     H235373   1.185   3.018   0.330
11711WAT      O35374   1.449   1.046   5.508
11711WAT     H135375   1.356   1.072   5.535
11711WAT     H235376   1.486   0.983   5.577
11712WAT      O35377   6.549   7.271   8.440
11712WAT     H135378   6.506   7.230   8.360
11712WAT     H235379   6.514   7.228   8.523
11713WAT      O35380   4.029   4.704   4.831
11713WAT     H135381   4.104   4.639   4.819
11713WAT     H235382   4.037   4.748   4.920
11714WAT      O35383   5.350   5.068   8.526
11714WAT     H135384   5.313   4.976   8.510
11714WAT     H235385   5.353   5.117   8.439
11715WAT      O35386   6.589   9.524   0.286
11715WAT     H135387   6.540   9.607   0.258
11715WAT     H235388   6.544   9.444   0.247
11716WAT      O35389   9.507   3.446   2.365
11716WAT     H135390   9.481   3.500   2.445
11716WAT     H235391   9.604   3.420   2.372
11717WAT      O35392   7.409   3.643   4.012
11717WAT     H135393   7.415   3.544   4.021
11717WAT     H235394   7.313   3.670   4.004
11718WAT      O35395   4.200   6.181   2.357
11718WAT     H135396   4.289   6.207   2.394
11718WAT     H235397   4.134   6.173   2.431
11719WAT      O35398   5.774   8.180   9.861
11719WAT     H135399   5.693   8.237   9.850
11719WAT     H235400   5.748   8.084   9.858
11720WAT      O35401   9.044   2.252   3.145
11720WAT     H135402   9.113   2.225   3.213
11720WAT     H235403   9.060   2.201   3.060
11721WAT      O35404   2.826   5.864   5.511
11721WAT     H135405   2.791   5.771   5.507
11721WAT     H235406   2.921   5.863   5.543
11722WAT      O35407   5.959   2.045   4.346
11722WAT     H135408   5.903   1.986   4.288
11722WAT     H235409   5.931   2.034   4.441
11723WAT      O35410   1.946   4.103   1.856
11723WAT     H135411   1.974   4.163   1.931
11723WAT     H235412   1.866   4.142   1.809
11724WAT      O35413   6.893   6.833   3.874
11724WAT     H135414   6.845   6.755   3.834
11724WAT     H235415   6.870   6.841   3.971
11725WAT      O35416   3.280   9.793   2.974
11725WAT     H135417   3.201   9.745   2.938
11725WAT     H235418   3.290   9.881   2.927
11726WAT      O35419   0.866   2.399   8.343
11726WAT     H135420   0.780   2.347   8.341
11726WAT     H235421   0.855   2.479   8.402
11727WAT      O35422   9.065   7.846   5.884
11727WAT     H135423   9.089   7.915   5.815
11727WAT     H235424   8.989   7.790   5.852
11728WAT      O35425   7.232   2.483   7.950
11728WAT     H135426   7.146   2.439   7.921
11728WAT     H235427   7.220   2.523   8.041
11729WAT      O35428   1.127   9.809   4.461
11729WAT     H135429   1.044   9.770   4.500
11729WAT     H235430   1.184   9.736   4.425
11730WAT      O35431   6.011   1.390   0.308
11730WAT     H135432   5.974   1.483   0.306
11730WAT     H235433   6.107   1.391   0.279
11731WAT      O35434   1.837   9.628   8.929
11731WAT     H135435   1.767   9.699   8.918
11731WAT     H235436   1.821   9.577   9.013
11732WAT      O35437   2.770   0.548   4.377
11732WAT     H135438   2.867   0.548   4.402
11732WAT     H235439   2.725   0.470   4.420
11733WAT      O35440   6.188   3.692   5.667
11733WAT     H135441   6.095   3.686   5.632
11733WAT     H235442   6.211   3.788   5.683
11734WAT      O35443   4.207   3.504   7.249
11734WAT     H135444   4.222   3.480   7.345
11734WAT     H235445   4.140   3.441   7.209
11735WAT      O35446   5.966   5.440   3.971
11735WAT     H135447   5.966   5.340   3.968
11735WAT     H235448   5.969   5.476   3.878
11736WAT      O35449   9.286   5.885   1.621
11736WAT     H135450   9.270   5.912   1.526
11736WAT     H235451   9.275   5.786   1.629
11737WAT      O35452   6.395   2.952   1.328
11737WAT     H135453   6.332   2.875   1.323
11737WAT     H235454   6.475   2.927   1.382
11738WAT      O35455   6.227   6.490   7.737
11738WAT     H135456   6.211   6.495   7.835
11738WAT     H235457   6.141   6.473   7.690
11739WAT      O35458   0.645   2.048   5.695
11739WAT     H135459   0.718   2.017   5.634
11739WAT     H235460   0.584   2.110   5.646
11740WAT      O35461   3.082   6.108   7.465
11740WAT     H135462   3.152   6.123   7.396
11740WAT     H235463   2.996   6.083   7.421
11741WAT      O35464   4.862   1.006   0.774
11741WAT     H135465   4.951   0.962   0.759
11741WAT     H235466   4.792   0.935   0.789
11742WAT      O35467   4.877   4.142   6.147
11742WAT     H135468   4.865   4.079   6.070
11742WAT     H235469   4.816   4.116   6.222
11743WAT      O35470   3.172   2.805   3.730
11743WAT     H135471   3.175   2.705   3.728
11743WAT     H235472   3.192   2.841   3.638
11744WAT      O35473   8.203   5.993   4.155
11744WAT     H135474   8.279   6.024   4.098
11744WAT     H235475   8.117   6.024   4.116
11745WAT      O35476   9.465   9.671   2.831
11745WAT     H135477   9.506   9.750   2.877
11745WAT     H235478   9.365   9.678   2.835
11746WAT      O35479   0.364   1.984   5.904
11746WAT     H135480   0.454   1.976   5.945
11746WAT     H235481   0.310   1.903   5.926
11747WAT      O35482   8.140   8.505   4.881
11747WAT     H135483   8.066   8.571   4.896
11747WAT     H235484   8.134   8.432   4.950
11748WAT      O35485   9.865   6.392   1.170
11748WAT     H135486   9.933   6.462   1.193
11748WAT     H235487   9.794   6.389   1.239
11749WAT      O35488   0.113   5.428   9.810
11749WAT     H135489   0.065   5.368   9.746
11749WAT     H235490   0.154   5.504   9.760
11750WAT      O35491   1.279   0.111   3.520
11750WAT     H135492   1.252   0.169   3.596
11750WAT     H235493   1.245   0.018   3.535
11751WAT      O35494   3.445   6.726   8.168
11751WAT     H135495   3.489   6.791   8.105
11751WAT     H235496   3.485   6.636   8.156
11752WAT      O35497   3.510   0.941   1.645
11752WAT     H135498   3.435   0.875   1.648
11752WAT     H235499   3.490   1.017   1.707
11753WAT      O35500   8.423   4.619   6.454
11753WAT     H135501   8.425   4.648   6.550
11753WAT     H235502   8.387   4.526   6.449
11754WAT      O35503   2.229   8.099   8.880
11754WAT     H135504   2.135   8.113   8.909
11754WAT     H235505   2.290   8.156   8.935
11755WAT      O35506   6.514   1.830   0.280
11755WAT     H135507   6.594   1.859   0.227
11755WAT     H235508   6.504   1.731   0.275
11756WAT      O35509   8.262   7.128   7.303
11756WAT     H135510   8.338   7.178   7.262
11756WAT     H235511   8.194   7.107   7.232
11757WAT      O35512   0.187   1.315   0.796
11757WAT     H135513   0.123   1.290   0.723
11757WAT     H235514   0.207   1.413   0.790
11758WAT      O35515   3.099   4.876   6.695
11758WAT     H135516   3.157   4.944   6.740
11758WAT     H235517   3.144   4.786   6.699
11759WAT      O35518   7.444   8.869   2.273
11759WAT     H135519   7.368   8.882   2.336
11759WAT     H235520   7.437   8.934   2.197
11760WAT      O35521   8.964   7.960   7.025
11760WAT     H135522   8.875   7.964   7.070
11760WAT     H235523   8.972   7.873   6.976
11761WAT      O35524   1.635   3.101   4.291
11761WAT     H135525   1.584   3.120   4.207
11761WAT     H235526   1.725   3.065   4.268
11762WAT      O35527   1.279   6.518   0.979
11762WAT     H135528   1.327   6.431   0.971
11762WAT     H235529   1.180   6.502   0.972
11763WAT      O35530   4.205   7.439   0.150
11763WAT     H135531   4.209   7.536   0.174
11763WAT     H235532   4.298   7.403   0.144
11764WAT      O35533   2.543   6.972   5.217
11764WAT     H135534   2.519   6.886   5.263
11764WAT     H235535   2.630   6.962   5.170
11765WAT      O35536   2.071   1.463   0.323
11765WAT     H135537   1.981   1.477   0.364
11765WAT     H235538   2.135   1.431   0.393
11766WAT      O35539   3.211   1.457   7.336
11766WAT     H135540   3.151   1.452   7.416
11766WAT     H235541   3.288   1.518   7.356
11767WAT      O35542   5.746   8.397   0.614
11767WAT     H135543   5.746   8.314   0.670
11767WAT     H235544   5.687   8.465   0.657
11768WAT      O35545   7.007   1.509   4.378
11768WAT     H135546   7.015   1.429   4.319
11768WAT     H235547   6.919   1.553   4.362
11769WAT      O35548   4.832   7.133   4.334
11769WAT     H135549   4.749   7.149   4.281
11769WAT     H235550   4.902   7.200   4.309
11770WAT      O35551   7.696   7.911   6.545
11770WAT     H135552   7.632   7.899   6.469
11770WAT     H235553   7.756   7.989   6.526
11771WAT      O35554   5.870   8.518   6.333
11771WAT     H135555   5.874   8.529   6.234
11771WAT     H235556   5.899   8.602   6.378
11772WAT      O35557   0.405   9.784   1.651
11772WAT     H135558   0.484   9.824   1.698
11772WAT     H235559   0.416   9.796   1.553
11773WAT      O35560   6.895   2.665   3.501
11773WAT     H135561   6.859   2.707   3.584
11773WAT     H235562   6.849   2.578   3.484
11774WAT      O35563   6.953   9.439   7.935
11774WAT     H135564   7.013   9.373   7.890
11774WAT     H235565   6.860   9.430   7.898
11775WAT      O35566   0.053   5.791   9.506
11775WAT     H135567  -0.022   5.847   9.472
11775WAT     H235568   0.017   5.704   9.541
11776WAT      O35569   8.016   0.190   9.529
11776WAT     H135570   8.074   0.133   9.470
11776WAT     H235571   8.000   0.143   9.616
11777WAT      O35572   6.700   4.386   4.378
11777WAT     H135573   6.622   4.427   4.332
11777WAT     H235574   6.676   4.364   4.473
11778WAT      O35575   5.167   6.826   4.310
11778WAT     H135576   5.210   6.784   4.390
11778WAT     H235577   5.167   6.926   4.321
11779WAT      O35578   9.222   2.987   2.717
11779WAT     H135579   9.209   2.888   2.714
11779WAT     H235580   9.171   3.025   2.794
11780WAT      O35581   2.714   2.408   6.133
11780WAT     H135582   2.707   2.508   6.125
11780WAT     H235583   2.747   2.384   6.224
11781WAT      O35584   0.268   5.889   9.642
11781WAT     H135585   0.205   5.868   9.568
11781WAT     H235586   0.216   5.912   9.725
11782WAT      O35587   5.222   8.135   5.446
11782WAT     H135588   5.309   8.177   5.422
11782WAT     H235589   5.231   8.085   5.532
11783WAT      O35590   8.527   2.179   7.827
11783WAT     H135591   8.496   2.091   7.792
11783WAT     H235592   8.618   2.200   7.792
11784WAT      O35593   8.208   7.430   5.855
11784WAT     H135594   8.258   7.435   5.942
11784WAT     H235595   8.114   7.403   5.872
11785WAT      O35596   4.156   3.638   0.743
11785WAT     H135597   4.168   3.727   0.788
11785WAT     H235598   4.179   3.565   0.807
11786WAT      O35599   5.330   5.094   7.290
11786WAT     H135600   5.273   5.027   7.242
11786WAT     H235601   5.389   5.046   7.355
11787WAT      O35602   7.458   0.696   2.023
11787WAT     H135603   7.385   0.760   1.999
11787WAT     H235604   7.546   0.734   1.995
11788WAT      O35605   4.350   2.522   1.288
11788WAT     H135606   4.305   2.587   1.350
11788WAT     H235607   4.306   2.433   1.295
11789WAT      O35608   9.267   3.305   4.291
11789WAT     H135609   9.296   3.285   4.385
11789WAT     H235610   9.236   3.220   4.248
11790WAT      O35611   8.561   0.119   0.572
11790WAT     H135612   8.585   0.036   0.622
11790WAT     H235613   8.461   0.126   0.564
11791WAT      O35614   7.486   3.359   9.411
11791WAT     H135615   7.387   3.349   9.411
11791WAT     H235616   7.527   3.288   9.354
11792WAT      O35617   8.180   1.953   5.045
11792WAT     H135618   8.143   2.041   5.074
11792WAT     H235619   8.139   1.880   5.100
11793WAT      O35620   9.733   4.605   8.457
11793WAT     H135621   9.683   4.684   8.494
11793WAT     H235622   9.763   4.624   8.364
11794WAT      O35623   3.090   0.566   3.110
11794WAT     H135624   3.165   0.607   3.160
11794WAT     H235625   3.119   0.479   3.069
11795WAT      O35626   3.007   8.670   3.322
11795WAT     H135627   3.064   8.617   3.260
11795WAT     H235628   2.931   8.710   3.271
11796WAT      O35629   8.866   1.288   3.243
11796WAT     H135630   8.908   1.323   3.326
11796WAT     H235631   8.851   1.362   3.178
11797WAT      O35632   5.053   3.798   5.552
11797WAT     H135633   4.960   3.763   5.540
11797WAT     H235634   5.071   3.869   5.484
11798WAT      O35635   8.667   3.754   1.315
11798WAT     H135636   8.683   3.778   1.411
11798WAT     H235637   8.586   3.698   1.307
11799WAT      O35638   8.898   2.610   0.773
11799WAT     H135639   8.824   2.606   0.706
11799WAT     H235640   8.963   2.682   0.748
11800WAT      O35641   8.045   3.650   3.717
11800WAT     H135642   8.049   3.631   3.619
11800WAT     H235643   8.013   3.569   3.765
11801WAT      O35644   0.146   5.289   3.939
11801WAT     H135645   0.119   5.290   4.035
11801WAT     H235646   0.179   5.379   3.912
11802WAT      O35647   4.031   0.373   6.191
11802WAT     H135648   4.033   0.313   6.271
11802WAT     H235649   3.979   0.455   6.212
11803WAT      O35650   2.332   2.046   4.224
11803WAT     H135651   2.361   2.103   4.300
11803WAT     H235652   2.330   2.101   4.140
11804WAT      O35653   7.345   1.174   6.347
11804WAT     H135654   7.370   1.210   6.437
11804WAT     H235655   7.426   1.139   6.301
11805WAT      O35656   5.840   0.879   2.270
11805WAT     H135657   5.908   0.812   2.238
11805WAT     H235658   5.751   0.856   2.231
11806WAT      O35659   5.171   9.533   4.109
11806WAT     H135660   5.229   9.492   4.180
11806WAT     H235661   5.227   9.553   4.029
11807WAT      O35662   4.095   9.058   3.677
11807WAT     H135663   4.134   9.147   3.698
11807WAT     H235664   4.165   8.987   3.691
11808WAT      O35665   3.035   6.845   2.870
11808WAT     H135666   3.115   6.816   2.923
11808WAT     H235667   2.957   6.787   2.892
11809WAT      O35668   6.519   1.787   1.283
11809WAT     H135669   6.429   1.761   1.248
11809WAT     H235670   6.571   1.832   1.210
11810WAT      O35671   1.309   4.277   4.518
11810WAT     H135672   1.329   4.241   4.427
11810WAT     H235673   1.212   4.268   4.537
11811WAT      O35674   2.527   5.443   5.577
11811WAT     H135675   2.443   5.477   5.534
11811WAT     H235676   2.600   5.510   5.567
11812WAT      O35677   8.734   6.710   9.657
11812WAT     H135678   8.687   6.793   9.690
11812WAT     H235679   8.672   6.659   9.597
11813WAT      O35680   4.701   5.947   4.853
11813WAT     H135681   4.755   6.027   4.880
11813WAT     H235682   4.729   5.917   4.762
11814WAT      O35683   7.064   3.671   7.747
11814WAT     H135684   7.009   3.590   7.767
11814WAT     H235685   7.137   3.647   7.684
11815WAT      O35686   1.601   5.495   7.659
11815WAT     H135687   1.598   5.583   7.706
11815WAT     H235688   1.562   5.424   7.718
11816WAT      O35689   8.592   5.274   0.302
11816WAT     H135690   8.654   5.321   0.364
11816WAT     H235691   8.502   5.266   0.346
11817WAT      O35692   3.959   5.008   4.058
11817WAT     H135693   3.949   5.107   4.048
11817WAT     H235694   3.923   4.980   4.147
11818WAT      O35695   5.787   8.888   0.088
11818WAT     H135696   5.689   8.868   0.079
11818WAT     H235697   5.799   8.985   0.110
11819WAT      O35698   9.454   7.453   1.087
11819WAT     H135699   9.411   7.539   1.114
11819WAT     H235700   9.487   7.460   0.993
11820WAT      O35701   2.037   5.481   4.648
11820WAT     H135702   2.044   5.562   4.707
11820WAT     H235703   1.955   5.487   4.593
11821WAT      O35704   1.185   6.575   9.638
11821WAT     H135705   1.218   6.651   9.583
11821WAT     H235706   1.217   6.488   9.599
11822WAT      O35707   9.283   2.645   9.473
11822WAT     H135708   9.293   2.733   9.520
11822WAT     H235709   9.263   2.662   9.376
11823WAT      O35710   9.053   3.043   9.682
11823WAT     H135711   8.986   3.035   9.755
11823WAT     H235712   9.066   3.139   9.658
11824WAT      O35713   2.147   0.699   4.327
11824WAT     H135714   2.093   0.744   4.398
11824WAT     H235715   2.219   0.762   4.296
11825WAT      O35716   7.626   3.223   3.173
11825WAT     H135717   7.653   3.318   3.188
11825WAT     H235718   7.535   3.220   3.132
11826WAT      O35719   5.657   8.964   1.198
11826WAT     H135720   5.703   8.883   1.235
11826WAT     H235721   5.675   9.042   1.258
11827WAT      O35722   8.716   3.184   1.264
11827WAT     H135723   8.814   3.166   1.254
11827WAT     H235724   8.667   3.150   1.183
11828WAT      O35725   2.475   4.027   7.659
11828WAT     H135726   2.402   4.056   7.720
11828WAT     H235727   2.463   3.930   7.636
11829WAT      O35728   5.183   9.209   8.845
11829WAT     H135729   5.229   9.240   8.928
11829WAT     H235730   5.136   9.123   8.864
11830WAT      O35731   7.841   0.293   0.874
11830WAT     H135732   7.863   0.318   0.968
11830WAT     H235733   7.891   0.352   0.811
11831WAT      O35734   6.442   0.978   1.781
11831WAT     H135735   6.374   1.051   1.780
11831WAT     H235736   6.408   0.900   1.728
11832WAT      O35737   9.511   9.415   0.600
11832WAT     H135738   9.526   9.349   0.674
11832WAT     H235739   9.415   9.411   0.571
11833WAT      O35740   6.787   1.330   2.066
11833WAT     H135741   6.844   1.412   2.052
11833WAT     H235742   6.829   1.252   2.020
11834WAT      O35743   0.149   2.018   0.826
11834WAT     H135744   0.123   1.996   0.731
11834WAT     H235745   0.168   2.116   0.832
11835WAT      O35746   9.442   6.260   9.046
11835WAT     H135747   9.463   6.319   8.968
11835WAT     H235748   9.527   6.227   9.087
11836WAT      O35749   1.827   4.012   0.264
11836WAT     H135750   1.844   3.922   0.303
11836WAT     H235751   1.744   4.010   0.208
11837WAT      O35752   0.691   0.929   9.367
11837WAT     H135753   0.694   0.972   9.457
11837WAT     H235754   0.782   0.898   9.341
11838WAT      O35755   2.447   2.034   6.055
11838WAT     H135756   2.392   2.027   5.972
11838WAT     H235757   2.529   1.977   6.046
11839WAT      O35758   2.126   7.668   5.620
11839WAT     H135759   2.132   7.718   5.533
11839WAT     H235760   2.031   7.660   5.647
11840WAT      O35761   6.981   9.242   1.961
11840WAT     H135762   6.900   9.251   1.903
11840WAT     H235763   6.958   9.268   2.055
11841WAT      O35764   4.285   2.777   6.809
11841WAT     H135765   4.270   2.683   6.779
11841WAT     H235766   4.347   2.823   6.745
11842WAT      O35767   2.822   6.207   7.204
11842WAT     H135768   2.801   6.193   7.107
11842WAT     H235769   2.851   6.121   7.244
11843WAT      O35770   1.364   1.167   9.722
11843WAT     H135771   1.439   1.101   9.714
11843WAT     H235772   1.391   1.253   9.680
11844WAT      O35773   4.880   3.246   7.040
11844WAT     H135774   4.978   3.247   7.059
11844WAT     H235775   4.839   3.164   7.081
11845WAT      O35776   1.852   2.540   7.891
11845WAT     H135777   1.778   2.608   7.887
11845WAT     H235778   1.818   2.457   7.936
11846WAT      O35779   5.594   6.075   0.304
11846WAT     H135780   5.660   6.051   0.376
11846WAT     H235781   5.596   6.005   0.233
11847WAT      O35782   7.522   0.798   1.553
11847WAT     H135783   7.446   0.809   1.617
11847WAT     H235784   7.497   0.732   1.483
11848WAT      O35785   2.317   1.133   6.429
11848WAT     H135786   2.348   1.215   6.381
11848WAT     H235787   2.245   1.088   6.377
11849WAT      O35788   6.541   0.616   5.561
11849WAT     H135789   6.590   0.627   5.648
11849WAT     H235790   6.450   0.577   5.579
11850WAT      O35791   7.806   6.479   8.813
11850WAT     H135792   7.891   6.467   8.762
11850WAT     H235793   7.803   6.570   8.854
11851WAT      O35794   0.636   3.807   2.753
11851WAT     H135795   0.665   3.902   2.759
11851WAT     H235796   0.557   3.800   2.692
11852WAT      O35797   0.195   8.273   9.144
11852WAT     H135798   0.232   8.363   9.118
11852WAT     H235799   0.270   8.211   9.163
11853WAT      O35800   2.399   9.000   4.409
11853WAT     H135801   2.337   9.002   4.331
11853WAT     H235802   2.425   8.906   4.429
11854WAT      O35803   7.621   0.500   1.126
11854WAT     H135804   7.659   0.490   1.034
11854WAT     H235805   7.640   0.417   1.179
11855WAT      O35806   5.484   8.394   1.258
11855WAT     H135807   5.440   8.459   1.196
11855WAT     H235808   5.519   8.316   1.205
11856WAT      O35809   4.309   6.343   9.254
11856WAT     H135810   4.350   6.357   9.164
11856WAT     H235811   4.229   6.401   9.264
11857WAT      O35812   5.744   3.572   0.402
11857WAT     H135813   5.689   3.595   0.322
11857WAT     H235814   5.684   3.557   0.481
11858WAT      O35815   3.842   2.083   4.298
11858WAT     H135816   3.768   2.070   4.364
11858WAT     H235817   3.807   2.071   4.206
11859WAT      O35818   0.494   5.347   1.783
11859WAT     H135819   0.480   5.268   1.723
11859WAT     H235820   0.417   5.411   1.773
11860WAT      O35821   3.851   1.603   9.493
11860WAT     H135822   3.808   1.682   9.450
11860WAT     H235823   3.796   1.574   9.572
11861WAT      O35824   4.668   0.708   4.150
11861WAT     H135825   4.636   0.782   4.210
11861WAT     H235826   4.720   0.642   4.203
11862WAT      O35827   7.044   6.896   6.654
11862WAT     H135828   7.127   6.870   6.704
11862WAT     H235829   7.054   6.989   6.618
11863WAT      O35830   6.587   6.403   4.958
11863WAT     H135831   6.678   6.367   4.934
11863WAT     H235832   6.560   6.472   4.891
11864WAT      O35833   8.338   3.241   0.810
11864WAT     H135834   8.278   3.308   0.766
11864WAT     H235835   8.407   3.288   0.864
11865WAT      O35836   3.998   3.781   6.039
11865WAT     H135837   4.007   3.708   5.971
11865WAT     H235838   4.001   3.870   5.993
11866WAT      O35839   3.281   8.003   4.290
11866WAT     H135840   3.328   8.051   4.365
11866WAT     H235841   3.186   7.986   4.317
11867WAT      O35842   4.830   1.431   4.053
11867WAT     H135843   4.791   1.404   4.140
11867WAT     H235844   4.920   1.473   4.068
11868WAT      O35845   9.030   8.967   9.584
11868WAT     H135846   8.947   9.020   9.601
11868WAT     H235847   9.036   8.945   9.486
11869WAT      O35848   7.171   2.655   0.274
11869WAT     H135849   7.104   2.645   0.348
11869WAT     H235850   7.231   2.575   0.272
11870WAT      O35851   9.273   5.573   3.061
11870WAT     H135852   9.320   5.661   3.069
11870WAT     H235853   9.229   5.568   2.971
11871WAT      O35854   2.711   1.563   5.719
11871WAT     H135855   2.626   1.610   5.742
11871WAT     H235856   2.696   1.501   5.642
11872WAT      O35857   1.812   7.063   8.958
11872WAT     H135858   1.820   7.030   8.864
11872WAT     H235859   1.901   7.094   8.991
11873WAT      O35860   2.218   9.595   0.518
11873WAT     H135861   2.144   9.546   0.472
11873WAT     H235862   2.297   9.534   0.526
11874WAT      O35863   4.705   8.821   8.306
11874WAT     H135864   4.672   8.913   8.324
11874WAT     H235865   4.718   8.772   8.392
11875WAT      O35866   3.451   6.470   7.204
11875WAT     H135867   3.470   6.491   7.108
11875WAT     H235868   3.386   6.394   7.209
11876WAT      O35869   1.742   7.057   8.146
11876WAT     H135870   1.760   7.004   8.229
11876WAT     H235871   1.827   7.099   8.115
11877WAT      O35872   5.384   0.613   2.696
11877WAT     H135873   5.481   0.638   2.700
11877WAT     H235874   5.354   0.610   2.601
11878WAT      O35875   5.060   8.814   3.372
11878WAT     H135876   5.130   8.873   3.332
11878WAT     H235877   5.089   8.786   3.463
11879WAT      O35878   7.326   2.251   2.995
11879WAT     H135879   7.346   2.287   3.086
11879WAT     H235880   7.355   2.155   2.990
11880WAT      O35881   2.672   7.497   6.939
11880WAT     H135882   2.606   7.464   7.007
11880WAT     H235883   2.729   7.569   6.979
11881WAT      O35884   0.718   2.720   9.299
11881WAT     H135885   0.740   2.640   9.355
11881WAT     H235886   0.647   2.775   9.345
11882WAT      O35887   9.734   5.874   4.396
11882WAT     H135888   9.822   5.920   4.406
11882WAT     H235889   9.748   5.783   4.358
11883WAT      O35890   7.818   1.638   1.598
11883WAT     H135891   7.816   1.555   1.655
11883WAT     H235892   7.903   1.640   1.545
11884WAT      O35893   5.192   4.145   5.634
11884WAT     H135894   5.192   4.086   5.553
11884WAT     H235895   5.103   4.189   5.643
11885WAT      O35896   6.041   7.100   3.592
11885WAT     H135897   5.942   7.110   3.583
11885WAT     H235898   6.076   7.169   3.655
11886WAT      O35899   1.164   2.991   6.694
11886WAT     H135900   1.223   3.018   6.771
11886WAT     H235901   1.214   2.930   6.633
11887WAT      O35902   1.533   3.499   8.156
11887WAT     H135903   1.513   3.596   8.168
11887WAT     H235904   1.489   3.446   8.228
11888WAT      O35905   6.469   9.068   3.372
11888WAT     H135906   6.409   9.142   3.402
11888WAT     H235907   6.439   8.982   3.413
11889WAT      O35908   9.746   8.100   3.122
11889WAT     H135909   9.765   8.020   3.179
11889WAT     H235910   9.682   8.075   3.049
11890WAT      O35911   5.335   0.991   0.598
11890WAT     H135912   5.375   0.932   0.528
11890WAT     H235913   5.245   1.022   0.569
11891WAT      O35914   4.824   4.497   8.885
11891WAT     H135915   4.735   4.535   8.910
11891WAT     H235916   4.851   4.532   8.795
11892WAT      O35917   4.622   8.497   0.070
11892WAT     H135918   4.592   8.402   0.069
11892WAT     H235919   4.658   8.521  -0.020
11893WAT      O35920   4.528   9.120   0.326
11893WAT     H135921   4.493   9.210   0.351
11893WAT     H235922   4.535   9.113   0.227
11894WAT      O35923   8.154   7.997   6.550
11894WAT     H135924   8.158   7.903   6.583
11894WAT     H235925   8.087   8.048   6.604
11895WAT      O35926   7.179   1.311   1.849
11895WAT     H135927   7.176   1.344   1.754
11895WAT     H235928   7.274   1.305   1.879
11896WAT      O35929   4.804   7.832   4.668
11896WAT     H135930   4.865   7.890   4.721
11896WAT     H235931   4.809   7.738   4.701
11897WAT      O35932   0.246   8.757   2.309
11897WAT     H135933   0.261   8.696   2.386
11897WAT     H235934   0.320   8.746   2.242
11898WAT      O35935   9.100   5.777   2.081
11898WAT     H135936   9.010   5.756   2.044
11898WAT     H235937   9.135   5.861   2.039
11899WAT      O35938   1.472   7.933   6.823
11899WAT     H135939   1.512   8.009   6.772
11899WAT     H235940   1.374   7.949   6.836
11900WAT      O35941   8.198   8.976   1.263
11900WAT     H135942   8.231   8.954   1.172
11900WAT     H235943   8.276   8.984   1.326
11901WAT      O35944   2.058   6.229   7.482
11901WAT     H135945   2.121   6.193   7.552
11901WAT     H235946   1.967   6.240   7.521
11902WAT      O35947   4.712   3.508   7.861
11902WAT     H135948   4.808   3.536   7.854
11902WAT     H235949   4.691   3.484   7.956
11903WAT      O35950   8.656   8.576   6.719
11903WAT     H135951   8.609   8.665   6.715
11903WAT     H235952   8.599   8.506   6.676
11904WAT      O35953   8.358   6.971   1.083
11904WAT     H135954   8.432   7.032   1.057
11904WAT     H235955   8.273   7.023   1.094
11905WAT      O35956   2.335   3.486   6.366
11905WAT     H135957   2.322   3.559   6.298
11905WAT     H235958   2.328   3.525   6.458
11906WAT      O35959   3.284   4.180   7.451
11906WAT     H135960   3.333   4.098   7.421
11906WAT     H235961   3.296   4.253   7.383
11907WAT      O35962   0.783   1.933   2.461
11907WAT     H135963   0.692   1.893   2.452
11907WAT     H235964   0.833   1.886   2.533
11908WAT      O35965   4.508   3.406   0.963
11908WAT     H135966   4.583   3.361   1.012
11908WAT     H235967   4.545   3.461   0.889
11909WAT      O35968   2.732   3.144   0.977
11909WAT     H135969   2.647   3.091   0.982
11909WAT     H235970   2.809   3.081   0.971
11910WAT      O35971   2.220   3.558   8.769
11910WAT     H135972   2.149   3.505   8.817
11910WAT     H235973   2.298   3.571   8.830
11911WAT      O35974   1.773   5.746   4.662
11911WAT     H135975   1.809   5.808   4.732
11911WAT     H235976   1.745   5.660   4.705
11912WAT      O35977   9.573   2.893   5.574
11912WAT     H135978   9.506   2.948   5.526
11912WAT     H235979   9.546   2.796   5.572
11913WAT      O35980   4.725   8.167   6.821
11913WAT     H135981   4.798   8.107   6.787
11913WAT     H235982   4.745   8.261   6.795
11914WAT      O35983   6.297   9.717   9.259
11914WAT     H135984   6.288   9.638   9.198
11914WAT     H235985   6.394   9.742   9.267
11915WAT      O35986   5.809   1.621   3.012
11915WAT     H135987   5.892   1.658   2.970
11915WAT     H235988   5.770   1.551   2.952
11916WAT      O35989   6.073   7.428   1.881
11916WAT     H135990   6.128   7.511   1.896
11916WAT     H235991   5.980   7.444   1.913
11917WAT      O35992   7.681   5.653   3.907
11917WAT     H135993   7.583   5.632   3.901
11917WAT     H235994   7.733   5.569   3.917
11918WAT      O35995   9.709   3.132   1.948
11918WAT     H135996   9.632   3.195   1.962
11918WAT     H235997   9.673   3.040   1.930
11919WAT      O35998   7.355   4.606   2.743
11919WAT     H135999   7.414   4.645   2.814
11919WAT     H236000   7.261   4.639   2.756
11920WAT      O36001   9.344   5.256   8.995
11920WAT     H136002   9.349   5.209   8.907
11920WAT     H236003   9.283   5.335   8.987
11921WAT      O36004   5.714   2.800   3.482
11921WAT     H136005   5.730   2.868   3.554
11921WAT     H236006   5.765   2.826   3.400
11922WAT      O36007   9.679   4.271   2.303
11922WAT     H136008   9.724   4.360   2.292
11922WAT     H236009   9.720   4.205   2.240
11923WAT      O36010   7.036   2.310   4.858
11923WAT     H136011   7.029   2.298   4.957
11923WAT     H236012   6.954   2.358   4.824
11924WAT      O36013   9.496   7.874   7.441
11924WAT     H136014   9.543   7.958   7.416
11924WAT     H236015   9.425   7.893   7.508
11925WAT      O36016   2.459   8.713   0.012
11925WAT     H136017   2.463   8.648  -0.064
11925WAT     H236018   2.369   8.709   0.055
11926WAT      O36019   9.477   0.343   0.629
11926WAT     H136020   9.470   0.243   0.627
11926WAT     H236021   9.386   0.382   0.637
11927WAT      O36022   3.866   5.898   4.475
11927WAT     H136023   3.813   5.814   4.485
11927WAT     H236024   3.939   5.884   4.409
11928WAT      O36025   5.838   8.342   4.838
11928WAT     H136026   5.927   8.304   4.860
11928WAT     H236027   5.841   8.442   4.846
11929WAT      O36028   1.921   5.287   0.579
11929WAT     H136029   1.954   5.317   0.489
11929WAT     H236030   1.869   5.201   0.568
11930WAT      O36031   8.808   4.217   5.246
11930WAT     H136032   8.737   4.153   5.216
11930WAT     H236033   8.817   4.290   5.178
11931WAT      O36034   9.702   0.951   5.074
11931WAT     H136035   9.740   0.915   4.988
11931WAT     H236036   9.654   0.877   5.122
11932WAT      O36037   2.311   6.931   2.365
11932WAT     H136038   2.404   6.916   2.399
11932WAT     H236039   2.259   6.847   2.372
11933WAT      O36040   0.328   5.575   7.886
11933WAT     H136041   0.341   5.612   7.978
11933WAT     H236042   0.260   5.630   7.838
11934WAT      O36043   4.462   8.066   9.244
11934WAT     H136044   4.483   8.163   9.252
11934WAT     H236045   4.412   8.036   9.325
11935WAT      O36046   4.344   2.587   3.990
11935WAT     H136047   4.247   2.600   3.971
11935WAT     H236048   4.385   2.532   3.918
11936WAT      O36049   2.598   5.120   5.407
11936WAT     H136050   2.546   5.171   5.475
11936WAT     H236051   2.690   5.159   5.399
11937WAT      O36052   3.515   7.419   7.039
11937WAT     H136053   3.538   7.325   7.014
11937WAT     H236054   3.597   7.464   7.075
11938WAT      O36055   3.469   3.618   9.735
11938WAT     H136056   3.549   3.654   9.784
11938WAT     H236057   3.386   3.642   9.786
11939WAT      O36058   8.459   0.814   8.979
11939WAT     H136059   8.384   0.768   8.932
11939WAT     H236060   8.424   0.894   9.028
11940WAT      O36061   9.154   3.470   1.991
11940WAT     H136062   9.084   3.420   1.940
11940WAT     H236063   9.161   3.433   2.083
11941WAT      O36064   3.425   4.779   0.272
11941WAT     H136065   3.340   4.827   0.250
11941WAT     H236066   3.405   4.700   0.330
11942WAT      O36067   6.017   3.851   8.810
11942WAT     H136068   5.935   3.859   8.866
11942WAT     H236069   5.992   3.856   8.713
11943WAT      O36070   4.989   8.675   9.674
11943WAT     H136071   5.046   8.721   9.606
11943WAT     H236072   5.042   8.603   9.719
11944WAT      O36073   0.607   8.938   9.531
11944WAT     H136074   0.697   8.896   9.542
11944WAT     H236075   0.542   8.870   9.499
11945WAT      O36076   9.489   4.770   7.467
11945WAT     H136077   9.511   4.790   7.371
11945WAT     H236078   9.482   4.671   7.479
11946WAT      O36079   7.937   7.865   7.492
11946WAT     H136080   8.032   7.845   7.516
11946WAT     H236081   7.933   7.896   7.397
11947WAT      O36082   8.748   0.745   0.040
11947WAT     H136083   8.800   0.782   0.118
11947WAT     H236084   8.733   0.648   0.054
11948WAT      O36085   5.202   3.736   6.926
11948WAT     H136086   5.103   3.723   6.919
11948WAT     H236087   5.223   3.785   7.011
11949WAT      O36088   4.263   6.448   5.874
11949WAT     H136089   4.260   6.490   5.783
11949WAT     H236090   4.350   6.400   5.886
11950WAT      O36091   2.739   4.733   1.405
11950WAT     H136092   2.830   4.706   1.373
11950WAT     H236093   2.745   4.768   1.498
11951WAT      O36094   6.189   2.196   0.873
11951WAT     H136095   6.156   2.182   0.967
11951WAT     H236096   6.143   2.130   0.812
11952WAT      O36097   5.105   6.887   0.628
11952WAT     H136098   5.104   6.888   0.728
11952WAT     H236099   5.129   6.977   0.594
11953WAT      O36100   3.045   6.124   2.336
11953WAT     H136101   3.107   6.047   2.319
11953WAT     H236102   2.992   6.106   2.419
11954WAT      O36103   2.791   9.218   3.495
11954WAT     H136104   2.863   9.273   3.537
11954WAT     H236105   2.824   9.124   3.485
11955WAT      O36106   8.016   6.342   7.412
11955WAT     H136107   8.064   6.428   7.432
11955WAT     H236108   7.941   6.360   7.349
11956WAT      O36109   8.846   6.060   5.151
11956WAT     H136110   8.753   6.092   5.132
11956WAT     H236111   8.885   6.117   5.224
11957WAT      O36112   3.335   7.673   0.845
11957WAT     H136113   3.418   7.696   0.794
11957WAT     H236114   3.330   7.574   0.857
11958WAT      O36115   7.548   8.908   3.527
11958WAT     H136116   7.479   8.976   3.507
11958WAT     H236117   7.638   8.941   3.496
11959WAT      O36118   3.975   8.545   6.452
11959WAT     H136119   3.884   8.510   6.431
11959WAT     H236120   3.970   8.644   6.466
11960WAT      O36121   8.795   6.919   7.079
11960WAT     H136122   8.857   6.910   7.001
11960WAT     H236123   8.833   6.983   7.146
11961WAT      O36124   8.783   2.881   1.103
11961WAT     H136125   8.767   2.803   1.042
11961WAT     H236126   8.781   2.850   1.198
11962WAT      O36127   9.036   0.048   7.123
11962WAT     H136128   9.069   0.141   7.142
11962WAT     H236129   9.009   0.041   7.027
11963WAT      O36130   9.104   2.105   2.902
11963WAT     H136131   9.036   2.098   2.829
11963WAT     H236132   9.151   2.017   2.911
11964WAT      O36133   5.336   4.796   8.520
11964WAT     H136134   5.314   4.765   8.612
11964WAT     H236135   5.421   4.752   8.489
11965WAT      O36136   7.167   3.481   5.421
11965WAT     H136137   7.228   3.557   5.401
11965WAT     H236138   7.073   3.514   5.425
11966WAT      O36139   4.282   0.013   3.202
11966WAT     H136140   4.312   0.097   3.155
11966WAT     H236141   4.257   0.035   3.296
11967WAT      O36142   3.654   5.090   8.329
11967WAT     H136143   3.630   5.172   8.277
11967WAT     H236144   3.597   5.013   8.299
11968WAT      O36145   9.684   1.980   7.038
11968WAT     H136146   9.591   1.947   7.021
11968WAT     H236147   9.734   1.987   6.952
11969WAT      O36148   4.991   3.999   1.840
11969WAT     H136149   4.948   4.080   1.879
11969WAT     H236150   4.956   3.917   1.886
11970WAT      O36151   6.414   2.380   5.901
11970WAT     H136152   6.431   2.462   5.846
11970WAT     H236153   6.429   2.400   5.997
11971WAT      O36154   5.780   1.206   5.919
11971WAT     H136155   5.746   1.169   6.006
11971WAT     H236156   5.728   1.289   5.896
11972WAT      O36157   7.706   2.707   4.015
11972WAT     H136158   7.699   2.638   3.943
11972WAT     H236159   7.698   2.799   3.974
11973WAT      O36160   8.391   5.842   0.059
11973WAT     H136161   8.402   5.745   0.081
11973WAT     H236162   8.390   5.855  -0.040
11974WAT      O36163   6.348   5.446   6.954
11974WAT     H136164   6.310   5.518   6.897
11974WAT     H236165   6.385   5.373   6.896
11975WAT      O36166   7.810   9.025   8.073
11975WAT     H136167   7.844   9.100   8.131
11975WAT     H236168   7.846   8.938   8.108
11976WAT      O36169   8.317   9.140   8.555
11976WAT     H136170   8.386   9.068   8.556
11976WAT     H236171   8.362   9.228   8.539
11977WAT      O36172   6.211   7.704   3.635
11977WAT     H136173   6.270   7.781   3.611
11977WAT     H236174   6.231   7.627   3.574
11978WAT      O36175   4.547   0.303   2.940
11978WAT     H136176   4.632   0.252   2.924
11978WAT     H236177   4.528   0.362   2.861
11979WAT      O36178   6.383   0.426   8.707
11979WAT     H136179   6.358   0.462   8.797
11979WAT     H236180   6.378   0.498   8.639
11980WAT      O36181   6.154   5.758   7.406
11980WAT     H136182   6.080   5.825   7.414
11980WAT     H236183   6.151   5.714   7.317
11981WAT      O36184   7.698   8.731   5.528
11981WAT     H136185   7.764   8.675   5.479
11981WAT     H236186   7.636   8.774   5.462
11982WAT      O36187   3.967   2.957   5.526
11982WAT     H136188   3.974   3.024   5.600
11982WAT     H236189   3.870   2.937   5.508
11983WAT      O36190   6.968   0.023   7.058
11983WAT     H136191   6.983  -0.005   7.153
11983WAT     H236192   6.913  -0.046   7.012
11984WAT      O36193   7.276   2.780   8.977
11984WAT     H136194   7.288   2.768   9.075
11984WAT     H236195   7.236   2.870   8.959
11985WAT      O36196   9.126   2.418   9.551
11985WAT     H136197   9.186   2.490   9.515
11985WAT     H236198   9.064   2.458   9.618
11986WAT      O36199   2.228   3.573   7.867
11986WAT     H136200   2.138   3.592   7.906
11986WAT     H236201   2.298   3.587   7.937
11987WAT      O36202   7.474   2.194   1.412
11987WAT     H136203   7.383   2.221   1.380
11987WAT     H236204   7.536   2.273   1.408
11988WAT      O36205   6.235   1.565   9.310
11988WAT     H136206   6.192   1.655   9.308
11988WAT     H236207   6.334   1.575   9.310
11989WAT      O36208   0.741   0.731   4.778
11989WAT     H136209   0.753   0.821   4.738
11989WAT     H236210   0.778   0.662   4.716
11990WAT      O36211   5.926   7.900   3.482
11990WAT     H136212   5.830   7.903   3.456
11990WAT     H236213   5.975   7.838   3.421
11991WAT      O36214   5.197   0.181   2.575
11991WAT     H136215   5.141   0.122   2.517
11991WAT     H236216   5.144   0.209   2.655
11992WAT      O36217   5.211   9.793   6.133
11992WAT     H136218   5.187   9.784   6.036
11992WAT     H236219   5.310   9.787   6.144
11993WAT      O36220   8.578   9.178   8.738
11993WAT     H136221   8.619   9.204   8.651
11993WAT     H236222   8.583   9.078   8.748
11994WAT      O36223   4.202   1.674   5.046
11994WAT     H136224   4.241   1.766   5.054
11994WAT     H236225   4.119   1.678   4.991
11995WAT      O36226   9.241   6.880   6.182
11995WAT     H136227   9.320   6.924   6.140
11995WAT     H236228   9.266   6.789   6.215
11996WAT      O36229   6.283   4.846   2.683
11996WAT     H136230   6.223   4.821   2.607
11996WAT     H236231   6.309   4.764   2.734
11997WAT      O36232   2.083   5.304   4.448
11997WAT     H136233   2.071   5.365   4.526
11997WAT     H236234   2.065   5.355   4.363
11998WAT      O36235   3.416   3.794   2.114
11998WAT     H136236   3.326   3.808   2.074
11998WAT     H236237   3.474   3.874   2.096
11999WAT      O36238   6.059   2.637   1.699
11999WAT     H136239   6.096   2.721   1.738
11999WAT     H236240   6.131   2.568   1.692
12000WAT      O36241   7.023   3.558   6.485
12000WAT     H136242   7.091   3.485   6.490
12000WAT     H236243   7.042   3.617   6.407
12001WAT      O36244   8.112   5.112   7.636
12001WAT     H136245   8.164   5.042   7.684
12001WAT     H236246   8.118   5.096   7.537
12002WAT      O36247   5.363   0.660   4.007
12002WAT     H136248   5.362   0.732   3.937
12002WAT     H236249   5.457   0.632   4.025
12003WAT      O36250   8.032   7.855   2.971
12003WAT     H136251   8.065   7.948   2.988
12003WAT     H236252   7.981   7.853   2.885
12004WAT      O36253   5.201   1.643   9.276
12004WAT     H136254   5.151   1.556   9.277
12004WAT     H236255   5.251   1.651   9.190
12005WAT      O36256   8.252   5.197   9.081
12005WAT     H136257   8.269   5.257   9.159
12005WAT     H236258   8.323   5.213   9.011
12006WAT      O36259   7.412   0.837   5.299
12006WAT     H136260   7.371   0.760   5.251
12006WAT     H236261   7.340   0.895   5.338
12007WAT      O36262   3.678   0.610   7.860
12007WAT     H136263   3.763   0.596   7.910
12007WAT     H236264   3.678   0.554   7.777
12008WAT      O36265   6.617   0.325   6.263
12008WAT     H136266   6.575   0.288   6.346
12008WAT     H236267   6.546   0.363   6.204
12009WAT      O36268   2.804   4.641   8.320
12009WAT     H136269   2.716   4.663   8.362
12009WAT     H236270   2.821   4.703   8.244
12010WAT      O36271   6.180   6.910   9.794
12010WAT     H136272   6.259   6.882   9.848
12010WAT     H236273   6.140   6.830   9.749
12011WAT      O36274   7.517   2.120   5.012
12011WAT     H136275   7.504   2.127   4.913
12011WAT     H236276   7.557   2.205   5.046
12012WAT      O36277   5.172   5.660   7.812
12012WAT     H136278   5.186   5.753   7.778
12012WAT     H236279   5.216   5.651   7.901
12013WAT      O36280   1.021   4.486   9.315
12013WAT     H136281   1.050   4.547   9.241
12013WAT     H236282   1.090   4.415   9.328
12014WAT      O36283   4.466   5.922   8.715
12014WAT     H136284   4.467   5.897   8.812
12014WAT     H236285   4.537   5.990   8.698
12015WAT      O36286   7.250   6.760   9.851
12015WAT     H136287   7.273   6.856   9.869
12015WAT     H236288   7.181   6.729   9.917
12016WAT      O36289   4.183   0.294   2.659
12016WAT     H136290   4.118   0.326   2.728
12016WAT     H236291   4.137   0.291   2.570
12017WAT      O36292   5.480   1.598   1.068
12017WAT     H136293   5.553   1.622   1.131
12017WAT     H236294   5.477   1.664   0.993
12018WAT      O36295   2.792   7.815   0.479
12018WAT     H136296   2.826   7.854   0.565
12018WAT     H236297   2.693   7.802   0.486
12019WAT      O36298   0.485   8.057   1.770
12019WAT     H136299   0.398   8.048   1.818
12019WAT     H236300   0.508   8.154   1.760
12020WAT      O36301   3.447   4.257   1.106
12020WAT     H136302   3.374   4.190   1.119
12020WAT     H236303   3.491   4.276   1.193
12021WAT      O36304   8.818   3.565   3.612
12021WAT     H136305   8.744   3.615   3.567
12021WAT     H236306   8.901   3.570   3.556
12022WAT      O36307   3.922   7.702   6.981
12022WAT     H136308   3.930   7.768   6.906
12022WAT     H236309   4.010   7.695   7.028
12023WAT      O36310   2.487   0.638   0.074
12023WAT     H136311   2.446   0.546   0.075
12023WAT     H236312   2.414   0.706   0.082
12024WAT      O36313   1.120   1.985   9.731
12024WAT     H136314   1.118   2.043   9.649
12024WAT     H236315   1.080   1.896   9.709
12025WAT      O36316   7.238   5.693   7.197
12025WAT     H136317   7.290   5.681   7.282
12025WAT     H236318   7.296   5.672   7.119
12026WAT      O36319   8.461   2.022   2.544
12026WAT     H136320   8.375   2.073   2.554
12026WAT     H236321   8.536   2.086   2.532
12027WAT      O36322   9.507   4.158   9.498
12027WAT     H136323   9.408   4.159   9.488
12027WAT     H236324   9.549   4.126   9.413
12028WAT      O36325   9.159   2.949   5.340
12028WAT     H136326   9.241   2.894   5.319
12028WAT     H236327   9.144   2.950   5.439
12029WAT      O36328   6.376   9.746   5.738
12029WAT     H136329   6.447   9.780   5.799
12029WAT     H236330   6.388   9.786   5.647
12030WAT      O36331   2.206   6.078   5.871
12030WAT     H136332   2.221   6.022   5.952
12030WAT     H236333   2.291   6.086   5.820
12031WAT      O36334   6.045   7.276   4.960
12031WAT     H136335   5.976   7.348   4.962
12031WAT     H236336   6.071   7.257   4.865
12032WAT      O36337   9.399   2.701   4.543
12032WAT     H136338   9.451   2.787   4.544
12032WAT     H236339   9.451   2.630   4.589
12033WAT      O36340   8.943   0.961   6.947
12033WAT     H136341   8.995   1.023   6.888
12033WAT     H236342   9.006   0.903   6.998
12034WAT      O36343   0.453   0.006   3.493
12034WAT     H136344   0.467  -0.035   3.584
12034WAT     H236345   0.373  -0.036   3.450
12035WAT      O36346   8.222   9.009   3.317
12035WAT     H136347   8.281   9.088   3.301
12035WAT     H236348   8.146   9.035   3.375
12036WAT      O36349   0.632   2.587   8.971
12036WAT     H136350   0.609   2.683   8.988
12036WAT     H236351   0.672   2.578   8.880
12037WAT      O36352   2.079   3.408   3.391
12037WAT     H136353   2.129   3.336   3.343
12037WAT     H236354   2.092   3.495   3.343
12038WAT      O36355   8.779   5.575   0.998
12038WAT     H136356   8.701   5.636   1.013
12038WAT     H236357   8.763   5.519   0.917
12039WAT      O36358   5.751   1.018   9.428
12039WAT     H136359   5.842   0.981   9.407
12039WAT     H236360   5.689   0.943   9.452
12040WAT      O36361   5.121   5.636   2.153
12040WAT     H136362   5.110   5.568   2.081
12040WAT     H236363   5.031   5.668   2.184
12041WAT      O36364   5.665   2.962   9.447
12041WAT     H136365   5.628   3.054   9.463
12041WAT     H236366   5.622   2.923   9.365
12042WAT      O36367   2.760   0.582   5.682
12042WAT     H136368   2.829   0.511   5.671
12042WAT     H236369   2.800   0.661   5.729
12043WAT      O36370   2.165   7.086   8.779
12043WAT     H136371   2.133   7.102   8.686
12043WAT     H236372   2.132   7.159   8.839
12044WAT      O36373   8.423   9.207   4.529
12044WAT     H136374   8.430   9.223   4.431
12044WAT     H236375   8.451   9.289   4.578
12045WAT      O36376   2.691   6.711   0.555
12045WAT     H136377   2.764   6.656   0.514
12045WAT     H236378   2.653   6.772   0.486
12046WAT      O36379   7.642   1.530   3.012
12046WAT     H136380   7.672   1.625   2.997
12046WAT     H236381   7.552   1.530   3.054
12047WAT      O36382   1.115   0.560   5.736
12047WAT     H136383   1.019   0.581   5.720
12047WAT     H236384   1.157   0.632   5.792
12048WAT      O36385   6.539   1.855   6.707
12048WAT     H136386   6.535   1.894   6.799
12048WAT     H236387   6.527   1.928   6.639
12049WAT      O36388   9.459   6.600   0.263
12049WAT     H136389   9.505   6.549   0.336
12049WAT     H236390   9.366   6.625   0.293
12050WAT      O36391   3.089   6.982   5.144
12050WAT     H136392   3.011   7.019   5.193
12050WAT     H236393   3.137   6.916   5.201
12051WAT      O36394   5.035   8.619   7.159
12051WAT     H136395   5.116   8.669   7.128
12051WAT     H236396   5.021   8.539   7.101
12052WAT      O36397   4.734   5.927   2.337
12052WAT     H136398   4.654   5.965   2.292
12052WAT     H236399   4.808   5.994   2.336
12053WAT      O36400   1.724   0.137   8.625
12053WAT     H136401   1.708   0.233   8.645
12053WAT     H236402   1.662   0.106   8.554
12054WAT      O36403   4.151   6.295   7.474
12054WAT     H136404   4.214   6.218   7.481
12054WAT     H236405   4.146   6.326   7.379
12055WAT      O36406   1.408   3.805   4.989
12055WAT     H136407   1.430   3.735   5.057
12055WAT     H236408   1.332   3.772   4.932
12056WAT      O36409   2.127   0.816   5.958
12056WAT     H136410   2.042   0.830   6.009
12056WAT     H236411   2.132   0.880   5.881
12057WAT      O36412   1.388   5.044   8.729
12057WAT     H136413   1.483   5.064   8.753
12057WAT     H236414   1.346   5.126   8.691
12058WAT      O36415   5.982   0.681   1.483
12058WAT     H136416   5.980   0.730   1.570
12058WAT     H236417   6.071   0.695   1.439
12059WAT      O36418   8.223   5.405   2.681
12059WAT     H136419   8.196   5.458   2.761
12059WAT     H236420   8.309   5.358   2.699
12060WAT      O36421   5.695   3.339   3.037
12060WAT     H136422   5.721   3.411   2.972
12060WAT     H236423   5.598   3.349   3.061
12061WAT      O36424   5.419   6.339   7.048
12061WAT     H136425   5.482   6.285   7.104
12061WAT     H236426   5.327   6.333   7.086
12062WAT      O36427   0.837   0.898   5.537
12062WAT     H136428   0.779   0.901   5.456
12062WAT     H236429   0.813   0.975   5.597
12063WAT      O36430   7.556   2.074   3.241
12063WAT     H136431   7.632   2.127   3.280
12063WAT     H236432   7.538   1.995   3.300
12064WAT      O36433   6.935   6.228   1.705
12064WAT     H136434   6.953   6.214   1.802
12064WAT     H236435   6.944   6.325   1.683
12065WAT      O36436   6.419   6.925   3.967
12065WAT     H136437   6.366   6.935   3.883
12065WAT     H236438   6.420   6.829   3.995
12066WAT      O36439   6.640   3.387   0.606
12066WAT     H136440   6.732   3.350   0.591
12066WAT     H236441   6.603   3.349   0.692
12067WAT      O36442   0.506   8.069   5.504
12067WAT     H136443   0.565   8.101   5.429
12067WAT     H236444   0.429   8.018   5.466
12068WAT      O36445   5.526   8.824   0.064
12068WAT     H136446   5.522   8.740   0.009
12068WAT     H236447   5.453   8.885   0.036
12069WAT      O36448   6.737   5.429   9.605
12069WAT     H136449   6.823   5.470   9.576
12069WAT     H236450   6.755   5.358   9.673
12070WAT      O36451   1.228   5.106   1.854
12070WAT     H136452   1.248   5.019   1.898
12070WAT     H236453   1.289   5.118   1.775
12071WAT      O36454   9.169   8.228   4.548
12071WAT     H136455   9.261   8.222   4.585
12071WAT     H236456   9.147   8.324   4.527
12072WAT      O36457   5.250   6.952   9.146
12072WAT     H136458   5.299   7.037   9.168
12072WAT     H236459   5.256   6.935   9.048
12073WAT      O36460   7.631   7.032   0.540
12073WAT     H136461   7.593   7.122   0.564
12073WAT     H236462   7.608   6.966   0.611
12074WAT      O36463   1.059   2.779   8.214
12074WAT     H136464   1.002   2.818   8.286
12074WAT     H236465   1.097   2.692   8.245
12075WAT      O36466   3.551   2.892   1.027
12075WAT     H136467   3.627   2.901   1.091
12075WAT     H236468   3.556   2.803   0.982
12076WAT      O36469   8.095   3.135   6.298
12076WAT     H136470   8.027   3.203   6.323
12076WAT     H236471   8.105   3.133   6.198
12077WAT      O36472   5.266   9.302   9.174
12077WAT     H136473   5.274   9.243   9.254
12077WAT     H236474   5.356   9.319   9.135
12078WAT      O36475   6.848   3.493   0.890
12078WAT     H136476   6.766   3.496   0.948
12078WAT     H236477   6.906   3.573   0.911
12079WAT      O36478   0.194   9.091   0.968
12079WAT     H136479   0.228   9.167   1.022
12079WAT     H236480   0.177   9.012   1.027
12080WAT      O36481   5.654   7.936   3.454
12080WAT     H136482   5.645   7.926   3.355
12080WAT     H236483   5.606   8.019   3.484
12081WAT      O36484   4.450   2.942   4.688
12081WAT     H136485   4.539   2.899   4.672
12081WAT     H236486   4.457   3.040   4.667
12082WAT      O36487   6.164   8.608   3.657
12082WAT     H136488   6.262   8.605   3.637
12082WAT     H236489   6.131   8.516   3.678
12083WAT      O36490   0.381   0.222   4.334
12083WAT     H136491   0.401   0.134   4.292
12083WAT     H236492   0.336   0.208   4.422
12084WAT      O36493   0.527   0.837   4.913
12084WAT     H136494   0.591   0.774   4.870
12084WAT     H236495   0.462   0.871   4.844
12085WAT      O36496   6.703   8.899   6.659
12085WAT     H136497   6.646   8.825   6.623
12085WAT     H236498   6.645   8.963   6.710
12086WAT      O36499   5.523   0.939   7.631
12086WAT     H136500   5.488   0.845   7.632
12086WAT     H236501   5.539   0.969   7.724
12087WAT      O36502   3.401   9.415   6.629
12087WAT     H136503   3.313   9.385   6.666
12087WAT     H236504   3.472   9.403   6.698
12088WAT      O36505   9.560   2.489   4.387
12088WAT     H136506   9.603   2.467   4.300
12088WAT     H236507   9.521   2.581   4.383
12089WAT      O36508   7.042   3.036   6.120
12089WAT     H136509   7.119   3.070   6.066
12089WAT     H236510   6.957   3.046   6.067
12090WAT      O36511   3.102   3.005   7.149
12090WAT     H136512   3.196   2.972   7.143
12090WAT     H236513   3.095   3.095   7.106
12091WAT      O36514   9.788   1.073   7.174
12091WAT     H136515   9.865   1.031   7.127
12091WAT     H236516   9.789   1.172   7.158
12092WAT      O36517   2.418   3.122   1.081
12092WAT     H136518   2.354   3.177   1.028
12092WAT     H236519   2.458   3.179   1.153
12093WAT      O36520   4.540   5.476   7.428
12093WAT     H136521   4.529   5.460   7.526
12093WAT     H236522   4.634   5.504   7.410
12094WAT      O36523   3.318   3.503   4.203
12094WAT     H136524   3.343   3.452   4.285
12094WAT     H236525   3.397   3.556   4.171
12095WAT      O36526   3.822   2.939   3.175
12095WAT     H136527   3.783   2.859   3.129
12095WAT     H236528   3.748   2.996   3.210
12096WAT      O36529   7.295   4.349   7.987
12096WAT     H136530   7.336   4.407   7.917
12096WAT     H236531   7.197   4.340   7.969
12097WAT      O36532   3.313   1.042   1.268
12097WAT     H136533   3.283   0.947   1.267
12097WAT     H236534   3.283   1.085   1.353
12098WAT      O36535   0.664   0.494   0.031
12098WAT     H136536   0.587   0.556   0.046
12098WAT     H236537   0.662   0.421   0.099
12099WAT      O36538   9.856   0.568   0.571
12099WAT     H136539   9.757   0.574   0.582
12099WAT     H236540   9.900   0.604   0.653
12100WAT      O36541   7.062   9.298   4.392
12100WAT     H136542   6.995   9.302   4.467
12100WAT     H236543   7.063   9.205   4.355
12101WAT      O36544   8.884   3.259   0.299
12101WAT     H136545   8.842   3.348   0.319
12101WAT     H236546   8.974   3.254   0.342
12102WAT      O36547   5.098   1.715   7.816
12102WAT     H136548   5.043   1.764   7.883
12102WAT     H236549   5.053   1.720   7.726
12103WAT      O36550   9.089   2.844   1.254
12103WAT     H136551   9.125   2.847   1.161
12103WAT     H236552   9.147   2.785   1.310
12104WAT      O36553   1.622   9.445   3.926
12104WAT     H136554   1.614   9.506   3.847
12104WAT     H236555   1.687   9.372   3.905
12105WAT      O36556   7.983   7.884   6.316
12105WAT     H136557   8.052   7.939   6.268
12105WAT     H236558   8.012   7.871   6.411
12106WAT      O36559   6.012   5.272   8.619
12106WAT     H136560   5.924   5.229   8.603
12106WAT     H236561   6.018   5.357   8.566
12107WAT      O36562   5.020   0.333   3.322
12107WAT     H136563   4.929   0.368   3.342
12107WAT     H236564   5.060   0.385   3.246
12108WAT      O36565   6.850   9.082   8.208
12108WAT     H136566   6.783   9.042   8.271
12108WAT     H236567   6.847   9.034   8.121
12109WAT      O36568   0.471   4.443   4.591
12109WAT     H136569   0.516   4.357   4.570
12109WAT     H236570   0.528   4.519   4.561
12110WAT      O36571   2.322   5.360   0.345
12110WAT     H136572   2.293   5.266   0.329
12110WAT     H236573   2.302   5.416   0.264
12111WAT      O36574   5.151   4.813   2.237
12111WAT     H136575   5.243   4.785   2.266
12111WAT     H236576   5.083   4.759   2.286
12112WAT      O36577   9.745   8.263   7.981
12112WAT     H136578   9.813   8.333   8.002
12112WAT     H236579   9.659   8.307   7.953
12113WAT      O36580   1.163   4.112   1.008
12113WAT     H136581   1.142   4.022   1.047
12113WAT     H236582   1.080   4.153   0.971
12114WAT      O36583   5.149   3.989   5.375
12114WAT     H136584   5.068   3.987   5.317
12114WAT     H236585   5.213   4.057   5.340
12115WAT      O36586   9.119   9.058   5.196
12115WAT     H136587   9.175   9.087   5.273
12115WAT     H236588   9.055   9.131   5.172
12116WAT      O36589   0.962   2.548   5.755
12116WAT     H136590   1.010   2.631   5.728
12116WAT     H236591   1.010   2.504   5.831
12117WAT      O36592   7.997   1.677   2.847
12117WAT     H136593   7.933   1.655   2.774
12117WAT     H236594   7.948   1.721   2.923
12118WAT      O36595   6.968   4.545   1.178
12118WAT     H136596   6.981   4.523   1.274
12118WAT     H236597   7.057   4.548   1.131
12119WAT      O36598   4.289   1.555   8.561
12119WAT     H136599   4.230   1.532   8.483
12119WAT     H236600   4.321   1.471   8.604
12120WAT      O36601   2.059   7.989   9.615
12120WAT     H136602   2.061   7.899   9.571
12120WAT     H236603   2.115   7.986   9.698
12121WAT      O36604   0.082   3.843   7.921
12121WAT     H136605   0.004   3.814   7.866
12121WAT     H236606   0.101   3.775   7.992
12122WAT      O36607   4.941   5.019   7.524
12122WAT     H136608   4.923   5.048   7.618
12122WAT     H236609   5.008   4.945   7.524
12123WAT      O36610   1.517   5.489   4.314
12123WAT     H136611   1.467   5.571   4.286
12123WAT     H236612   1.615   5.502   4.297
12124WAT      O36613   7.690   6.334   3.553
12124WAT     H136614   7.697   6.239   3.522
12124WAT     H236615   7.710   6.339   3.651
12125WAT      O36616   3.508   0.423   1.991
12125WAT     H136617   3.432   0.477   1.954
12125WAT     H236618   3.523   0.344   1.933
12126WAT      O36619   2.130   6.056   3.189
12126WAT     H136620   2.121   5.985   3.119
12126WAT     H236621   2.086   6.025   3.273
12127WAT      O36622   6.102   2.518   9.063
12127WAT     H136623   6.037   2.441   9.061
12127WAT     H236624   6.076   2.581   9.137
12128WAT      O36625   0.392   4.902   8.850
12128WAT     H136626   0.293   4.896   8.839
12128WAT     H236627   0.416   4.994   8.882
12129WAT      O36628   5.194   7.236   2.888
12129WAT     H136629   5.207   7.167   2.817
12129WAT     H236630   5.213   7.327   2.850
12130WAT      O36631   6.273   6.756   3.419
12130WAT     H136632   6.249   6.720   3.509
12130WAT     H236633   6.212   6.832   3.396
12131WAT      O36634   3.365   0.308   9.351
12131WAT     H136635   3.331   0.349   9.435
12131WAT     H236636   3.307   0.335   9.274
12132WAT      O36637   8.415   6.987   5.559
12132WAT     H136638   8.459   6.901   5.586
12132WAT     H236639   8.464   7.064   5.600
12133WAT      O36640   4.975   1.158   3.312
12133WAT     H136641   5.036   1.161   3.391
12133WAT     H236642   5.022   1.193   3.232
12134WAT      O36643   0.855   4.388   5.696
12134WAT     H136644   0.875   4.317   5.629
12134WAT     H236645   0.928   4.391   5.764
12135WAT      O36646   5.949   3.162   9.571
12135WAT     H136647   5.945   3.123   9.479
12135WAT     H236648   5.860   3.155   9.614
12136WAT      O36649   6.071   1.640   4.427
12136WAT     H136650   6.140   1.704   4.392
12136WAT     H236651   6.041   1.669   4.517
12137WAT      O36652   4.840   8.426   0.182
12137WAT     H136653   4.761   8.464   0.133
12137WAT     H236654   4.883   8.355   0.126
12138WAT      O36655   7.673   7.772   3.245
12138WAT     H136656   7.647   7.867   3.261
12138WAT     H236657   7.609   7.712   3.293
12139WAT      O36658   7.784   3.727   6.453
12139WAT     H136659   7.874   3.698   6.484
12139WAT     H236660   7.722   3.736   6.531
12140WAT      O36661   4.338   7.661   0.174
12140WAT     H136662   4.433   7.669   0.144
12140WAT     H236663   4.332   7.684   0.271
12141WAT      O36664   0.453   5.213   4.812
12141WAT     H136665   0.487   5.176   4.726
12141WAT     H236666   0.395   5.292   4.794
12142WAT      O36667   5.627   0.104   3.715
12142WAT     H136668   5.722   0.080   3.693
12142WAT     H236669   5.600   0.184   3.662
12143WAT      O36670   8.000   8.124   0.165
12143WAT     H136671   7.919   8.159   0.212
12143WAT     H236672   7.972   8.077   0.082
12144WAT      O36673   7.293   1.800   4.880
12144WAT     H136674   7.324   1.705   4.866
12144WAT     H236675   7.226   1.803   4.954
12145WAT      O36676   4.054   1.687   7.093
12145WAT     H136677   3.965   1.640   7.093
12145WAT     H236678   4.099   1.672   7.181
12146WAT      O36679   2.594   8.247   0.017
12146WAT     H136680   2.528   8.281   0.083
12146WAT     H236681   2.626   8.324  -0.039
12147WAT      O36682   2.640   0.165   1.332
12147WAT     H136683   2.602   0.214   1.411
12147WAT     H236684   2.732   0.199   1.314
12148WAT      O36685   2.922   5.596   6.774
12148WAT     H136686   3.012   5.571   6.739
12148WAT     H236687   2.932   5.665   6.846
12149WAT      O36688   3.111   9.709   7.819
12149WAT     H136689   3.177   9.661   7.877
12149WAT     H236690   3.018   9.677   7.842
12150WAT      O36691   0.635   3.020   6.370
12150WAT     H136692   0.617   2.963   6.450
12150WAT     H236693   0.559   3.084   6.358
12151WAT      O36694   0.287   9.281   9.058
12151WAT     H136695   0.215   9.244   8.999
12151WAT     H236696   0.375   9.241   9.033
12152WAT      O36697   6.733   2.375   4.072
12152WAT     H136698   6.748   2.391   3.974
12152WAT     H236699   6.755   2.458   4.123
12153WAT      O36700   1.460   0.432   8.853
12153WAT     H136701   1.433   0.418   8.948
12153WAT     H236702   1.392   0.393   8.792
12154WAT      O36703   4.497   6.181   2.407
12154WAT     H136704   4.505   6.210   2.311
12154WAT     H236705   4.549   6.244   2.465
12155WAT      O36706   7.295   2.112   5.734
12155WAT     H136707   7.332   2.028   5.773
12155WAT     H236708   7.365   2.157   5.679
12156WAT      O36709   6.487   9.112   2.795
12156WAT     H136710   6.417   9.111   2.866
12156WAT     H236711   6.510   9.207   2.772
12157WAT      O36712   1.049   2.693   5.444
12157WAT     H136713   1.118   2.764   5.433
12157WAT     H236714   1.093   2.606   5.468
12158WAT      O36715   6.023   9.525   7.850
12158WAT     H136716   6.092   9.452   7.844
12158WAT     H236717   5.968   9.526   7.767
12159WAT      O36718   9.210   7.506   5.848
12159WAT     H136719   9.286   7.557   5.887
12159WAT     H236720   9.132   7.508   5.910
12160WAT      O36721   7.493   5.109   1.685
12160WAT     H136722   7.490   5.012   1.708
12160WAT     H236723   7.408   5.152   1.714
12161WAT      O36724   8.849   6.039   2.291
12161WAT     H136725   8.914   6.114   2.279
12161WAT     H236726   8.769   6.055   2.233
12162WAT      O36727   5.283   1.970   8.747
12162WAT     H136728   5.286   1.985   8.846
12162WAT     H236729   5.288   2.058   8.700
12163WAT      O36730   6.044   5.918   5.005
12163WAT     H136731   6.087   5.868   5.080
12163WAT     H236732   6.075   6.013   5.006
12164WAT      O36733   7.798   1.193   3.505
12164WAT     H136734   7.747   1.183   3.420
12164WAT     H236735   7.805   1.289   3.529
12165WAT      O36736   7.190   7.502   8.849
12165WAT     H136737   7.222   7.483   8.757
12165WAT     H236738   7.092   7.483   8.855
12166WAT      O36739   7.385   3.530   4.503
12166WAT     H136740   7.406   3.534   4.601
12166WAT     H236741   7.460   3.571   4.451
12167WAT      O36742   5.716   2.856   5.062
12167WAT     H136743   5.715   2.757   5.046
12167WAT     H236744   5.626   2.885   5.095
12168WAT      O36745   8.975   5.252   3.837
12168WAT     H136746   8.914   5.309   3.781
12168WAT     H236747   8.927   5.224   3.920
12169WAT      O36748   8.718   9.466   7.537
12169WAT     H136749   8.792   9.401   7.556
12169WAT     H236750   8.659   9.473   7.617
12170WAT      O36751   4.977   3.059   7.791
12170WAT     H136752   4.914   3.001   7.738
12170WAT     H236753   4.936   3.080   7.880
12171WAT      O36754   6.018   5.266   6.107
12171WAT     H136755   6.047   5.189   6.050
12171WAT     H236756   5.925   5.292   6.084
12172WAT      O36757   8.256   7.365   1.814
12172WAT     H136758   8.299   7.277   1.834
12172WAT     H236759   8.326   7.427   1.778
12173WAT      O36760   1.661   3.835   3.385
12173WAT     H136761   1.639   3.825   3.288
12173WAT     H236762   1.720   3.760   3.414
12174WAT      O36763   7.627   3.645   9.662
12174WAT     H136764   7.613   3.717   9.595
12174WAT     H236765   7.721   3.612   9.656
12175WAT      O36766   6.231   0.052   8.499
12175WAT     H136767   6.204   0.071   8.593
12175WAT     H236768   6.267  -0.041   8.492
12176WAT      O36769   4.418   0.217   7.814
12176WAT     H136770   4.434   0.119   7.812
12176WAT     H236771   4.358   0.239   7.891
12177WAT      O36772   7.276   3.208   3.379
12177WAT     H136773   7.295   3.194   3.282
12177WAT     H236774   7.200   3.149   3.407
12178WAT      O36775   4.035   6.526   2.618
12178WAT     H136776   3.987   6.541   2.532
12178WAT     H236777   4.096   6.447   2.610
12179WAT      O36778   3.218   3.643   9.863
12179WAT     H136779   3.183   3.703   9.791
12179WAT     H236780   3.207   3.688   9.952
12180WAT      O36781   8.206   4.757   3.122
12180WAT     H136782   8.213   4.821   3.045
12180WAT     H236783   8.124   4.702   3.112
12181WAT      O36784   1.911   1.759   8.628
12181WAT     H136785   1.920   1.792   8.722
12181WAT     H236786   1.929   1.660   8.626
12182WAT      O36787   6.299   1.101   6.648
12182WAT     H136788   6.263   1.146   6.729
12182WAT     H236789   6.224   1.067   6.592
12183WAT      O36790   7.667   0.508   4.669
12183WAT     H136791   7.681   0.561   4.753
12183WAT     H236792   7.575   0.468   4.671
12184WAT      O36793   4.103   5.400   4.233
12184WAT     H136794   4.066   5.466   4.299
12184WAT     H236795   4.181   5.352   4.274
12185WAT      O36796   3.335   2.891   3.075
12185WAT     H136797   3.346   2.985   3.107
12185WAT     H236798   3.399   2.874   3.000
12186WAT      O36799   5.249   3.426   3.479
12186WAT     H136800   5.251   3.360   3.554
12186WAT     H236801   5.339   3.432   3.436
12187WAT      O36802   4.651   2.988   8.726
12187WAT     H136803   4.564   2.996   8.775
12187WAT     H236804   4.725   3.023   8.784
12188WAT      O36805   2.561   9.601   1.698
12188WAT     H136806   2.560   9.698   1.675
12188WAT     H236807   2.515   9.549   1.626
12189WAT      O36808   5.894   8.187   6.142
12189WAT     H136809   5.866   8.203   6.237
12189WAT     H236810   5.867   8.264   6.085
12190WAT      O36811   8.471   1.471   2.603
12190WAT     H136812   8.521   1.427   2.677
12190WAT     H236813   8.378   1.493   2.633
12191WAT      O36814   2.733   7.203   3.612
12191WAT     H136815   2.796   7.165   3.679
12191WAT     H236816   2.654   7.243   3.659
12192WAT      O36817   7.469   3.078   1.894
12192WAT     H136818   7.488   3.176   1.901
12192WAT     H236819   7.398   3.063   1.825
12193WAT      O36820   9.883   6.210   6.901
12193WAT     H136821   9.936   6.192   6.983
12193WAT     H236822   9.908   6.300   6.864
12194WAT      O36823   6.933   7.751   9.843
12194WAT     H136824   6.985   7.808   9.780
12194WAT     H236825   6.860   7.805   9.884
12195WAT      O36826   4.654   8.159   0.557
12195WAT     H136827   4.583   8.115   0.502
12195WAT     H236828   4.678   8.247   0.516
12196WAT      O36829   8.346   0.202   1.968
12196WAT     H136830   8.270   0.140   1.993
12196WAT     H236831   8.429   0.148   1.954
12197WAT      O36832   2.087   9.085   0.455
12197WAT     H136833   2.103   9.031   0.372
12197WAT     H236834   2.154   9.160   0.458
12198WAT      O36835   1.779   6.193   4.299
12198WAT     H136836   1.704   6.259   4.301
12198WAT     H236837   1.744   6.103   4.274
12199WAT      O36838   2.513   8.766   4.416
12199WAT     H136839   2.460   8.701   4.469
12199WAT     H236840   2.515   8.737   4.320
12200WAT      O36841   2.266   1.857   7.359
12200WAT     H136842   2.271   1.757   7.356
12200WAT     H236843   2.332   1.896   7.295
12201WAT      O36844   7.916   5.524   1.319
12201WAT     H136845   7.895   5.540   1.415
12201WAT     H236846   8.015   5.515   1.307
12202WAT      O36847   0.063   1.678   0.403
12202WAT     H136848   0.028   1.689   0.496
12202WAT     H236849   0.115   1.592   0.397
12203WAT      O36850   4.917   1.470   1.862
12203WAT     H136851   4.849   1.402   1.891
12203WAT     H236852   4.940   1.456   1.766
12204WAT      O36853   2.534   4.868   5.364
12204WAT     H136854   2.596   4.813   5.420
12204WAT     H236855   2.538   4.964   5.394
12205WAT      O36856   6.268   3.401   3.663
12205WAT     H136857   6.297   3.377   3.570
12205WAT     H236858   6.266   3.500   3.673
12206WAT      O36859   7.984   5.316   0.988
12206WAT     H136860   7.907   5.262   0.957
12206WAT     H236861   8.019   5.371   0.912
12207WAT      O36862   4.522   1.902   1.485
12207WAT     H136863   4.448   1.835   1.491
12207WAT     H236864   4.497   1.974   1.420
12208WAT      O36865   5.710   4.921   7.726
12208WAT     H136866   5.754   5.011   7.724
12208WAT     H236867   5.778   4.851   7.748
12209WAT      O36868   6.453   6.480   5.502
12209WAT     H136869   6.549   6.461   5.482
12209WAT     H236870   6.448   6.552   5.572
12210WAT      O36871   1.686   5.729   5.891
12210WAT     H136872   1.660   5.750   5.797
12210WAT     H236873   1.769   5.778   5.915
12211WAT      O36874   7.021   8.994   6.264
12211WAT     H136875   7.053   9.070   6.208
12211WAT     H236876   6.990   9.029   6.353
12212WAT      O36877   0.948   0.197   7.697
12212WAT     H136878   1.003   0.129   7.746
12212WAT     H236879   0.913   0.265   7.762
12213WAT      O36880   9.861   3.348   2.006
12213WAT     H136881   9.810   3.268   1.973
12213WAT     H236882   9.843   3.425   1.945
12214WAT      O36883   6.399   9.488   3.612
12214WAT     H136884   6.446   9.440   3.538
12214WAT     H236885   6.389   9.585   3.588
12215WAT      O36886   5.118   0.510   3.161
12215WAT     H136887   5.202   0.468   3.128
12215WAT     H236888   5.140   0.592   3.214
12216WAT      O36889   0.774   5.318   5.978
12216WAT     H136890   0.865   5.297   5.942
12216WAT     H236891   0.717   5.237   5.973
12217WAT      O36892   3.551   8.565   2.439
12217WAT     H136893   3.593   8.532   2.354
12217WAT     H236894   3.552   8.492   2.507
12218WAT      O36895   4.183   2.424   0.875
12218WAT     H136896   4.239   2.425   0.792
12218WAT     H236897   4.214   2.496   0.937
12219WAT      O36898   2.118   5.633   6.421
12219WAT     H136899   2.060   5.708   6.388
12219WAT     H236900   2.060   5.561   6.460
12220WAT      O36901   4.083   1.506   4.115
12220WAT     H136902   4.107   1.547   4.203
12220WAT     H236903   3.987   1.476   4.118
12221WAT      O36904   1.070   8.635   2.588
12221WAT     H136905   1.047   8.688   2.507
12221WAT     H236906   1.134   8.562   2.563
12222WAT      O36907   7.503   8.135   7.022
12222WAT     H136908   7.432   8.086   6.972
12222WAT     H236909   7.463   8.215   7.067
12223WAT      O36910   4.285   4.949   1.976
12223WAT     H136911   4.359   5.000   2.020
12223WAT     H236912   4.203   5.006   1.971
12224WAT      O36913   6.203   0.661   6.149
12224WAT     H136914   6.254   0.626   6.070
12224WAT     H236915   6.162   0.749   6.124
12225WAT      O36916   8.929   0.412   7.471
12225WAT     H136917   8.899   0.356   7.394
12225WAT     H236918   8.873   0.392   7.551
12226WAT      O36919   2.336   5.873   7.483
12226WAT     H136920   2.251   5.844   7.526
12226WAT     H236921   2.317   5.907   7.391
12227WAT      O36922   1.491   0.628   2.573
12227WAT     H136923   1.437   0.547   2.598
12227WAT     H236924   1.562   0.643   2.642
12228WAT      O36925   7.135   6.162   3.172
12228WAT     H136926   7.235   6.166   3.175
12228WAT     H236927   7.107   6.093   3.105
12229WAT      O36928   9.828   4.372   8.796
12229WAT     H136929   9.918   4.367   8.754
12229WAT     H236930   9.789   4.463   8.784
12230WAT      O36931   6.886   8.797   2.362
12230WAT     H136932   6.854   8.753   2.278
12230WAT     H236933   6.893   8.729   2.435
12231WAT      O36934   2.965   2.954   1.243
12231WAT     H136935   2.918   2.871   1.272
12231WAT     H236936   2.945   2.971   1.146
12232WAT      O36937   0.681   7.968   7.647
12232WAT     H136938   0.768   8.017   7.650
12232WAT     H236939   0.613   8.023   7.599
12233WAT      O36940   2.577   8.700   8.248
12233WAT     H136941   2.545   8.785   8.290
12233WAT     H236942   2.498   8.651   8.210
12234WAT      O36943   9.689   3.089   9.198
12234WAT     H136944   9.768   3.078   9.138
12234WAT     H236945   9.721   3.096   9.293
12235WAT      O36946   9.362   2.060   2.535
12235WAT     H136947   9.421   2.004   2.477
12235WAT     H236948   9.269   2.059   2.499
12236WAT      O36949   3.221   6.236   3.289
12236WAT     H136950   3.133   6.189   3.296
12236WAT     H236951   3.295   6.170   3.304
12237WAT      O36952   6.073   3.735   9.847
12237WAT     H136953   6.015   3.786   9.784
12237WAT     H236954   6.089   3.790   9.929
12238WAT      O36955   8.994   7.525   1.356
12238WAT     H136956   8.978   7.525   1.454
12238WAT     H236957   9.067   7.461   1.334
12239WAT      O36958   5.354   1.688   9.052
12239WAT     H136959   5.319   1.613   8.996
12239WAT     H236960   5.405   1.751   8.994
12240WAT      O36961   0.843   4.105   9.433
12240WAT     H136962   0.882   4.025   9.478
12240WAT     H236963   0.748   4.086   9.408
12241WAT      O36964   1.426   5.551   7.459
12241WAT     H136965   1.365   5.485   7.415
12241WAT     H236966   1.499   5.502   7.506
12242WAT      O36967   4.667   0.909   1.142
12242WAT     H136968   4.754   0.935   1.184
12242WAT     H236969   4.600   0.890   1.214
12243WAT      O36970   2.310   5.008   5.802
12243WAT     H136971   2.211   5.006   5.788
12243WAT     H236972   2.354   4.940   5.744
12244WAT      O36973   5.731   3.304   5.651
12244WAT     H136974   5.717   3.381   5.713
12244WAT     H236975   5.666   3.231   5.673
12245WAT      O36976   1.739   4.997   9.725
12245WAT     H136977   1.753   5.092   9.697
12245WAT     H236978   1.782   4.937   9.658
12246WAT      O36979   4.326   4.034   6.718
12246WAT     H136980   4.421   4.047   6.688
12246WAT     H236981   4.294   4.116   6.766
12247WAT      O36982   4.027   3.647   3.764
12247WAT     H136983   3.977   3.666   3.848
12247WAT     H236984   4.117   3.691   3.769
12248WAT      O36985   2.144   1.476   1.968
12248WAT     H136986   2.131   1.378   1.978
12248WAT     H236987   2.187   1.495   1.879
12249WAT      O36988   0.405   3.350   5.525
12249WAT     H136989   0.361   3.370   5.613
12249WAT     H236990   0.394   3.253   5.503
12250WAT      O36991   2.547   0.512   3.854
12250WAT     H136992   2.601   0.447   3.802
12250WAT     H236993   2.450   0.499   3.834
12251WAT      O36994   0.825   5.800   0.903
12251WAT     H136995   0.786   5.731   0.843
12251WAT     H236996   0.759   5.826   0.973
12252WAT      O36997   7.812   8.570   0.073
12252WAT     H136998   7.769   8.647   0.119
12252WAT     H236999   7.742   8.513   0.030
12253WAT      O37000   3.676   5.841   8.155
12253WAT     H137001   3.729   5.797   8.082
12253WAT     H237002   3.588   5.871   8.118
12254WAT      O37003   5.628   7.378   9.679
12254WAT     H137004   5.715   7.359   9.635
12254WAT     H237005   5.635   7.361   9.778
12255WAT      O37006   8.672   0.419   3.484
12255WAT     H137007   8.771   0.407   3.482
12255WAT     H237008   8.628   0.329   3.489
12256WAT      O37009   0.364   1.311   7.303
12256WAT     H137010   0.367   1.407   7.275
12256WAT     H237011   0.352   1.253   7.222
12257WAT      O37012   9.628   9.593   6.677
12257WAT     H137013   9.710   9.613   6.623
12257WAT     H237014   9.653   9.585   6.773
12258WAT      O37015   5.245   3.673   6.662
12258WAT     H137016   5.152   3.676   6.625
12258WAT     H237017   5.241   3.671   6.762
12259WAT      O37018   8.376   6.306   5.130
12259WAT     H137019   8.443   6.324   5.058
12259WAT     H237020   8.421   6.256   5.205
12260WAT      O37021   0.468   0.009   4.209
12260WAT     H137022   0.428  -0.079   4.235
12260WAT     H237023   0.558  -0.007   4.168
12261WAT      O37024   9.436   6.433   8.779
12261WAT     H137025   9.456   6.523   8.816
12261WAT     H237026   9.338   6.413   8.789
12262WAT      O37027   9.002   2.637   3.724
12262WAT     H137028   9.001   2.699   3.803
12262WAT     H237029   8.929   2.662   3.661
12263WAT      O37030   3.322   3.613   5.455
12263WAT     H137031   3.336   3.685   5.523
12263WAT     H237032   3.409   3.568   5.435
12264WAT      O37033   5.901   6.651   5.505
12264WAT     H137034   5.970   6.723   5.500
12264WAT     H237035   5.947   6.562   5.510
12265WAT      O37036   5.052   7.997   3.113
12265WAT     H137037   4.965   7.999   3.063
12265WAT     H237038   5.128   8.002   3.048
12266WAT      O37039   3.837   6.942   4.744
12266WAT     H137040   3.908   6.885   4.787
12266WAT     H237041   3.785   6.989   4.814
12267WAT      O37042   4.542   2.055   8.439
12267WAT     H137043   4.459   2.002   8.420
12267WAT     H237044   4.586   2.080   8.353
12268WAT      O37045   6.170   3.073   5.151
12268WAT     H137046   6.103   3.120   5.093
12268WAT     H237047   6.127   2.995   5.196
12269WAT      O37048   5.371   0.890   8.151
12269WAT     H137049   5.272   0.889   8.136
12269WAT     H237050   5.394   0.959   8.221
12270WAT      O37051   7.817   3.521   2.881
12270WAT     H137052   7.857   3.596   2.829
12270WAT     H237053   7.890   3.471   2.928
12271WAT      O37054   8.036   7.409   2.213
12271WAT     H137055   8.045   7.484   2.147
12271WAT     H237056   8.042   7.321   2.166
12272WAT      O37057   9.864   9.561   3.081
12272WAT     H137058   9.797   9.517   3.021
12272WAT     H237059   9.956   9.536   3.051
12273WAT      O37060   7.430   6.369   3.598
12273WAT     H137061   7.527   6.370   3.574
12273WAT     H237062   7.406   6.455   3.643
12274WAT      O37063   2.081   5.949   9.366
12274WAT     H137064   2.136   6.001   9.430
12274WAT     H237065   2.048   5.865   9.411
12275WAT      O37066   3.127   1.321   9.500
12275WAT     H137067   3.091   1.229   9.515
12275WAT     H237068   3.076   1.366   9.427
12276WAT      O37069   5.535   9.303   5.483
12276WAT     H137070   5.525   9.397   5.515
12276WAT     H237071   5.633   9.281   5.474
12277WAT      O37072   3.883   8.817   6.297
12277WAT     H137073   3.822   8.897   6.299
12277WAT     H237074   3.963   8.835   6.354
12278WAT      O37075   8.819   9.460   8.034
12278WAT     H137076   8.762   9.398   8.088
12278WAT     H237077   8.879   9.407   7.975
12279WAT      O37078   3.060   2.032   4.123
12279WAT     H137079   3.107   2.058   4.207
12279WAT     H237080   2.978   1.979   4.146
12280WAT      O37081   6.144   7.359   2.284
12280WAT     H137082   6.106   7.432   2.340
12280WAT     H237083   6.159   7.392   2.191
12281WAT      O37084   4.959   3.818   4.285
12281WAT     H137085   4.898   3.898   4.290
12281WAT     H237086   4.988   3.792   4.377
12282WAT      O37087   1.373   9.627   0.394
12282WAT     H137088   1.404   9.701   0.334
12282WAT     H237089   1.352   9.663   0.484
12283WAT      O37090   6.045   1.909   9.042
12283WAT     H137091   6.045   1.978   8.969
12283WAT     H237092   5.973   1.930   9.108
12284WAT      O37093   5.552   4.892   9.686
12284WAT     H137094   5.558   4.862   9.590
12284WAT     H237095   5.484   4.837   9.734
12285WAT      O37096   7.160   8.188   0.758
12285WAT     H137097   7.207   8.100   0.767
12285WAT     H237098   7.177   8.226   0.667
12286WAT      O37099   5.027   6.842   2.646
12286WAT     H137100   5.104   6.903   2.663
12286WAT     H237101   4.944   6.896   2.631
12287WAT      O37102   5.954   7.562   2.897
12287WAT     H137103   5.895   7.639   2.921
12287WAT     H237104   6.038   7.596   2.855
12288WAT      O37105   1.636   0.359   4.079
12288WAT     H137106   1.558   0.345   4.017
12288WAT     H237107   1.721   0.336   4.030
12289WAT      O37108   9.030   0.036   1.338
12289WAT     H137109   9.069   0.052   1.247
12289WAT     H237110   9.089   0.079   1.407
12290WAT      O37111   5.357   8.349   7.822
12290WAT     H137112   5.271   8.308   7.853
12290WAT     H237113   5.414   8.368   7.901
12291WAT      O37114   0.015   7.397   8.352
12291WAT     H137115   0.004   7.385   8.254
12291WAT     H237116  -0.063   7.449   8.388
12292WAT      O37117   0.321   3.741   7.720
12292WAT     H137118   0.402   3.798   7.712
12292WAT     H237119   0.258   3.783   7.786
12293WAT      O37120   0.174   2.039   8.269
12293WAT     H137121   0.217   1.958   8.309
12293WAT     H237122   0.089   2.012   8.224
12294WAT      O37123   1.418   1.744   9.884
12294WAT     H137124   1.499   1.688   9.903
12294WAT     H237125   1.405   1.752   9.785
12295WAT      O37126   8.548   5.099   6.280
12295WAT     H137127   8.529   5.190   6.315
12295WAT     H237128   8.590   5.106   6.189
12296WAT      O37129   5.853   7.481   1.412
12296WAT     H137130   5.855   7.479   1.312
12296WAT     H237131   5.844   7.388   1.447
12297WAT      O37132   2.290   8.918   0.746
12297WAT     H137133   2.314   8.823   0.767
12297WAT     H237134   2.194   8.934   0.769
12298WAT      O37135   3.861   7.336   9.407
12298WAT     H137136   3.864   7.386   9.321
12298WAT     H237137   3.770   7.342   9.447
12299WAT      O37138   2.109   5.835   2.048
12299WAT     H137139   2.157   5.757   2.087
12299WAT     H237140   2.026   5.803   2.003
12300WAT      O37141   9.245   9.086   7.306
12300WAT     H137142   9.187   9.010   7.277
12300WAT     H237143   9.291   9.125   7.226
12301WAT      O37144   1.281   9.080   9.301
12301WAT     H137145   1.183   9.076   9.283
12301WAT     H237146   1.301   9.034   9.388
12302WAT      O37147   0.022   2.366   9.857
12302WAT     H137148  -0.062   2.380   9.804
12302WAT     H237149   0.012   2.411   9.946
12303WAT      O37150   9.834   1.098   4.753
12303WAT     H137151   9.824   1.023   4.687
12303WAT     H237152   9.924   1.093   4.796
12304WAT      O37153   5.976   5.951   7.403
12304WAT     H137154   5.955   5.999   7.318
12304WAT     H237155   5.923   5.990   7.478
12305WAT      O37156   9.774   8.303   8.602
12305WAT     H137157   9.780   8.215   8.554
12305WAT     H237158   9.854   8.313   8.662
12306WAT      O37159   4.308   0.081   0.189
12306WAT     H137160   4.282   0.056   0.282
12306WAT     H237161   4.229   0.072   0.128
12307WAT      O37162   8.777   1.893   3.891
12307WAT     H137163   8.788   1.986   3.858
12307WAT     H237164   8.848   1.872   3.959
12308WAT      O37165   4.115   8.425   6.684
12308WAT     H137166   4.075   8.438   6.593
12308WAT     H237167   4.147   8.514   6.718
12309WAT      O37168   7.084   9.460   5.535
12309WAT     H137169   7.094   9.560   5.530
12309WAT     H237170   6.989   9.436   5.512
12310WAT      O37171   0.166   7.924   8.691
12310WAT     H137172   0.196   8.008   8.737
12310WAT     H237173   0.067   7.925   8.682
12311WAT      O37174   7.739   2.054   1.431
12311WAT     H137175   7.648   2.094   1.421
12311WAT     H237176   7.799   2.088   1.358
12312WAT      O37177   5.706   6.275   4.905
12312WAT     H137178   5.687   6.373   4.913
12312WAT     H237179   5.782   6.260   4.843
12313WAT      O37180   5.836   5.547   7.438
12313WAT     H137181   5.792   5.636   7.429
12313WAT     H237182   5.848   5.525   7.535
12314WAT      O37183   0.757   6.987   2.176
12314WAT     H137184   0.816   6.926   2.229
12314WAT     H237185   0.801   7.007   2.089
12315WAT      O37186   3.878   9.734   2.435
12315WAT     H137187   3.940   9.664   2.472
12315WAT     H237188   3.786   9.718   2.468
12316WAT      O37189   1.389   8.824   2.097
12316WAT     H137190   1.300   8.868   2.103
12316WAT     H237191   1.443   8.865   2.024
12317WAT      O37192   7.140   7.853   8.983
12317WAT     H137193   7.121   7.948   9.009
12317WAT     H237194   7.054   7.804   8.967
12318WAT      O37195   6.944   8.148   3.225
12318WAT     H137196   6.909   8.224   3.279
12318WAT     H237197   7.044   8.146   3.231
12319WAT      O37198   8.721   2.068   8.584
12319WAT     H137199   8.700   2.011   8.505
12319WAT     H237200   8.819   2.062   8.603
12320WAT      O37201   7.003   0.483   3.965
12320WAT     H137202   6.956   0.505   4.050
12320WAT     H237203   7.091   0.439   3.986
12321WAT      O37204   1.062   8.735   5.218
12321WAT     H137205   1.122   8.677   5.273
12321WAT     H237206   1.033   8.686   5.136
12322WAT      O37207   2.393   7.811   0.484
12322WAT     H137208   2.433   7.861   0.407
12322WAT     H237209   2.421   7.855   0.570
12323WAT      O37210   7.239   2.850   6.932
12323WAT     H137211   7.242   2.777   7.000
12323WAT     H237212   7.256   2.812   6.841
12324WAT      O37213   9.543   7.085   9.374
12324WAT     H137214   9.608   7.160   9.387
12324WAT     H237215   9.461   7.103   9.429
12325WAT      O37216   9.377   0.240   9.391
12325WAT     H137217   9.412   0.181   9.464
12325WAT     H237218   9.411   0.208   9.302
12326WAT      O37219   1.341   0.592   8.535
12326WAT     H137220   1.292   0.514   8.574
12326WAT     H237221   1.311   0.606   8.440
12327WAT      O37222   1.708   8.297   1.588
12327WAT     H137223   1.765   8.379   1.585
12327WAT     H237224   1.717   8.254   1.678
12328WAT      O37225   6.032   0.257   2.484
12328WAT     H137226   6.127   0.247   2.453
12328WAT     H237227   6.027   0.328   2.554
12329WAT      O37228   2.564   5.677   5.270
12329WAT     H137229   2.490   5.610   5.276
12329WAT     H237230   2.535   5.753   5.212
12330WAT      O37231   4.483   6.470   8.648
12330WAT     H137232   4.503   6.411   8.726
12330WAT     H237233   4.559   6.468   8.584
12331WAT      O37234   2.094   7.443   0.462
12331WAT     H137235   2.020   7.494   0.505
12331WAT     H237236   2.169   7.505   0.440
12332WAT      O37237   6.995   2.817   2.391
12332WAT     H137238   6.995   2.890   2.323
12332WAT     H237239   6.916   2.758   2.376
12333WAT      O37240   2.679   8.386   0.615
12333WAT     H137241   2.624   8.345   0.542
12333WAT     H237242   2.694   8.483   0.594
12334WAT      O37243   2.514   4.519   9.316
12334WAT     H137244   2.480   4.599   9.366
12334WAT     H237245   2.480   4.522   9.222
12335WAT      O37246   3.639   6.959   0.776
12335WAT     H137247   3.693   6.895   0.832
12335WAT     H237248   3.698   7.003   0.709
12336WAT      O37249   3.527   3.648   4.114
12336WAT     H137250   3.593   3.618   4.183
12336WAT     H237251   3.548   3.742   4.087
12337WAT      O37252   7.614   8.335   9.348
12337WAT     H137253   7.628   8.426   9.308
12337WAT     H237254   7.671   8.325   9.429
12338WAT      O37255   2.093   2.738   8.022
12338WAT     H137256   2.119   2.648   8.057
12338WAT     H237257   1.994   2.745   8.016
12339WAT      O37258   0.594   0.913   1.937
12339WAT     H137259   0.550   0.832   1.897
12339WAT     H237260   0.665   0.884   2.001
12340WAT      O37261   7.538   4.325   2.225
12340WAT     H137262   7.534   4.425   2.232
12340WAT     H237263   7.515   4.297   2.132
12341WAT      O37264   1.786   5.381   2.425
12341WAT     H137265   1.783   5.479   2.408
12341WAT     H237266   1.771   5.332   2.339
12342WAT      O37267   9.120   2.057   3.974
12342WAT     H137268   9.183   2.008   3.914
12342WAT     H237269   9.057   1.991   4.015
12343WAT      O37270   4.875   7.697   0.350
12343WAT     H137271   4.778   7.722   0.354
12343WAT     H237272   4.925   7.770   0.302
12344WAT      O37273   7.265   5.348   5.879
12344WAT     H137274   7.348   5.386   5.920
12344WAT     H237275   7.205   5.422   5.850
12345WAT      O37276   6.210   6.678   3.697
12345WAT     H137277   6.116   6.711   3.693
12345WAT     H237278   6.210   6.581   3.723
12346WAT      O37279   4.196   5.992   8.363
12346WAT     H137280   4.267   6.029   8.302
12346WAT     H237281   4.109   5.988   8.314
12347WAT      O37282   0.987   3.859   4.346
12347WAT     H137283   0.946   3.773   4.376
12347WAT     H237284   1.085   3.859   4.368
12348WAT      O37285   8.432   9.476   9.622
12348WAT     H137286   8.491   9.417   9.567
12348WAT     H237287   8.488   9.535   9.679
12349WAT      O37288   2.688   8.913   3.466
12349WAT     H137289   2.786   8.929   3.462
12349WAT     H237290   2.665   8.869   3.553
12350WAT      O37291   0.724   7.151   8.787
12350WAT     H137292   0.740   7.200   8.701
12350WAT     H237293   0.699   7.057   8.768
12351WAT      O37294   3.923   4.534   7.669
12351WAT     H137295   3.927   4.569   7.763
12351WAT     H237296   3.829   4.544   7.634
12352WAT      O37297   5.153   9.829   5.653
12352WAT     H137298   5.181   9.770   5.577
12352WAT     H237299   5.092   9.900   5.618
12353WAT      O37300   1.207   6.688   3.773
12353WAT     H137301   1.262   6.771   3.766
12353WAT     H237302   1.203   6.659   3.868
12354WAT      O37303   4.628   0.309   2.166
12354WAT     H137304   4.631   0.403   2.132
12354WAT     H237305   4.575   0.253   2.102
12355WAT      O37306   7.253   2.102   7.639
12355WAT     H137307   7.161   2.139   7.652
12355WAT     H237308   7.293   2.140   7.556
12356WAT      O37309   7.829   9.327   6.077
12356WAT     H137310   7.885   9.337   6.160
12356WAT     H237311   7.732   9.333   6.101
12357WAT      O37312   1.636   7.649   7.789
12357WAT     H137313   1.635   7.729   7.729
12357WAT     H237314   1.542   7.622   7.810
12358WAT      O37315   8.954   9.840   9.741
12358WAT     H137316   8.948   9.748   9.779
12358WAT     H237317   8.890   9.849   9.665
12359WAT      O37318   7.313   1.992   9.425
12359WAT     H137319   7.295   1.894   9.418
12359WAT     H237320   7.229   2.043   9.410
12360WAT      O37321   8.313   9.754   4.459
12360WAT     H137322   8.318   9.662   4.498
12360WAT     H237323   8.293   9.819   4.532
12361WAT      O37324   9.535   5.706   9.760
12361WAT     H137325   9.472   5.743   9.692
12361WAT     H237326   9.615   5.765   9.766
12362WAT      O37327   2.745   7.407   9.285
12362WAT     H137328   2.785   7.407   9.194
12362WAT     H237329   2.755   7.316   9.326
12363WAT      O37330   7.660   7.109   8.986
12363WAT     H137331   7.582   7.157   9.025
12363WAT     H237332   7.743   7.136   9.034
12364WAT      O37333   3.990   4.883   1.290
12364WAT     H137334   3.961   4.909   1.381
12364WAT     H237335   4.073   4.933   1.265
12365WAT      O37336   6.184   2.670   5.768
12365WAT     H137337   6.278   2.695   5.743
12365WAT     H237338   6.153   2.726   5.844
12366WAT      O37339   5.385   6.316   6.357
12366WAT     H137340   5.459   6.254   6.332
12366WAT     H237341   5.399   6.349   6.451
12367WAT      O37342   3.996   2.028   2.221
12367WAT     H137343   4.084   2.074   2.235
12367WAT     H237344   3.944   2.075   2.150
12368WAT      O37345   1.292   3.234   2.181
12368WAT     H137346   1.335   3.165   2.123
12368WAT     H237347   1.336   3.233   2.271
12369WAT      O37348   7.995   9.744   4.156
12369WAT     H137349   8.019   9.833   4.194
12369WAT     H237350   8.005   9.674   4.226
12370WAT      O37351   8.995   3.052   0.664
12370WAT     H137352   8.944   3.027   0.581
12370WAT     H237353   8.936   3.107   0.723
12371WAT      O37354   0.392   5.950   6.583
12371WAT     H137355   0.398   5.898   6.668
12371WAT     H237356   0.437   5.900   6.509
12372WAT      O37357   1.492   3.662   6.678
12372WAT     H137358   1.520   3.696   6.768
12372WAT     H237359   1.570   3.660   6.617
12373WAT      O37360   1.552   0.618   7.974
12373WAT     H137361   1.470   0.574   8.013
12373WAT     H237362   1.627   0.611   8.040
12374WAT      O37363   3.328   6.054   5.861
12374WAT     H137364   3.359   6.057   5.766
12374WAT     H237365   3.394   6.003   5.915
12375WAT      O37366   0.763   1.208   2.395
12375WAT     H137367   0.803   1.298   2.414
12375WAT     H237368   0.707   1.180   2.473
12376WAT      O37369   2.434   7.629   1.645
12376WAT     H137370   2.508   7.676   1.598
12376WAT     H237371   2.436   7.652   1.742
12377WAT      O37372   4.613   0.537   1.613
12377WAT     H137373   4.592   0.486   1.530
12377WAT     H237374   4.548   0.613   1.623
12378WAT      O37375   3.592   8.900   4.451
12378WAT     H137376   3.544   8.976   4.493
12378WAT     H237377   3.691   8.916   4.455
12379WAT      O37378   4.838   8.540   2.325
12379WAT     H137379   4.800   8.529   2.233
12379WAT     H237380   4.934   8.568   2.319
12380WAT      O37381   9.555   5.886   8.989
12380WAT     H137382   9.492   5.859   8.916
12380WAT     H237383   9.605   5.968   8.961
12381WAT      O37384   9.043   3.782   7.509
12381WAT     H137385   8.945   3.766   7.497
12381WAT     H237386   9.067   3.873   7.475
12382WAT      O37387   2.635   3.291   3.398
12382WAT     H137388   2.589   3.308   3.485
12382WAT     H237389   2.629   3.373   3.341
12383WAT      O37390   9.142   1.689   2.309
12383WAT     H137391   9.091   1.633   2.244
12383WAT     H237392   9.162   1.778   2.268
12384WAT      O37393   0.231   7.018   5.653
12384WAT     H137394   0.316   7.019   5.599
12384WAT     H237395   0.241   6.952   5.728
12385WAT      O37396   5.302   4.653   6.576
12385WAT     H137397   5.272   4.660   6.481
12385WAT     H237398   5.337   4.560   6.593
12386WAT      O37399   0.424   6.288   3.059
12386WAT     H137400   0.397   6.260   3.152
12386WAT     H237401   0.383   6.226   2.992
12387WAT      O37402   6.985   1.144   5.500
12387WAT     H137403   6.931   1.128   5.583
12387WAT     H237404   7.060   1.207   5.521
12388WAT      O37405   5.747   9.325   6.330
12388WAT     H137406   5.808   9.291   6.402
12388WAT     H237407   5.695   9.403   6.364
12389WAT      O37408   3.792   1.684   6.354
12389WAT     H137409   3.753   1.702   6.264
12389WAT     H237410   3.876   1.630   6.343
12390WAT      O37411   3.316   1.153   0.772
12390WAT     H137412   3.338   1.226   0.706
12390WAT     H237413   3.257   1.190   0.844
12391WAT      O37414   8.671   8.790   2.974
12391WAT     H137415   8.643   8.706   2.927
12391WAT     H237416   8.757   8.822   2.936
12392WAT      O37417   6.757   4.032   2.242
12392WAT     H137418   6.800   3.960   2.296
12392WAT     H237419   6.777   4.019   2.146
12393WAT      O37420   3.932   7.978   7.726
12393WAT     H137421   3.882   7.897   7.755
12393WAT     H237422   4.013   7.990   7.784
12394WAT      O37423   5.442   0.427   8.777
12394WAT     H137424   5.474   0.509   8.824
12394WAT     H237425   5.503   0.350   8.798
12395WAT      O37426   3.180   6.844   4.054
12395WAT     H137427   3.256   6.902   4.023
12395WAT     H237428   3.129   6.811   3.974
12396WAT      O37429   9.241   8.589   7.673
12396WAT     H137430   9.243   8.489   7.682
12396WAT     H237431   9.334   8.623   7.658
12397WAT      O37432   5.266   5.373   0.110
12397WAT     H137433   5.186   5.409   0.062
12397WAT     H237434   5.242   5.352   0.205
12398WAT      O37435   6.916   9.346   6.293
12398WAT     H137436   6.990   9.382   6.350
12398WAT     H237437   6.834   9.400   6.307
12399WAT      O37438   2.143   7.954   6.568
12399WAT     H137439   2.182   8.033   6.615
12399WAT     H237440   2.087   7.985   6.491
12400WAT      O37441   1.774   4.761   9.272
12400WAT     H137442   1.796   4.756   9.369
12400WAT     H237443   1.766   4.669   9.234
12401WAT      O37444   9.284   1.024   5.284
12401WAT     H137445   9.227   0.999   5.362
12401WAT     H237446   9.358   1.084   5.316
12402WAT      O37447   9.243   4.267   3.622
12402WAT     H137448   9.250   4.242   3.526
12402WAT     H237449   9.316   4.222   3.674
12403WAT      O37450   2.280   1.548   2.198
12403WAT     H137451   2.288   1.527   2.100
12403WAT     H237452   2.222   1.478   2.242
12404WAT      O37453   9.377   3.606   8.738
12404WAT     H137454   9.413   3.526   8.787
12404WAT     H237455   9.321   3.575   8.661
12405WAT      O37456   8.122   9.282   7.699
12405WAT     H137457   8.111   9.184   7.683
12405WAT     H237458   8.052   9.332   7.648
12406WAT      O37459   1.860   2.924   9.215
12406WAT     H137460   1.939   2.876   9.177
12406WAT     H237461   1.891   2.990   9.284
12407WAT      O37462   1.633   9.464   2.245
12407WAT     H137463   1.648   9.504   2.154
12407WAT     H237464   1.572   9.523   2.297
12408WAT      O37465   4.560   8.498   3.994
12408WAT     H137466   4.482   8.492   3.930
12408WAT     H237467   4.602   8.588   3.986
12409WAT      O37468   0.343   3.514   0.806
12409WAT     H137469   0.380   3.439   0.749
12409WAT     H237470   0.244   3.502   0.816
12410WAT      O37471   2.885   6.666   6.397
12410WAT     H137472   2.855   6.760   6.414
12410WAT     H237473   2.808   6.604   6.409
12411WAT      O37474   8.906   1.397   9.866
12411WAT     H137475   8.836   1.326   9.871
12411WAT     H237476   8.996   1.354   9.855
12412WAT      O37477   3.778   4.548   8.485
12412WAT     H137478   3.852   4.541   8.419
12412WAT     H237479   3.808   4.604   8.563
12413WAT      O37480   1.390   3.271   5.796
12413WAT     H137481   1.329   3.338   5.839
12413WAT     H237482   1.432   3.214   5.867
12414WAT      O37483   5.111   7.650   4.559
12414WAT     H137484   5.176   7.715   4.597
12414WAT     H237485   5.093   7.672   4.463
12415WAT      O37486   6.376   9.334   2.982
12415WAT     H137487   6.434   9.271   3.034
12415WAT     H237488   6.430   9.377   2.910
12416WAT      O37489   0.107   5.762   7.781
12416WAT     H137490   0.080   5.763   7.877
12416WAT     H237491   0.028   5.780   7.723
12417WAT      O37492   8.092   5.089   8.200
12417WAT     H137493   8.125   5.184   8.198
12417WAT     H237494   8.102   5.052   8.293
12418WAT      O37495   7.375   3.159   1.193
12418WAT     H137496   7.446   3.091   1.173
12418WAT     H237497   7.292   3.111   1.222
12419WAT      O37498   8.803   7.725   7.920
12419WAT     H137499   8.869   7.692   7.987
12419WAT     H237500   8.806   7.667   7.838
12420WAT      O37501   4.178   6.409   1.121
12420WAT     H137502   4.109   6.480   1.136
12420WAT     H237503   4.197   6.401   1.024
12421WAT      O37504   0.235   5.996   1.232
12421WAT     H137505   0.307   6.058   1.263
12421WAT     H237506   0.179   6.043   1.164
12422WAT      O37507   3.004   4.628   8.504
12422WAT     H137508   2.921   4.655   8.455
12422WAT     H237509   2.978   4.581   8.589
12423WAT      O37510   5.952   1.102   0.360
12423WAT     H137511   5.967   1.195   0.394
12423WAT     H237512   6.006   1.037   0.414
12424WAT      O37513   5.194   6.884   3.418
12424WAT     H137514   5.124   6.938   3.463
12424WAT     H237515   5.203   6.914   3.323
12425WAT      O37516   3.226   4.779   8.448
12425WAT     H137517   3.133   4.764   8.481
12425WAT     H237518   3.270   4.848   8.505
12426WAT      O37519   1.746   7.298   3.202
12426WAT     H137520   1.796   7.236   3.142
12426WAT     H237521   1.682   7.353   3.149
12427WAT      O37522   0.725   2.813   4.751
12427WAT     H137523   0.661   2.754   4.701
12427WAT     H237524   0.814   2.812   4.705
12428WAT      O37525   2.825   5.309   1.532
12428WAT     H137526   2.783   5.246   1.598
12428WAT     H237527   2.828   5.401   1.573
12429WAT      O37528   1.043   2.631   1.558
12429WAT     H137529   0.945   2.651   1.564
12429WAT     H237530   1.095   2.708   1.594
12430WAT      O37531   4.165   8.874   0.279
12430WAT     H137532   4.254   8.846   0.245
12430WAT     H237533   4.177   8.943   0.351
12431WAT      O37534   7.142   1.961   3.447
12431WAT     H137535   7.061   1.905   3.433
12431WAT     H237536   7.170   2.002   3.360
12432WAT      O37537   9.286   0.679   8.899
12432WAT     H137538   9.290   0.669   8.800
12432WAT     H237539   9.342   0.609   8.942
12433WAT      O37540   8.641   5.633   7.936
12433WAT     H137541   8.609   5.622   8.031
12433WAT     H237542   8.718   5.697   7.935
12434WAT      O37543   5.348   5.911   1.600
12434WAT     H137544   5.443   5.928   1.625
12434WAT     H237545   5.345   5.873   1.507
12435WAT      O37546   5.061   5.411   3.240
12435WAT     H137547   5.145   5.466   3.238
12435WAT     H237548   5.059   5.352   3.160
12436WAT      O37549   1.934   0.784   0.367
12436WAT     H137550   1.980   0.816   0.449
12436WAT     H237551   1.976   0.825   0.286
12437WAT      O37552   8.589   6.244   6.406
12437WAT     H137553   8.589   6.210   6.312
12437WAT     H237554   8.676   6.224   6.450
12438WAT      O37555   1.902   8.003   0.992
12438WAT     H137556   1.848   7.987   0.909
12438WAT     H237557   1.847   7.981   1.073
12439WAT      O37558   7.462   3.831   3.533
12439WAT     H137559   7.416   3.744   3.517
12439WAT     H237560   7.477   3.844   3.631
12440WAT      O37561   5.995   2.193   6.666
12440WAT     H137562   5.991   2.146   6.578
12440WAT     H237563   5.908   2.237   6.685
12441WAT      O37564   3.152   7.514   8.316
12441WAT     H137565   3.173   7.421   8.345
12441WAT     H237566   3.219   7.545   8.249
12442WAT      O37567   3.841   2.591   3.227
12442WAT     H137568   3.939   2.605   3.246
12442WAT     H237569   3.820   2.625   3.135
12443WAT      O37570   1.868   8.516   3.917
12443WAT     H137571   1.912   8.465   3.991
12443WAT     H237572   1.819   8.453   3.857
12444WAT      O37573   3.655   5.409   4.635
12444WAT     H137574   3.730   5.353   4.601
12444WAT     H237575   3.674   5.438   4.729
12445WAT      O37576   2.839   1.841   4.121
12445WAT     H137577   2.847   1.760   4.062
12445WAT     H237578   2.788   1.817   4.203
12446WAT      O37579   7.864   8.363   3.300
12446WAT     H137580   7.831   8.449   3.340
12446WAT     H237581   7.815   8.346   3.214
12447WAT      O37582   5.193   5.136   7.810
12447WAT     H137583   5.104   5.095   7.788
12447WAT     H237584   5.184   5.236   7.814
12448WAT      O37585   7.684   1.780   2.833
12448WAT     H137586   7.587   1.794   2.815
12448WAT     H237587   7.727   1.737   2.753
12449WAT      O37588   6.357   9.665   7.768
12449WAT     H137589   6.280   9.727   7.751
12449WAT     H237590   6.443   9.715   7.760
12450WAT      O37591   9.752   5.354   1.783
12450WAT     H137592   9.698   5.273   1.758
12450WAT     H237593   9.760   5.414   1.703
12451WAT      O37594   6.030   3.795   7.923
12451WAT     H137595   5.957   3.856   7.952
12451WAT     H237596   6.117   3.824   7.963
12452WAT      O37597   4.590   7.318   5.459
12452WAT     H137598   4.494   7.343   5.475
12452WAT     H237599   4.649   7.374   5.518
12453WAT      O37600   9.753   2.661   5.260
12453WAT     H137601   9.721   2.647   5.167
12453WAT     H237602   9.785   2.755   5.271
12454WAT      O37603   2.112   6.491   8.612
12454WAT     H137604   2.118   6.404   8.661
12454WAT     H237605   2.018   6.506   8.583
12455WAT      O37606   5.459   2.291   6.351
12455WAT     H137607   5.543   2.346   6.352
12455WAT     H237608   5.436   2.265   6.445
12456WAT      O37609   6.679   8.820   5.380
12456WAT     H137610   6.586   8.858   5.378
12456WAT     H237611   6.681   8.734   5.329
12457WAT      O37612   1.558   0.939   4.772
12457WAT     H137613   1.619   0.963   4.696
12457WAT     H237614   1.555   0.839   4.781
12458WAT      O37615   4.797   2.741   0.163
12458WAT     H137616   4.782   2.834   0.197
12458WAT     H237617   4.767   2.675   0.232
12459WAT      O37618   9.350   3.889   0.744
12459WAT     H137619   9.322   3.974   0.788
12459WAT     H237620   9.413   3.840   0.804
12460WAT      O37621   8.392   8.631   1.425
12460WAT     H137622   8.421   8.577   1.346
12460WAT     H237623   8.471   8.648   1.484
12461WAT      O37624   1.150   1.000   2.456
12461WAT     H137625   1.239   0.955   2.459
12461WAT     H237626   1.121   1.009   2.361
12462WAT      O37627   8.557   8.256   8.482
12462WAT     H137628   8.622   8.272   8.408
12462WAT     H237629   8.576   8.168   8.525
12463WAT      O37630   6.052   7.003   1.922
12463WAT     H137631   6.086   6.963   1.837
12463WAT     H237632   6.007   6.932   1.977
12464WAT      O37633   3.713   8.020   3.598
12464WAT     H137634   3.739   8.115   3.577
12464WAT     H237635   3.712   7.966   3.515
12465WAT      O37636   6.273   4.867   8.177
12465WAT     H137637   6.347   4.913   8.225
12465WAT     H237638   6.269   4.900   8.082
12466WAT      O37639   8.048   1.712   3.840
12466WAT     H137640   8.066   1.807   3.867
12466WAT     H237641   8.081   1.650   3.911
12467WAT      O37642   7.748   7.300   5.856
12467WAT     H137643   7.656   7.271   5.883
12467WAT     H237644   7.814   7.268   5.924
12468WAT      O37645   7.658   7.460   6.542
12468WAT     H137646   7.564   7.475   6.572
12468WAT     H237647   7.665   7.480   6.444
12469WAT      O37648   5.886   5.832   8.892
12469WAT     H137649   5.982   5.837   8.918
12469WAT     H237650   5.868   5.746   8.845
12470WAT      O37651   3.411   9.838   9.055
12470WAT     H137652   3.483   9.875   9.115
12470WAT     H237653   3.430   9.742   9.036
12471WAT      O37654   5.930   0.572   6.220
12471WAT     H137655   6.026   0.598   6.208
12471WAT     H237656   5.871   0.640   6.177
12472WAT      O37657   8.305   3.859   3.464
12472WAT     H137658   8.272   3.879   3.371
12472WAT     H237659   8.269   3.771   3.494
12473WAT      O37660   7.205   9.759   2.905
12473WAT     H137661   7.133   9.699   2.869
12473WAT     H237662   7.185   9.853   2.879
12474WAT      O37663   5.401   5.945   9.821
12474WAT     H137664   5.354   5.873   9.769
12474WAT     H237665   5.334   5.992   9.879
12475WAT      O37666   9.325   3.185   5.025
12475WAT     H137667   9.409   3.195   5.080
12475WAT     H237668   9.337   3.231   4.938
12476WAT      O37669   2.953   3.428   8.504
12476WAT     H137670   2.943   3.500   8.435
12476WAT     H237671   2.936   3.339   8.462
12477WAT      O37672   0.466   0.788   7.774
12477WAT     H137673   0.545   0.780   7.834
12477WAT     H237674   0.396   0.723   7.802
12478WAT      O37675   8.392   8.109   6.615
12478WAT     H137676   8.299   8.081   6.590
12478WAT     H237677   8.432   8.040   6.675
12479WAT      O37678   1.022   3.761   8.085
12479WAT     H137679   0.928   3.725   8.086
12479WAT     H237680   1.079   3.705   8.145
12480WAT      O37681   8.051   2.381   0.810
12480WAT     H137682   8.041   2.453   0.879
12480WAT     H237683   7.965   2.371   0.759
12481WAT      O37684   6.445   9.312   2.056
12481WAT     H137685   6.503   9.231   2.043
12481WAT     H237686   6.381   9.294   2.131
12482WAT      O37687   8.606   7.680   0.588
12482WAT     H137688   8.577   7.715   0.499
12482WAT     H237689   8.549   7.602   0.614
12483WAT      O37690   8.033   3.266   1.833
12483WAT     H137691   7.960   3.246   1.768
12483WAT     H237692   7.999   3.259   1.926
12484WAT      O37693   7.985   1.794   6.267
12484WAT     H137694   8.014   1.700   6.279
12484WAT     H237695   7.887   1.797   6.249
12485WAT      O37696   0.845   0.703   1.565
12485WAT     H137697   0.942   0.722   1.556
12485WAT     H237698   0.831   0.605   1.579
12486WAT      O37699   6.480   9.797   6.481
12486WAT     H137700   6.484   9.756   6.572
12486WAT     H237701   6.433   9.735   6.419
12487WAT      O37702   6.540   1.754   3.963
12487WAT     H137703   6.536   1.654   3.954
12487WAT     H237704   6.634   1.782   3.982
12488WAT      O37705   3.834   7.598   5.871
12488WAT     H137706   3.808   7.672   5.934
12488WAT     H237707   3.874   7.638   5.789
12489WAT      O37708   5.788   9.007   0.827
12489WAT     H137709   5.779   8.919   0.872
12489WAT     H237710   5.709   9.064   0.847
12490WAT      O37711   1.308   9.360   4.383
12490WAT     H137712   1.231   9.323   4.434
12490WAT     H237713   1.329   9.301   4.305
12491WAT      O37714   5.262   5.494   9.200
12491WAT     H137715   5.178   5.494   9.253
12491WAT     H237716   5.323   5.422   9.235
12492WAT      O37717   6.992   5.614   4.027
12492WAT     H137718   6.973   5.555   4.105
12492WAT     H237719   7.027   5.702   4.058
12493WAT      O37720   3.934   7.996   7.454
12493WAT     H137721   3.958   7.988   7.551
12493WAT     H237722   3.838   8.024   7.445
12494WAT      O37723   8.290   5.166   6.864
12494WAT     H137724   8.376   5.152   6.813
12494WAT     H237725   8.225   5.094   6.839
12495WAT      O37726   4.460   2.642   4.737
12495WAT     H137727   4.458   2.722   4.677
12495WAT     H237728   4.473   2.559   4.682
12496WAT      O37729   3.334   9.777   3.330
12496WAT     H137730   3.400   9.800   3.258
12496WAT     H237731   3.373   9.705   3.388
12497WAT      O37732   1.537   7.161   0.794
12497WAT     H137733   1.526   7.147   0.893
12497WAT     H237734   1.632   7.182   0.774
12498WAT      O37735   7.258   6.491   1.677
12498WAT     H137736   7.285   6.573   1.626
12498WAT     H237737   7.306   6.411   1.642
12499WAT      O37738   8.211   4.237   6.444
12499WAT     H137739   8.165   4.285   6.370
12499WAT     H237740   8.198   4.287   6.530
12500WAT      O37741   7.258   5.949   6.763
12500WAT     H137742   7.182   5.908   6.712
12500WAT     H237743   7.336   5.887   6.760
12501WAT      O37744   9.314   9.592   1.200
12501WAT     H137745   9.370   9.656   1.253
12501WAT     H237746   9.231   9.570   1.251
12502WAT      O37747   0.162   8.562   8.845
12502WAT     H137748   0.073   8.595   8.879
12502WAT     H237749   0.230   8.571   8.918
12503WAT      O37750   7.424   2.615   1.144
12503WAT     H137751   7.365   2.546   1.103
12503WAT     H237752   7.520   2.591   1.129
12504WAT      O37753   7.899   9.584   2.012
12504WAT     H137754   7.976   9.587   2.075
12504WAT     H237755   7.875   9.489   1.992
12505WAT      O37756   1.869   9.030   7.339
12505WAT     H137757   1.847   8.947   7.288
12505WAT     H237758   1.796   9.098   7.324
12506WAT      O37759   1.030   0.039   2.102
12506WAT     H137760   0.993   0.131   2.089
12506WAT     H237761   0.957  -0.021   2.135
12507WAT      O37762   7.770   2.597   6.328
12507WAT     H137763   7.820   2.511   6.322
12507WAT     H237764   7.782   2.649   6.243
12508WAT      O37765   7.078   7.863   8.183
12508WAT     H137766   7.081   7.772   8.141
12508WAT     H237767   6.983   7.886   8.206
12509WAT      O37768   7.644   1.820   3.652
12509WAT     H137769   7.561   1.763   3.651
12509WAT     H237770   7.636   1.889   3.723
12510WAT      O37771   8.845   0.305   1.168
12510WAT     H137772   8.891   0.325   1.255
12510WAT     H237773   8.796   0.218   1.175
12511WAT      O37774   2.495   9.378   4.011
12511WAT     H137775   2.395   9.384   4.002
12511WAT     H237776   2.530   9.465   4.048
12512WAT      O37777   5.487   3.258   2.647
12512WAT     H137778   5.519   3.263   2.553
12512WAT     H237779   5.564   3.236   2.707
12513WAT      O37780   4.809   1.872   3.551
12513WAT     H137781   4.726   1.848   3.601
12513WAT     H237782   4.882   1.808   3.576
12514WAT      O37783   9.529   4.443   4.851
12514WAT     H137784   9.431   4.461   4.850
12514WAT     H237785   9.571   4.490   4.930
12515WAT      O37786   3.655   5.561   9.395
12515WAT     H137787   3.641   5.535   9.300
12515WAT     H237788   3.708   5.490   9.441
12516WAT      O37789   1.403   4.836   2.797
12516WAT     H137790   1.494   4.803   2.824
12516WAT     H237791   1.411   4.925   2.752
12517WAT      O37792   7.585   7.857   9.139
12517WAT     H137793   7.571   7.937   9.198
12517WAT     H237794   7.551   7.775   9.186
12518WAT      O37795   4.121   4.799   8.216
12518WAT     H137796   4.023   4.817   8.215
12518WAT     H237797   4.139   4.715   8.268
12519WAT      O37798   9.082   7.063   9.557
12519WAT     H137799   9.017   7.073   9.632
12519WAT     H237800   9.054   6.987   9.498
12520WAT      O37801   6.084   2.735   8.400
12520WAT     H137802   6.171   2.782   8.413
12520WAT     H237803   6.009   2.800   8.412
12521WAT      O37804   9.100   2.957   2.367
12521WAT     H137805   9.068   2.881   2.310
12521WAT     H237806   9.191   2.934   2.403
12522WAT      O37807   7.316   8.764   1.908
12522WAT     H137808   7.253   8.829   1.951
12522WAT     H237809   7.318   8.780   1.809
12523WAT      O37810   6.210   1.726   9.690
12523WAT     H137811   6.266   1.793   9.738
12523WAT     H237812   6.269   1.662   9.641
12524WAT      O37813   0.475   2.743   8.438
12524WAT     H137814   0.525   2.737   8.352
12524WAT     H237815   0.483   2.836   8.475
12525WAT      O37816   6.092   3.183   6.355
12525WAT     H137817   6.028   3.253   6.386
12525WAT     H237818   6.065   3.094   6.394
12526WAT      O37819   4.050   5.882   3.515
12526WAT     H137820   4.077   5.979   3.513
12526WAT     H237821   4.014   5.855   3.426
12527WAT      O37822   2.993   8.428   4.894
12527WAT     H137823   3.047   8.501   4.936
12527WAT     H237824   3.053   8.361   4.851
12528WAT      O37825   9.720   9.842   3.807
12528WAT     H137826   9.763   9.778   3.745
12528WAT     H237827   9.623   9.852   3.783
12529WAT      O37828   8.103   9.684   7.452
12529WAT     H137829   8.111   9.604   7.392
12529WAT     H237830   8.115   9.655   7.547
12530WAT      O37831   2.333   0.904   9.184
12530WAT     H137832   2.248   0.856   9.203
12530WAT     H237833   2.327   0.950   9.095
12531WAT      O37834   1.691   5.943   4.238
12531WAT     H137835   1.608   5.912   4.285
12531WAT     H237836   1.770   5.891   4.271
12532WAT      O37837   6.174   4.493   8.375
12532WAT     H137838   6.247   4.491   8.442
12532WAT     H237839   6.137   4.586   8.369
12533WAT      O37840   0.061   7.878   6.151
12533WAT     H137841   0.148   7.833   6.136
12533WAT     H237842   0.076   7.977   6.160
12534WAT      O37843   2.538   2.856   9.642
12534WAT     H137844   2.595   2.844   9.560
12534WAT     H237845   2.548   2.950   9.676
12535WAT      O37846   6.651   7.954   4.642
12535WAT     H137847   6.651   7.855   4.656
12535WAT     H237848   6.598   7.976   4.561
12536WAT      O37849   9.590   4.041   5.628
12536WAT     H137850   9.593   3.945   5.658
12536WAT     H237851   9.552   4.098   5.701
12537WAT      O37852   7.892   2.636   6.993
12537WAT     H137853   7.958   2.665   6.924
12537WAT     H237854   7.932   2.562   7.048
12538WAT      O37855   3.519   9.713   5.219
12538WAT     H137856   3.610   9.719   5.259
12538WAT     H237857   3.489   9.805   5.192
12539WAT      O37858   5.905   7.829   8.612
12539WAT     H137859   5.969   7.818   8.688
12539WAT     H237860   5.954   7.821   8.525
12540WAT      O37861   5.992   0.973   7.833
12540WAT     H137862   5.999   1.042   7.905
12540WAT     H237863   5.952   0.889   7.872
12541WAT      O37864   6.119   4.426   1.778
12541WAT     H137865   6.135   4.458   1.685
12541WAT     H237866   6.204   4.431   1.830
12542WAT      O37867   1.217   1.379   2.927
12542WAT     H137868   1.231   1.290   2.884
12542WAT     H237869   1.126   1.382   2.968
12543WAT      O37870   2.699   2.324   4.941
12543WAT     H137871   2.783   2.344   4.991
12543WAT     H237872   2.629   2.292   5.005
12544WAT      O37873   5.225   6.225   7.599
12544WAT     H137874   5.215   6.324   7.587
12544WAT     H237875   5.280   6.188   7.524
12545WAT      O37876   4.725   5.182   8.804
12545WAT     H137877   4.652   5.114   8.798
12545WAT     H237878   4.717   5.246   8.727
12546WAT      O37879   3.884   0.158   2.503
12546WAT     H137880   3.900   0.061   2.485
12546WAT     H237881   3.963   0.211   2.473
12547WAT      O37882   7.370   8.760   7.561
12547WAT     H137883   7.392   8.769   7.464
12547WAT     H237884   7.292   8.818   7.582
12548WAT      O37885   6.703   9.005   0.120
12548WAT     H137886   6.773   8.994   0.050
12548WAT     H237887   6.730   9.079   0.183
12549WAT      O37888   4.709   4.496   7.773
12549WAT     H137889   4.808   4.509   7.782
12549WAT     H237890   4.689   4.398   7.778
12550WAT      O37891   5.169   1.125   7.176
12550WAT     H137892   5.198   1.142   7.270
12550WAT     H237893   5.249   1.115   7.117
12551WAT      O37894   7.645   6.833   2.841
12551WAT     H137895   7.560   6.872   2.805
12551WAT     H237896   7.623   6.768   2.914
12552WAT      O37897   6.930   8.335   2.345
12552WAT     H137898   7.027   8.318   2.325
12552WAT     H237899   6.916   8.332   2.444
12553WAT      O37900   9.776   2.209   3.666
12553WAT     H137901   9.732   2.196   3.577
12553WAT     H237902   9.709   2.193   3.739
12554WAT      O37903   3.217   7.834   1.844
12554WAT     H137904   3.291   7.823   1.778
12554WAT     H237905   3.216   7.757   1.908
12555WAT      O37906   5.097   6.009   9.100
12555WAT     H137907   5.135   5.930   9.146
12555WAT     H237908   5.086   5.989   9.002
12556WAT      O37909   6.499   5.050   2.031
12556WAT     H137910   6.490   5.054   1.931
12556WAT     H237911   6.476   5.139   2.070
12557WAT      O37912   2.128   3.083   6.873
12557WAT     H137913   2.185   3.001   6.860
12557WAT     H237914   2.145   3.147   6.799
12558WAT      O37915   7.147   7.577   1.899
12558WAT     H137916   7.182   7.484   1.907
12558WAT     H237917   7.198   7.638   1.959
12559WAT      O37918   1.499   4.002   2.955
12559WAT     H137919   1.553   3.962   2.881
12559WAT     H237920   1.560   4.040   3.024
12560WAT      O37921   1.233   9.431   7.941
12560WAT     H137922   1.229   9.494   7.863
12560WAT     H237923   1.260   9.340   7.909
12561WAT      O37924   4.520   1.283   2.204
12561WAT     H137925   4.540   1.259   2.299
12561WAT     H237926   4.514   1.382   2.195
12562WAT      O37927   9.563   6.561   3.522
12562WAT     H137928   9.499   6.521   3.587
12562WAT     H237929   9.561   6.661   3.530
12563WAT      O37930   6.520   1.152   4.405
12563WAT     H137931   6.567   1.096   4.473
12563WAT     H237932   6.436   1.105   4.376
12564WAT      O37933   9.083   5.635   3.425
12564WAT     H137934   9.091   5.715   3.367
12564WAT     H237935   9.163   5.576   3.413
12565WAT      O37936   4.820   4.935   2.340
12565WAT     H137937   4.757   4.891   2.404
12565WAT     H237938   4.908   4.889   2.343
12566WAT      O37939   8.560   2.534   6.027
12566WAT     H137940   8.549   2.539   6.127
12566WAT     H237941   8.564   2.627   5.989
12567WAT      O37942   3.776   9.443   7.061
12567WAT     H137943   3.683   9.406   7.071
12567WAT     H237944   3.786   9.521   7.122
12568WAT      O37945   5.808   3.634   5.101
12568WAT     H137946   5.761   3.604   5.018
12568WAT     H237947   5.897   3.588   5.107
12569WAT      O37948   3.190   2.457   4.622
12569WAT     H137949   3.146   2.390   4.562
12569WAT     H237950   3.270   2.496   4.576
12570WAT      O37951   1.173   7.286   4.926
12570WAT     H137952   1.123   7.337   4.995
12570WAT     H237953   1.227   7.215   4.970
12571WAT      O37954   7.701   5.321   5.072
12571WAT     H137955   7.695   5.413   5.110
12571WAT     H237956   7.653   5.257   5.131
12572WAT      O37957   3.331   7.821   6.221
12572WAT     H137958   3.347   7.905   6.170
12572WAT     H237959   3.418   7.789   6.260
12573WAT      O37960   6.207   8.312   0.601
12573WAT     H137961   6.198   8.366   0.684
12573WAT     H237962   6.162   8.223   0.613
12574WAT      O37963   7.246   0.035   7.076
12574WAT     H137964   7.147   0.022   7.061
12574WAT     H237965   7.290  -0.055   7.084
12575WAT      O37966   3.038   6.314   1.850
12575WAT     H137967   2.958   6.262   1.880
12575WAT     H237968   3.021   6.412   1.860
12576WAT      O37969   2.418   4.316   5.021
12576WAT     H137970   2.512   4.340   4.997
12576WAT     H237971   2.410   4.216   5.027
12577WAT      O37972   8.548   4.633   1.412
12577WAT     H137973   8.554   4.550   1.467
12577WAT     H237974   8.465   4.631   1.356
12578WAT      O37975   4.969   4.414   1.831
12578WAT     H137976   5.024   4.377   1.756
12578WAT     H237977   4.985   4.513   1.838
12579WAT      O37978   3.451   0.845   9.551
12579WAT     H137979   3.465   0.757   9.596
12579WAT     H237980   3.383   0.898   9.603
12580WAT      O37981   8.283   3.493   5.716
12580WAT     H137982   8.254   3.473   5.623
12580WAT     H237983   8.234   3.573   5.751
12581WAT      O37984   5.013   4.708   6.913
12581WAT     H137985   5.107   4.685   6.888
12581WAT     H237986   4.998   4.688   7.010
12582WAT      O37987   9.445   4.092   0.247
12582WAT     H137988   9.418   4.094   0.344
12582WAT     H237989   9.434   4.183   0.207
12583WAT      O37990   5.603   5.435   3.624
12583WAT     H137991   5.513   5.418   3.584
12583WAT     H237992   5.593   5.458   3.721
12584WAT      O37993   6.575   5.726   3.176
12584WAT     H137994   6.519   5.686   3.104
12584WAT     H237995   6.541   5.696   3.265
12585WAT      O37996   7.117   6.450   0.645
12585WAT     H137997   7.095   6.376   0.581
12585WAT     H237998   7.034   6.504   0.663
12586WAT      O37999   9.159   0.642   1.983
12586WAT     H138000   9.207   0.557   1.964
12586WAT     H238001   9.155   0.698   1.901
12587WAT      O38002   0.330   6.730   8.855
12587WAT     H138003   0.301   6.757   8.763
12587WAT     H238004   0.265   6.766   8.922
12588WAT      O38005   4.178   2.319   5.744
12588WAT     H138006   4.092   2.332   5.794
12588WAT     H238007   4.236   2.399   5.756
12589WAT      O38008   1.443   7.601   7.517
12589WAT     H138009   1.535   7.640   7.528
12589WAT     H238010   1.408   7.623   7.426
12590WAT      O38011   4.256   4.239   6.893
12590WAT     H138012   4.157   4.224   6.887
12590WAT     H238013   4.281   4.258   6.988
12591WAT      O38014   4.517   8.061   6.687
12591WAT     H138015   4.447   8.126   6.716
12591WAT     H238016   4.603   8.082   6.733
12592WAT      O38017   0.545   7.110   0.882
12592WAT     H138018   0.492   7.036   0.924
12592WAT     H238019   0.483   7.170   0.831
12593WAT      O38020   5.073   5.000   4.415
12593WAT     H138021   5.044   4.915   4.371
12593WAT     H238022   5.096   5.067   4.346
12594WAT      O38023   9.866   0.720   5.323
12594WAT     H138024   9.913   0.796   5.278
12594WAT     H238025   9.776   0.707   5.283
12595WAT      O38026   3.010   9.004   0.229
12595WAT     H138027   2.985   9.098   0.206
12595WAT     H238028   3.088   8.976   0.174
12596WAT      O38029   2.939   4.462   5.709
12596WAT     H138030   2.869   4.395   5.683
12596WAT     H238031   2.910   4.509   5.792
12597WAT      O38032   0.047   8.610   7.382
12597WAT     H138033   0.134   8.654   7.404
12597WAT     H238034  -0.023   8.680   7.370
12598WAT      O38035   2.858   1.259   1.194
12598WAT     H138036   2.798   1.190   1.153
12598WAT     H238037   2.817   1.293   1.278
12599WAT      O38038   6.155   4.843   2.440
12599WAT     H138039   6.073   4.898   2.454
12599WAT     H238040   6.151   4.799   2.350
12600WAT      O38041   5.968   4.002   8.206
12600WAT     H138042   5.939   4.097   8.219
12600WAT     H238043   5.891   3.949   8.170
12601WAT      O38044   1.134   9.526   5.345
12601WAT     H138045   1.122   9.433   5.380
12601WAT     H238046   1.068   9.542   5.271
12602WAT      O38047   2.128   8.171   7.743
12602WAT     H138048   2.037   8.130   7.742
12602WAT     H238049   2.120   8.270   7.731
12603WAT      O38050   2.146   3.966   7.664
12603WAT     H138051   2.197   4.021   7.731
12603WAT     H238052   2.197   3.882   7.644
12604WAT      O38053   8.552   9.014   1.061
12604WAT     H138054   8.506   9.074   0.995
12604WAT     H238055   8.496   9.006   1.143
12605WAT      O38056   4.515   1.748   0.413
12605WAT     H138057   4.542   1.814   0.484
12605WAT     H238058   4.597   1.709   0.371
12606WAT      O38059   8.628   6.496   9.440
12606WAT     H138060   8.555   6.520   9.377
12606WAT     H238061   8.699   6.444   9.391
12607WAT      O38062   2.842   7.229   0.993
12607WAT     H138063   2.889   7.247   0.907
12607WAT     H238064   2.897   7.164   1.047
12608WAT      O38065   7.201   8.560   2.137
12608WAT     H138066   7.281   8.594   2.086
12608WAT     H238067   7.199   8.603   2.227
12609WAT      O38068   9.725   4.001   7.547
12609WAT     H138069   9.640   4.053   7.558
12609WAT     H238070   9.715   3.939   7.469
12610WAT      O38071   6.672   4.230   8.720
12610WAT     H138072   6.681   4.273   8.630
12610WAT     H238073   6.701   4.134   8.714
12611WAT      O38074   1.907   7.973   7.785
12611WAT     H138075   1.812   7.944   7.795
12611WAT     H238076   1.965   7.892   7.776
12612WAT      O38077   2.320   8.725   7.416
12612WAT     H138078   2.272   8.715   7.329
12612WAT     H238079   2.253   8.738   7.489
12613WAT      O38080   3.443   6.108   5.164
12613WAT     H138081   3.441   6.163   5.081
12613WAT     H238082   3.357   6.059   5.174
12614WAT      O38083   4.209   0.020   0.435
12614WAT     H138084   4.138  -0.048   0.416
12614WAT     H238085   4.263  -0.008   0.514
12615WAT      O38086   1.673   9.668   7.356
12615WAT     H138087   1.732   9.684   7.435
12615WAT     H238088   1.599   9.605   7.381
12616WAT      O38089   6.811   7.962   8.299
12616WAT     H138090   6.779   7.876   8.339
12616WAT     H238091   6.812   8.034   8.369
12617WAT      O38092   5.175   9.717   5.145
12617WAT     H138093   5.098   9.709   5.207
12617WAT     H238094   5.179   9.636   5.085
12618WAT      O38095   0.883   6.352   3.956
12618WAT     H138096   0.828   6.351   4.040
12618WAT     H238097   0.900   6.258   3.926
12619WAT      O38098   6.290   1.090   8.893
12619WAT     H138099   6.348   1.095   8.812
12619WAT     H238100   6.207   1.144   8.879
12620WAT      O38101   7.926   2.378   1.230
12620WAT     H138102   7.842   2.363   1.177
12620WAT     H238103   8.001   2.327   1.188
12621WAT      O38104   0.148   8.707   5.252
12621WAT     H138105   0.153   8.641   5.327
12621WAT     H238106   0.060   8.755   5.256
12622WAT      O38107   0.482   8.551   5.767
12622WAT     H138108   0.506   8.462   5.806
12622WAT     H238109   0.514   8.624   5.827
12623WAT      O38110   7.310   6.805   4.093
12623WAT     H138111   7.391   6.846   4.051
12623WAT     H238112   7.251   6.877   4.129
12624WAT      O38113   3.948   3.498   4.745
12624WAT     H138114   3.935   3.568   4.816
12624WAT     H238115   4.028   3.443   4.766
12625WAT      O38116   6.500   3.738   2.556
12625WAT     H138117   6.562   3.759   2.481
12625WAT     H238118   6.407   3.729   2.521
12626WAT      O38119   5.267   7.499   5.375
12626WAT     H138120   5.221   7.426   5.426
12626WAT     H238121   5.366   7.481   5.373
12627WAT      O38122   6.376   6.505   0.406
12627WAT     H138123   6.397   6.407   0.410
12627WAT     H238124   6.310   6.527   0.478
12628WAT      O38125   8.423   4.915   4.754
12628WAT     H138126   8.449   4.927   4.658
12628WAT     H238127   8.384   5.000   4.789
12629WAT      O38128   6.662   7.279   3.765
12629WAT     H138129   6.682   7.182   3.766
12629WAT     H238130   6.744   7.330   3.740
12630WAT      O38131   7.424   6.298   1.577
12630WAT     H138132   7.481   6.216   1.577
12630WAT     H238133   7.482   6.379   1.580
12631WAT      O38134   1.400   8.433   2.736
12631WAT     H138135   1.369   8.522   2.768
12631WAT     H238136   1.500   8.427   2.743
12632WAT      O38137   4.493   4.365   1.036
12632WAT     H138138   4.450   4.453   1.017
12632WAT     H238139   4.436   4.313   1.099
12633WAT      O38140   0.584   9.248   2.739
12633WAT     H138141   0.657   9.237   2.672
12633WAT     H238142   0.622   9.243   2.831
12634WAT      O38143   6.174   1.900   0.724
12634WAT     H138144   6.086   1.945   0.739
12634WAT     H238145   6.211   1.869   0.811
12635WAT      O38146   6.173   9.553   9.471
12635WAT     H138147   6.127   9.581   9.555
12635WAT     H238148   6.196   9.634   9.417
12636WAT      O38149   5.496   7.783   2.025
12636WAT     H138150   5.497   7.683   2.019
12636WAT     H238151   5.545   7.812   2.108
12637WAT      O38152   3.584   4.782   6.951
12637WAT     H138153   3.569   4.872   6.910
12637WAT     H238154   3.509   4.760   7.013
12638WAT      O38155   3.402   5.088   9.229
12638WAT     H138156   3.360   5.138   9.305
12638WAT     H238157   3.382   4.991   9.239
12639WAT      O38158   5.775   0.985   8.890
12639WAT     H138159   5.780   1.061   8.955
12639WAT     H238160   5.867   0.953   8.870
12640WAT      O38161   7.012   4.566   7.559
12640WAT     H138162   6.937   4.632   7.559
12640WAT     H238163   7.004   4.506   7.480
12641WAT      O38164   7.742   4.900   7.392
12641WAT     H138165   7.736   5.000   7.391
12641WAT     H238166   7.837   4.871   7.377
12642WAT      O38167   0.216   1.944   3.008
12642WAT     H138168   0.242   1.891   3.088
12642WAT     H238169   0.253   2.037   3.016
12643WAT      O38170   2.223   1.229   9.612
12643WAT     H138171   2.261   1.142   9.642
12643WAT     H238172   2.169   1.270   9.686
12644WAT      O38173   0.277   5.726   3.216
12644WAT     H138174   0.298   5.803   3.155
12644WAT     H238175   0.318   5.642   3.180
12645WAT      O38176   7.529   7.441   0.976
12645WAT     H138177   7.591   7.471   1.049
12645WAT     H238178   7.474   7.518   0.945
12646WAT      O38179   7.042   0.672   8.991
12646WAT     H138180   7.103   0.639   9.062
12646WAT     H238181   6.956   0.704   9.032
12647WAT      O38182   0.771   5.744   9.371
12647WAT     H138183   0.714   5.707   9.444
12647WAT     H238184   0.787   5.842   9.388
12648WAT      O38185   2.063   6.469   1.322
12648WAT     H138186   1.991   6.402   1.333
12648WAT     H238187   2.148   6.423   1.295
12649WAT      O38188   2.754   4.413   9.448
12649WAT     H138189   2.801   4.339   9.400
12649WAT     H238190   2.668   4.434   9.401
12650WAT      O38191   3.824   0.657   3.368
12650WAT     H138192   3.792   0.683   3.459
12650WAT     H238193   3.923   0.672   3.362
12651WAT      O38194   5.609   2.410   8.191
12651WAT     H138195   5.572   2.385   8.101
12651WAT     H238196   5.605   2.331   8.252
12652WAT      O38197   0.297   8.877   5.123
12652WAT     H138198   0.246   8.803   5.166
12652WAT     H238199   0.264   8.889   5.029
12653WAT      O38200   1.252   3.843   6.695
12653WAT     H138201   1.326   3.782   6.668
12653WAT     H238202   1.166   3.792   6.696
12654WAT      O38203   8.572   4.841   2.593
12654WAT     H138204   8.617   4.917   2.546
12654WAT     H238205   8.569   4.859   2.691
12655WAT      O38206   0.408   3.424   6.179
12655WAT     H138207   0.342   3.432   6.104
12655WAT     H238208   0.501   3.434   6.143
12656WAT      O38209   5.116   1.390   9.329
12656WAT     H138210   5.138   1.372   9.425
12656WAT     H238211   5.149   1.314   9.273
12657WAT      O38212   6.694   0.625   4.982
12657WAT     H138213   6.721   0.710   5.027
12657WAT     H238214   6.682   0.554   5.052
12658WAT      O38215   2.887   5.481   9.680
12658WAT     H138216   2.850   5.433   9.601
12658WAT     H238217   2.813   5.508   9.741
12659WAT      O38218   7.051   1.871   5.353
12659WAT     H138219   7.089   1.824   5.433
12659WAT     H238220   7.103   1.955   5.337
12660WAT      O38221   5.281   9.826   7.768
12660WAT     H138222   5.330   9.913   7.764
12660WAT     H238223   5.237   9.816   7.858
12661WAT      O38224   6.537   3.131   6.278
12661WAT     H138225   6.460   3.190   6.303
12661WAT     H238226   6.617   3.156   6.333
12662WAT      O38227   3.801   0.869   4.728
12662WAT     H138228   3.784   0.824   4.641
12662WAT     H238229   3.900   0.877   4.743
12663WAT      O38230   7.817   7.976   5.934
12663WAT     H138231   7.785   7.934   6.019
12663WAT     H238232   7.767   8.062   5.919
12664WAT      O38233   3.071   8.314   8.247
12664WAT     H138234   3.076   8.215   8.233
12664WAT     H238235   3.000   8.335   8.314
12665WAT      O38236   7.308   5.780   6.117
12665WAT     H138237   7.399   5.764   6.079
12665WAT     H238238   7.244   5.711   6.083
12666WAT      O38239   8.056   5.801   0.205
12666WAT     H138240   8.000   5.720   0.226
12666WAT     H238241   8.024   5.841   0.119
12667WAT      O38242   9.751   4.724   5.257
12667WAT     H138243   9.803   4.803   5.226
12667WAT     H238244   9.760   4.714   5.357
12668WAT      O38245   5.354   5.351   3.453
12668WAT     H138246   5.436   5.297   3.433
12668WAT     H238247   5.273   5.297   3.430
12669WAT      O38248   5.707   2.674   9.095
12669WAT     H138249   5.724   2.661   8.997
12669WAT     H238250   5.659   2.594   9.131
12670WAT      O38251   6.374   6.947   0.283
12670WAT     H138252   6.423   6.863   0.305
12670WAT     H238253   6.276   6.933   0.297
12671WAT      O38254   4.349   0.014   2.464
12671WAT     H138255   4.315   0.092   2.412
12671WAT     H238256   4.371   0.042   2.557
12672WAT      O38257   3.206   4.067   4.538
12672WAT     H138258   3.167   3.997   4.597
12672WAT     H238259   3.139   4.140   4.523
12673WAT      O38260   9.833   9.281   9.177
12673WAT     H138261   9.877   9.227   9.249
12673WAT     H238262   9.744   9.313   9.210
12674WAT      O38263   0.585   0.828   1.335
12674WAT     H138264   0.613   0.814   1.430
12674WAT     H238265   0.537   0.915   1.327
12675WAT      O38266   4.029   7.673   7.571
12675WAT     H138267   4.021   7.578   7.603
12675WAT     H238268   3.978   7.684   7.485
12676WAT      O38269   4.293   9.287   5.268
12676WAT     H138270   4.360   9.308   5.339
12676WAT     H238271   4.204   9.269   5.310
12677WAT      O38272   3.371   8.455   3.025
12677WAT     H138273   3.428   8.535   3.008
12677WAT     H238274   3.341   8.455   3.120
12678WAT      O38275   2.568   3.132   2.567
12678WAT     H138276   2.545   3.116   2.663
12678WAT     H238277   2.536   3.055   2.512
12679WAT      O38278   5.798   8.465   6.612
12679WAT     H138279   5.877   8.518   6.643
12679WAT     H238280   5.791   8.470   6.512
12680WAT      O38281   7.413   7.246   6.500
12680WAT     H138282   7.486   7.177   6.498
12680WAT     H238283   7.436   7.320   6.437
12681WAT      O38284   8.508   6.393   7.145
12681WAT     H138285   8.435   6.381   7.078
12681WAT     H238286   8.573   6.317   7.137
12682WAT      O38287   4.300   4.389   4.119
12682WAT     H138288   4.363   4.443   4.063
12682WAT     H238289   4.220   4.444   4.140
12683WAT      O38290   0.850   8.972   5.146
12683WAT     H138291   0.937   8.998   5.189
12683WAT     H238292   0.779   9.038   5.171
12684WAT      O38293   1.945   3.639   8.571
12684WAT     H138294   2.044   3.653   8.569
12684WAT     H238295   1.903   3.687   8.495
12685WAT      O38296   1.375   2.446   6.972
12685WAT     H138297   1.465   2.475   7.004
12685WAT     H238298   1.344   2.506   6.898
12686WAT      O38299   9.764   2.470   6.798
12686WAT     H138300   9.742   2.561   6.833
12686WAT     H238301   9.710   2.402   6.848
12687WAT      O38302   3.281   5.864   9.453
12687WAT     H138303   3.376   5.833   9.459
12687WAT     H238304   3.250   5.893   9.544
12688WAT      O38305   7.201   9.803   3.571
12688WAT     H138306   7.295   9.780   3.593
12688WAT     H238307   7.155   9.723   3.533
12689WAT      O38308   4.786   6.501   0.256
12689WAT     H138309   4.824   6.440   0.325
12689WAT     H238310   4.814   6.595   0.276
12690WAT      O38311   4.574   6.607   2.169
12690WAT     H138312   4.523   6.628   2.253
12690WAT     H238313   4.622   6.690   2.138
12691WAT      O38314   7.580   4.336   0.969
12691WAT     H138315   7.553   4.424   0.929
12691WAT     H238316   7.507   4.303   1.029
12692WAT      O38317   4.680   8.377   7.814
12692WAT     H138318   4.653   8.356   7.720
12692WAT     H238319   4.777   8.399   7.817
12693WAT      O38320   0.400   4.725   9.378
12693WAT     H138321   0.395   4.733   9.278
12693WAT     H238322   0.404   4.816   9.418
12694WAT      O38323   6.776   7.537   9.398
12694WAT     H138324   6.715   7.530   9.477
12694WAT     H238325   6.871   7.545   9.430
12695WAT      O38326   1.741   2.341   8.044
12695WAT     H138327   1.764   2.387   8.130
12695WAT     H238328   1.791   2.255   8.037
12696WAT      O38329   3.373   1.584   7.655
12696WAT     H138330   3.451   1.619   7.707
12696WAT     H238331   3.380   1.612   7.560
12697WAT      O38332   1.211   7.461   2.325
12697WAT     H138333   1.271   7.425   2.253
12697WAT     H238334   1.118   7.429   2.310
12698WAT      O38335   0.121   4.095   2.280
12698WAT     H138336   0.066   4.043   2.214
12698WAT     H238337   0.101   4.192   2.271
12699WAT      O38338   7.314   6.723   4.739
12699WAT     H138339   7.315   6.760   4.832
12699WAT     H238340   7.272   6.632   4.740
12700WAT      O38341   4.030   5.721   3.035
12700WAT     H138342   3.998   5.626   3.034
12700WAT     H238343   4.117   5.727   3.083
12701WAT      O38344   2.361   5.488   5.245
12701WAT     H138345   2.269   5.502   5.206
12701WAT     H238346   2.385   5.391   5.239
12702WAT      O38347   4.789   5.154   6.466
12702WAT     H138348   4.748   5.067   6.439
12702WAT     H238349   4.786   5.163   6.566
12703WAT      O38350   7.378   9.197   5.739
12703WAT     H138351   7.452   9.131   5.751
12703WAT     H238352   7.416   9.285   5.711
12704WAT      O38353   8.221   0.701   6.563
12704WAT     H138354   8.190   0.633   6.628
12704WAT     H238355   8.220   0.791   6.606
12705WAT      O38356   2.988   0.293   1.914
12705WAT     H138357   3.068   0.237   1.936
12705WAT     H238358   2.995   0.382   1.960
12706WAT      O38359   5.828   6.105   7.663
12706WAT     H138360   5.778   6.172   7.718
12706WAT     H238361   5.763   6.040   7.623
12707WAT      O38362   3.740   0.545   8.976
12707WAT     H138363   3.716   0.464   8.922
12707WAT     H238364   3.749   0.520   9.072
12708WAT      O38365   7.616   9.220   2.152
12708WAT     H138366   7.549   9.292   2.171
12708WAT     H238367   7.574   9.149   2.097
12709WAT      O38368   6.768   8.426   6.467
12709WAT     H138369   6.796   8.498   6.531
12709WAT     H238370   6.817   8.342   6.489
12710WAT      O38371   5.977   9.308   0.870
12710WAT     H138372   6.005   9.337   0.779
12710WAT     H238373   5.879   9.328   0.882
12711WAT      O38374   4.088   7.253   1.041
12711WAT     H138375   4.003   7.205   1.020
12711WAT     H238376   4.080   7.349   1.014
12712WAT      O38377   4.716   5.552   9.772
12712WAT     H138378   4.674   5.564   9.682
12712WAT     H238379   4.800   5.606   9.777
12713WAT      O38380   0.167   2.214   9.627
12713WAT     H138381   0.082   2.244   9.669
12713WAT     H238382   0.240   2.280   9.648
12714WAT      O38383   7.660   2.215   4.565
12714WAT     H138384   7.599   2.249   4.493
12714WAT     H238385   7.719   2.144   4.528
12715WAT      O38386   1.337   4.895   1.609
12715WAT     H138387   1.242   4.901   1.640
12715WAT     H238388   1.343   4.925   1.514
12716WAT      O38389   9.101   1.203   9.102
12716WAT     H138390   9.032   1.258   9.056
12716WAT     H238391   9.122   1.123   9.045
12717WAT      O38392   8.560   7.065   0.626
12717WAT     H138393   8.480   7.115   0.659
12717WAT     H238394   8.641   7.093   0.677
12718WAT      O38395   2.154   7.701   2.572
12718WAT     H138396   2.129   7.638   2.498
12718WAT     H238397   2.089   7.691   2.648
12719WAT      O38398   5.741   2.699   2.320
12719WAT     H138399   5.769   2.617   2.370
12719WAT     H238400   5.794   2.706   2.235
12720WAT      O38401   5.430   4.608   2.642
12720WAT     H138402   5.340   4.639   2.672
12720WAT     H238403   5.436   4.509   2.654
12721WAT      O38404   1.740   0.099   4.616
12721WAT     H138405   1.784   0.188   4.606
12721WAT     H238406   1.809   0.027   4.612
12722WAT      O38407   5.840   1.459   8.268
12722WAT     H138408   5.880   1.516   8.197
12722WAT     H238409   5.861   1.363   8.250
12723WAT      O38410   3.838   7.230   2.891
12723WAT     H138411   3.760   7.285   2.921
12723WAT     H238412   3.869   7.261   2.801
12724WAT      O38413   4.381   1.355   0.737
12724WAT     H138414   4.463   1.364   0.793
12724WAT     H238415   4.317   1.429   0.759
12725WAT      O38416   8.967   7.231   9.368
12725WAT     H138417   8.980   7.329   9.380
12725WAT     H238418   9.029   7.181   9.428
12726WAT      O38419   9.708   3.096   2.232
12726WAT     H138420   9.756   3.013   2.258
12726WAT     H238421   9.693   3.097   2.133
12727WAT      O38422   1.902   8.405   6.257
12727WAT     H138423   1.847   8.356   6.325
12727WAT     H238424   1.957   8.340   6.205
12728WAT      O38425   8.005   9.083   5.711
12728WAT     H138426   8.064   9.076   5.631
12728WAT     H238427   7.938   9.009   5.709
12729WAT      O38428   8.540   3.224   0.279
12729WAT     H138429   8.470   3.293   0.257
12729WAT     H238430   8.628   3.254   0.244
12730WAT      O38431   0.850   6.981   7.523
12730WAT     H138432   0.948   7.001   7.529
12730WAT     H238433   0.804   7.018   7.603
12731WAT      O38434   2.283   8.450   9.772
12731WAT     H138435   2.237   8.403   9.696
12731WAT     H238436   2.279   8.392   9.853
12732WAT      O38437   8.955   7.943   2.856
12732WAT     H138438   9.050   7.972   2.856
12732WAT     H238439   8.897   8.016   2.891
12733WAT      O38440   4.172   6.030   3.133
12733WAT     H138441   4.253   6.089   3.131
12733WAT     H238442   4.194   5.944   3.178
12734WAT      O38443   8.353   8.389   1.022
12734WAT     H138444   8.377   8.360   0.930
12734WAT     H238445   8.290   8.323   1.064
12735WAT      O38446   9.827   1.238   1.043
12735WAT     H138447   9.799   1.187   1.125
12735WAT     H238448   9.819   1.179   0.963
12736WAT      O38449   4.624   6.210   1.994
12736WAT     H138450   4.586   6.199   1.902
12736WAT     H238451   4.563   6.268   2.048
12737WAT      O38452   1.801   3.446   8.303
12737WAT     H138453   1.826   3.351   8.284
12737WAT     H238454   1.708   3.464   8.271
12738WAT      O38455   4.067   3.170   9.310
12738WAT     H138456   4.098   3.103   9.243
12738WAT     H238457   4.124   3.252   9.303
12739WAT      O38458   1.481   9.320   4.601
12739WAT     H138459   1.452   9.369   4.519
12739WAT     H238460   1.447   9.225   4.597
12740WAT      O38461   0.967   9.415   1.381
12740WAT     H138462   0.939   9.333   1.331
12740WAT     H238463   1.056   9.399   1.423
12741WAT      O38464   9.749   4.111   1.432
12741WAT     H138465   9.721   4.190   1.377
12741WAT     H238466   9.688   4.102   1.511
12742WAT      O38467   7.424   0.840   7.009
12742WAT     H138468   7.522   0.854   6.994
12742WAT     H238469   7.400   0.744   6.991
12743WAT      O38470   3.971   6.866   6.227
12743WAT     H138471   4.026   6.789   6.195
12743WAT     H238472   3.933   6.845   6.317
12744WAT      O38473   4.088   3.412   6.883
12744WAT     H138474   3.995   3.383   6.906
12744WAT     H238475   4.130   3.344   6.823
12745WAT      O38476   3.277   5.280   2.349
12745WAT     H138477   3.322   5.203   2.303
12745WAT     H238478   3.181   5.258   2.365
12746WAT      O38479   3.152   2.922   4.654
12746WAT     H138480   3.158   2.924   4.754
12746WAT     H238481   3.059   2.897   4.627
12747WAT      O38482   1.420   3.430   0.588
12747WAT     H138483   1.454   3.484   0.511
12747WAT     H238484   1.322   3.414   0.576
12748WAT      O38485   9.887   5.103   1.138
12748WAT     H138486   9.924   5.025   1.088
12748WAT     H238487   9.852   5.170   1.073
12749WAT      O38488   0.009   1.740   6.517
12749WAT     H138489  -0.077   1.694   6.539
12749WAT     H238490   0.078   1.713   6.584
12750WAT      O38491   4.411   7.099   9.202
12750WAT     H138492   4.367   7.017   9.239
12750WAT     H238493   4.416   7.092   9.102
12751WAT      O38494   6.233   4.927   6.360
12751WAT     H138495   6.222   4.977   6.275
12751WAT     H238496   6.282   4.984   6.426
12752WAT      O38497   9.170   7.059   6.994
12752WAT     H138498   9.123   7.001   6.927
12752WAT     H238499   9.117   7.062   7.079
12753WAT      O38500   3.284   8.676   9.643
12753WAT     H138501   3.377   8.650   9.667
12753WAT     H238502   3.220   8.633   9.707
12754WAT      O38503   3.715   6.496   4.398
12754WAT     H138504   3.728   6.402   4.367
12754WAT     H238505   3.752   6.506   4.490
12755WAT      O38506   8.513   0.502   8.673
12755WAT     H138507   8.597   0.486   8.725
12755WAT     H238508   8.518   0.591   8.628
12756WAT      O38509   1.811   5.952   3.189
12756WAT     H138510   1.803   5.872   3.248
12756WAT     H238511   1.730   6.010   3.201
12757WAT      O38512   1.027   3.083   8.110
12757WAT     H138513   0.939   3.044   8.136
12757WAT     H238514   1.100   3.018   8.134
12758WAT      O38515   1.908   3.666   7.009
12758WAT     H138516   1.828   3.723   6.989
12758WAT     H238517   1.886   3.570   6.992
12759WAT      O38518   1.917   5.587   2.733
12759WAT     H138519   1.866   5.655   2.786
12759WAT     H238520   1.858   5.508   2.715
12760WAT      O38521   7.321   7.132   7.572
12760WAT     H138522   7.321   7.092   7.664
12760WAT     H238523   7.241   7.192   7.562
12761WAT      O38524   3.089   0.858   7.566
12761WAT     H138525   3.032   0.931   7.529
12761WAT     H238526   3.039   0.807   7.636
12762WAT      O38527   3.075   5.288   8.255
12762WAT     H138528   3.154   5.234   8.284
12762WAT     H238529   3.091   5.384   8.274
12763WAT      O38530   5.373   9.842   6.894
12763WAT     H138531   5.434   9.783   6.841
12763WAT     H238532   5.402   9.937   6.885
12764WAT      O38533   4.634   9.012   8.808
12764WAT     H138534   4.717   8.957   8.819
12764WAT     H238535   4.653   9.108   8.827
12765WAT      O38536   3.292   3.209   5.339
12765WAT     H138537   3.307   3.125   5.391
12765WAT     H238538   3.241   3.189   5.256
12766WAT      O38539   4.677   0.458   6.913
12766WAT     H138540   4.710   0.417   6.828
12766WAT     H238541   4.730   0.423   6.990
12767WAT      O38542   4.776   8.045   8.288
12767WAT     H138543   4.791   8.055   8.386
12767WAT     H238544   4.797   7.951   8.260
12768WAT      O38545   9.809   3.787   5.980
12768WAT     H138546   9.823   3.886   5.979
12768WAT     H238547   9.781   3.759   6.072
12769WAT      O38548   2.263   1.830   2.238
12769WAT     H138549   2.238   1.854   2.145
12769WAT     H238550   2.259   1.731   2.250
12770WAT      O38551   1.568   6.944   8.748
12770WAT     H138552   1.499   7.006   8.785
12770WAT     H238553   1.542   6.916   8.655
12771WAT      O38554   7.140   8.336   1.003
12771WAT     H138555   7.144   8.283   1.088
12771WAT     H238556   7.158   8.276   0.926
12772WAT      O38557   8.156   2.308   0.556
12772WAT     H138558   8.188   2.216   0.535
12772WAT     H238559   8.148   2.318   0.655
12773WAT      O38560   1.049   2.795   1.976
12773WAT     H138561   0.978   2.798   2.047
12773WAT     H238562   1.026   2.860   1.903
12774WAT      O38563   7.904   3.733   7.197
12774WAT     H138564   7.864   3.665   7.258
12774WAT     H238565   7.972   3.787   7.247
12775WAT      O38566   6.268   3.514   5.867
12775WAT     H138567   6.233   3.589   5.810
12775WAT     H238568   6.235   3.427   5.832
12776WAT      O38569   5.426   6.424   3.079
12776WAT     H138570   5.447   6.327   3.073
12776WAT     H238571   5.327   6.436   3.086
12777WAT      O38572   6.932   0.608   4.817
12777WAT     H138573   6.992   0.581   4.892
12777WAT     H238574   6.838   0.615   4.851
12778WAT      O38575   4.940   8.072   7.526
12778WAT     H138576   4.867   8.107   7.583
12778WAT     H238577   4.905   7.999   7.467
12779WAT      O38578   2.782   9.641   2.152
12779WAT     H138579   2.705   9.703   2.166
12779WAT     H238580   2.749   9.556   2.111
12780WAT      O38581   5.299   9.401   8.089
12780WAT     H138582   5.309   9.448   8.002
12780WAT     H238583   5.308   9.302   8.075
12781WAT      O38584   9.022   4.288   8.914
12781WAT     H138585   8.931   4.314   8.944
12781WAT     H238586   9.032   4.188   8.918
12782WAT      O38587   6.182   5.333   4.753
12782WAT     H138588   6.237   5.280   4.817
12782WAT     H238589   6.125   5.398   4.803
12783WAT      O38590   2.363   1.551   1.805
12783WAT     H138591   2.441   1.611   1.824
12783WAT     H238592   2.313   1.586   1.726
12784WAT      O38593   8.752   0.938   4.374
12784WAT     H138594   8.835   0.889   4.347
12784WAT     H238595   8.774   0.999   4.450
12785WAT      O38596   4.483   6.280   5.809
12785WAT     H138597   4.557   6.269   5.876
12785WAT     H238598   4.511   6.240   5.722
12786WAT      O38599   5.138   5.996   0.385
12786WAT     H138600   5.080   6.068   0.424
12786WAT     H238601   5.094   5.907   0.397
12787WAT      O38602   5.132   7.025   2.187
12787WAT     H138603   5.143   6.942   2.242
12787WAT     H238604   5.190   7.097   2.224
12788WAT      O38605   4.433   1.043   7.872
12788WAT     H138606   4.447   1.072   7.966
12788WAT     H238607   4.473   0.952   7.858
12789WAT      O38608   8.595   2.877   3.902
12789WAT     H138609   8.691   2.852   3.916
12789WAT     H238610   8.540   2.794   3.893
12790WAT      O38611   8.028   0.475   2.453
12790WAT     H138612   8.083   0.497   2.372
12790WAT     H238613   8.087   0.466   2.533
12791WAT      O38614   0.823   6.554   5.145
12791WAT     H138615   0.769   6.504   5.077
12791WAT     H238616   0.875   6.489   5.200
12792WAT      O38617   9.356   4.104   4.470
12792WAT     H138618   9.454   4.113   4.484
12792WAT     H238619   9.332   4.133   4.377
12793WAT      O38620   3.074   8.924   7.341
12793WAT     H138621   3.030   9.014   7.333
12793WAT     H238622   3.014   8.855   7.300
12794WAT      O38623   8.346   9.111   5.268
12794WAT     H138624   8.256   9.068   5.278
12794WAT     H238625   8.342   9.177   5.193
12795WAT      O38626   4.712   7.308   2.209
12795WAT     H138627   4.796   7.272   2.249
12795WAT     H238628   4.717   7.299   2.109
12796WAT      O38629   5.358   6.152   0.906
12796WAT     H138630   5.263   6.185   0.906
12796WAT     H238631   5.359   6.057   0.938
12797WAT      O38632   6.762   5.339   2.388
12797WAT     H138633   6.682   5.359   2.331
12797WAT     H238634   6.746   5.255   2.439
12798WAT      O38635   1.188   2.557   1.309
12798WAT     H138636   1.134   2.598   1.235
12798WAT     H238637   1.147   2.582   1.397
12799WAT      O38638   5.405   6.666   7.733
12799WAT     H138639   5.381   6.570   7.746
12799WAT     H238640   5.340   6.710   7.672
12800WAT      O38641   2.239   6.451   4.693
12800WAT     H138642   2.257   6.382   4.622
12800WAT     H238643   2.225   6.540   4.650
12801WAT      O38644   6.387   0.858   5.833
12801WAT     H138645   6.375   0.763   5.860
12801WAT     H238646   6.303   0.909   5.849
12802WAT      O38647   3.222   2.183   9.593
12802WAT     H138648   3.244   2.208   9.499
12802WAT     H238649   3.174   2.095   9.594
12803WAT      O38650   9.344   0.493   3.614
12803WAT     H138651   9.362   0.590   3.627
12803WAT     H238652   9.267   0.465   3.672
12804WAT      O38653   0.048   7.943   6.523
12804WAT     H138654   0.058   7.993   6.437
12804WAT     H238655   0.113   7.866   6.524
12805WAT      O38656   5.229   2.976   6.477
12805WAT     H138657   5.208   2.985   6.575
12805WAT     H238658   5.166   2.910   6.436
12806WAT      O38659   5.019   6.731   8.311
12806WAT     H138660   5.027   6.716   8.409
12806WAT     H238661   5.098   6.691   8.264
12807WAT      O38662   8.946   0.353   3.483
12807WAT     H138663   9.002   0.330   3.403
12807WAT     H238664   9.005   0.383   3.558
12808WAT      O38665   9.213   3.652   6.506
12808WAT     H138666   9.117   3.669   6.526
12808WAT     H238667   9.230   3.665   6.408
12809WAT      O38668   0.533   6.621   4.870
12809WAT     H138669   0.462   6.621   4.940
12809WAT     H238670   0.586   6.536   4.874
12810WAT      O38671   3.320   8.873   8.004
12810WAT     H138672   3.245   8.919   7.957
12810WAT     H238673   3.407   8.913   7.977
12811WAT      O38674   4.494   1.998   2.574
12811WAT     H138675   4.470   2.058   2.650
12811WAT     H238676   4.428   2.011   2.500
12812WAT      O38677   0.617   4.358   5.259
12812WAT     H138678   0.602   4.451   5.292
12812WAT     H238679   0.594   4.353   5.162
12813WAT      O38680   2.147   7.873   3.569
12813WAT     H138681   2.141   7.885   3.470
12813WAT     H238682   2.242   7.855   3.595
12814WAT      O38683   2.138   4.407   4.455
12814WAT     H138684   2.068   4.476   4.435
12814WAT     H238685   2.210   4.447   4.511
12815WAT      O38686   0.094   6.104   4.738
12815WAT     H138687   0.004   6.104   4.694
12815WAT     H238688   0.092   6.161   4.820
12816WAT      O38689   6.162   7.235   3.803
12816WAT     H138690   6.255   7.245   3.767
12816WAT     H238691   6.137   7.317   3.854
12817WAT      O38692   8.801   1.098   6.185
12817WAT     H138693   8.739   1.119   6.260
12817WAT     H238694   8.834   1.183   6.144
12818WAT      O38695   4.684   9.381   5.028
12818WAT     H138696   4.710   9.345   5.118
12818WAT     H238697   4.725   9.325   4.956
12819WAT      O38698   7.695   7.974   3.025
12819WAT     H138699   7.642   7.967   2.940
12819WAT     H238700   7.692   7.887   3.073
12820WAT      O38701   9.249   1.399   3.441
12820WAT     H138702   9.156   1.433   3.452
12820WAT     H238703   9.253   1.303   3.468
12821WAT      O38704   9.346   3.848   4.894
12821WAT     H138705   9.279   3.807   4.955
12821WAT     H238706   9.404   3.912   4.945
12822WAT      O38707   1.152   3.371   9.230
12822WAT     H138708   1.153   3.433   9.309
12822WAT     H238709   1.064   3.379   9.183
12823WAT      O38710   4.045   0.780   3.871
12823WAT     H138711   4.118   0.716   3.893
12823WAT     H238712   4.081   0.855   3.817
12824WAT      O38713   9.283   7.357   4.229
12824WAT     H138714   9.185   7.338   4.235
12824WAT     H238715   9.298   7.439   4.173
12825WAT      O38716   9.313   0.347   9.891
12825WAT     H138717   9.344   0.417   9.828
12825WAT     H238718   9.240   0.293   9.848
12826WAT      O38719   7.418   7.692   7.883
12826WAT     H138720   7.516   7.670   7.887
12826WAT     H238721   7.374   7.636   7.813
12827WAT      O38722   7.447   6.259   2.844
12827WAT     H138723   7.465   6.357   2.852
12827WAT     H238724   7.463   6.215   2.933
12828WAT      O38725   5.379   0.585   1.332
12828WAT     H138726   5.365   0.496   1.375
12828WAT     H238727   5.385   0.656   1.403
12829WAT      O38728   0.362   4.700   3.607
12829WAT     H138729   0.417   4.628   3.564
12829WAT     H238730   0.342   4.673   3.702
12830WAT      O38731   8.377   8.037   3.608
12830WAT     H138732   8.356   7.976   3.685
12830WAT     H238733   8.464   8.083   3.625
12831WAT      O38734   1.038   7.379   3.714
12831WAT     H138735   0.959   7.319   3.723
12831WAT     H238736   1.007   7.473   3.701
12832WAT      O38737   6.189   3.610   4.182
12832WAT     H138738   6.144   3.650   4.101
12832WAT     H238739   6.288   3.619   4.172
12833WAT      O38740   8.043   6.111   5.402
12833WAT     H138741   8.044   6.178   5.476
12833WAT     H238742   7.992   6.148   5.324
12834WAT      O38743   4.799   0.188   2.940
12834WAT     H138744   4.823   0.140   2.856
12834WAT     H238745   4.851   0.273   2.946
12835WAT      O38746   7.607   6.418   6.078
12835WAT     H138747   7.691   6.363   6.076
12835WAT     H238748   7.530   6.363   6.048
12836WAT      O38749   7.495   0.860   0.412
12836WAT     H138750   7.546   0.944   0.393
12836WAT     H238751   7.498   0.800   0.332
12837WAT      O38752   5.544   2.890   1.395
12837WAT     H138753   5.516   2.799   1.428
12837WAT     H238754   5.548   2.953   1.472
12838WAT      O38755   3.694   0.435   9.210
12838WAT     H138756   3.655   0.501   9.275
12838WAT     H238757   3.675   0.342   9.242
12839WAT      O38758   3.043   7.020   7.822
12839WAT     H138759   2.945   7.037   7.836
12839WAT     H238760   3.092   7.038   7.907
12840WAT      O38761   7.525   1.386   5.536
12840WAT     H138762   7.558   1.306   5.487
12840WAT     H238763   7.543   1.375   5.634
12841WAT      O38764   1.479   8.577   5.998
12841WAT     H138765   1.508   8.641   5.927
12841WAT     H238766   1.411   8.621   6.057
12842WAT      O38767   9.875   6.339   0.582
12842WAT     H138768   9.863   6.387   0.496
12842WAT     H238769   9.943   6.388   0.638
12843WAT      O38770   1.725   0.805   4.064
12843WAT     H138771   1.664   0.727   4.072
12843WAT     H238772   1.765   0.808   3.972
12844WAT      O38773   8.713   4.952   8.699
12844WAT     H138774   8.771   4.899   8.637
12844WAT     H238775   8.704   4.902   8.786
12845WAT      O38776   6.516   9.459   2.803
12845WAT     H138777   6.524   9.451   2.703
12845WAT     H238778   6.584   9.524   2.836
12846WAT      O38779   4.768   6.864   8.356
12846WAT     H138780   4.835   6.801   8.395
12846WAT     H238781   4.776   6.953   8.400
12847WAT      O38782   2.416   1.737   3.378
12847WAT     H138783   2.336   1.726   3.438
12847WAT     H238784   2.465   1.820   3.404
12848WAT      O38785   1.043   6.906   4.200
12848WAT     H138786   1.058   6.824   4.144
12848WAT     H238787   1.093   6.983   4.161
12849WAT      O38788   6.011   1.973   7.464
12849WAT     H138789   6.023   1.921   7.548
12849WAT     H238790   6.038   2.068   7.479
12850WAT      O38791   9.120   9.683   7.954
12850WAT     H138792   9.156   9.770   7.922
12850WAT     H238793   9.064   9.641   7.882
12851WAT      O38794   1.100   7.794   7.925
12851WAT     H138795   1.006   7.797   7.893
12851WAT     H238796   1.106   7.837   8.015
12852WAT      O38797   7.016   6.645   5.257
12852WAT     H138798   6.938   6.634   5.196
12852WAT     H238799   7.093   6.682   5.206
12853WAT      O38800   3.688   4.179   1.277
12853WAT     H138801   3.765   4.213   1.332
12853WAT     H238802   3.716   4.173   1.181
12854WAT      O38803   7.627   3.490   1.497
12854WAT     H138804   7.641   3.395   1.469
12854WAT     H238805   7.677   3.551   1.435
12855WAT      O38806   1.339   6.528   0.588
12855WAT     H138807   1.408   6.600   0.586
12855WAT     H238808   1.382   6.440   0.567
12856WAT      O38809   7.205   6.237   6.750
12856WAT     H138810   7.231   6.140   6.753
12856WAT     H238811   7.112   6.245   6.716
12857WAT      O38812   1.005   5.210   6.482
12857WAT     H138813   0.913   5.248   6.492
12857WAT     H238814   1.063   5.276   6.435
12858WAT      O38815   9.488   9.030   1.202
12858WAT     H138816   9.452   8.991   1.287
12858WAT     H238817   9.415   9.079   1.155
12859WAT      O38818   6.481   7.357   5.157
12859WAT     H138819   6.476   7.279   5.220
12859WAT     H238820   6.554   7.419   5.187
12860WAT      O38821   8.054   5.237   5.609
12860WAT     H138822   8.092   5.152   5.646
12860WAT     H238823   8.031   5.299   5.685
12861WAT      O38824   2.920   4.239   1.945
12861WAT     H138825   2.853   4.228   1.872
12861WAT     H238826   2.887   4.308   2.010
12862WAT      O38827   2.730   1.662   8.284
12862WAT     H138828   2.712   1.625   8.193
12862WAT     H238829   2.769   1.754   8.275
12863WAT      O38830   4.838   6.718   4.707
12863WAT     H138831   4.818   6.809   4.742
12863WAT     H238832   4.790   6.703   4.621
12864WAT      O38833   8.957   3.345   3.947
12864WAT     H138834   9.049   3.323   3.916
12864WAT     H238835   8.897   3.265   3.936
12865WAT      O38836   3.656   6.190   2.695
12865WAT     H138837   3.613   6.274   2.726
12865WAT     H238838   3.605   6.154   2.617
12866WAT      O38839   0.575   0.775   7.524
12866WAT     H138840   0.541   0.793   7.616
12866WAT     H238841   0.498   0.754   7.464
12867WAT      O38842   7.464   9.454   3.665
12867WAT     H138843   7.366   9.437   3.677
12867WAT     H238844   7.492   9.428   3.573
12868WAT      O38845   5.397   8.767   4.395
12868WAT     H138846   5.454   8.785   4.315
12868WAT     H238847   5.314   8.823   4.389
12869WAT      O38848   1.508   0.560   0.357
12869WAT     H138849   1.480   0.471   0.322
12869WAT     H238850   1.602   0.578   0.329
12870WAT      O38851   1.415   5.694   9.458
12870WAT     H138852   1.341   5.714   9.395
12870WAT     H238853   1.456   5.606   9.435
12871WAT      O38854   7.236   2.705   4.912
12871WAT     H138855   7.273   2.619   4.876
12871WAT     H238856   7.256   2.712   5.009
12872WAT      O38857   7.107   0.777   6.995
12872WAT     H138858   7.197   0.810   7.021
12872WAT     H238859   7.076   0.709   7.061
12873WAT      O38860   8.179   3.127   9.793
12873WAT     H138861   8.101   3.097   9.738
12873WAT     H238862   8.156   3.212   9.841
12874WAT      O38863   8.760   2.470   7.565
12874WAT     H138864   8.766   2.377   7.602
12874WAT     H238865   8.665   2.501   7.567
12875WAT      O38866   7.869   9.603   8.293
12875WAT     H138867   7.967   9.580   8.291
12875WAT     H238868   7.856   9.698   8.266
12876WAT      O38869   8.392   0.527   2.647
12876WAT     H138870   8.419   0.453   2.585
12876WAT     H238871   8.377   0.611   2.595
12877WAT      O38872   5.499   1.729   3.361
12877WAT     H138873   5.553   1.766   3.285
12877WAT     H238874   5.404   1.718   3.332
12878WAT      O38875   0.769   8.097   1.463
12878WAT     H138876   0.693   8.148   1.423
12878WAT     H238877   0.844   8.093   1.397
12879WAT      O38878   4.475   1.609   5.453
12879WAT     H138879   4.490   1.531   5.393
12879WAT     H238880   4.541   1.682   5.432
12880WAT      O38881   7.683   1.115   9.242
12880WAT     H138882   7.740   1.095   9.322
12880WAT     H238883   7.739   1.116   9.160
12881WAT      O38884   3.412   7.319   6.628
12881WAT     H138885   3.328   7.327   6.682
12881WAT     H238886   3.472   7.251   6.670
12882WAT      O38887   7.591   5.732   2.211
12882WAT     H138888   7.553   5.820   2.240
12882WAT     H238889   7.558   5.711   2.119
12883WAT      O38890   9.441   7.539   0.486
12883WAT     H138891   9.535   7.505   0.481
12883WAT     H238892   9.378   7.462   0.497
12884WAT      O38893   2.999   0.495   3.666
12884WAT     H138894   3.062   0.535   3.599
12884WAT     H238895   2.994   0.396   3.654
12885WAT      O38896   1.350   6.330   5.374
12885WAT     H138897   1.308   6.402   5.320
12885WAT     H238898   1.278   6.281   5.425
12886WAT      O38899   4.915   1.328   2.492
12886WAT     H138900   4.888   1.237   2.524
12886WAT     H238901   4.868   1.398   2.545
12887WAT      O38902   3.826   9.518   5.307
12887WAT     H138903   3.805   9.611   5.338
12887WAT     H238904   3.799   9.453   5.378
12888WAT      O38905   6.894   8.237   0.688
12888WAT     H138906   6.989   8.210   0.707
12888WAT     H238907   6.889   8.336   0.676
12889WAT      O38908   0.080   2.957   6.954
12889WAT     H138909   0.027   2.904   6.888
12889WAT     H238910   0.092   3.050   6.919
12890WAT      O38911   3.258   5.364   5.454
12890WAT     H138912   3.307   5.288   5.496
12890WAT     H238913   3.296   5.450   5.487
12891WAT      O38914   0.363   6.252   8.829
12891WAT     H138915   0.267   6.268   8.854
12891WAT     H238916   0.368   6.178   8.763
12892WAT      O38917   5.538   4.039   7.184
12892WAT     H138918   5.572   3.984   7.108
12892WAT     H238919   5.447   4.074   7.162
12893WAT      O38920   4.993   4.085   0.701
12893WAT     H138921   5.064   4.146   0.666
12893WAT     H238922   4.907   4.104   0.655
12894WAT      O38923   5.565   2.791   6.673
12894WAT     H138924   5.564   2.858   6.599
12894WAT     H238925   5.646   2.732   6.663
12895WAT      O38926   9.587   9.645   9.122
12895WAT     H138927   9.624   9.719   9.178
12895WAT     H238928   9.531   9.683   9.049
12896WAT      O38929   8.758   8.041   6.736
12896WAT     H138930   8.823   8.115   6.755
12896WAT     H238931   8.700   8.026   6.816
12897WAT      O38932   9.207   7.401   3.800
12897WAT     H138933   9.178   7.308   3.823
12897WAT     H238934   9.277   7.398   3.729
12898WAT      O38935   3.240   6.799   5.278
12898WAT     H138936   3.327   6.758   5.252
12898WAT     H238937   3.202   6.749   5.356
12899WAT      O38938   0.262   2.970   5.977
12899WAT     H138939   0.262   2.890   6.036
12899WAT     H238940   0.338   3.031   6.002
12900WAT      O38941   4.816   3.008   2.568
12900WAT     H138942   4.747   3.079   2.575
12900WAT     H238943   4.814   2.968   2.476
12901WAT      O38944   6.410   6.381   6.805
12901WAT     H138945   6.369   6.447   6.742
12901WAT     H238946   6.340   6.315   6.834
12902WAT      O38947   7.398   2.784   1.351
12902WAT     H138948   7.386   2.738   1.263
12902WAT     H238949   7.318   2.769   1.408
12903WAT      O38950   1.529   1.084   9.373
12903WAT     H138951   1.468   1.019   9.328
12903WAT     H238952   1.555   1.049   9.463
12904WAT      O38953   7.609   3.475   8.490
12904WAT     H138954   7.632   3.565   8.526
12904WAT     H238955   7.651   3.405   8.547
12905WAT      O38956   6.142   0.815   9.578
12905WAT     H138957   6.221   0.758   9.600
12905WAT     H238958   6.147   0.901   9.628
12906WAT      O38959   1.189   2.915   7.810
12906WAT     H138960   1.164   2.820   7.830
12906WAT     H238961   1.106   2.969   7.798
12907WAT      O38962   3.542   9.084   3.441
12907WAT     H138963   3.504   8.998   3.475
12907WAT     H238964   3.631   9.100   3.485
12908WAT      O38965   0.855   3.868   0.480
12908WAT     H138966   0.786   3.905   0.418
12908WAT     H238967   0.936   3.842   0.427
12909WAT      O38968   7.857   6.239   9.852
12909WAT     H138969   7.845   6.253   9.754
12909WAT     H238970   7.768   6.227   9.896
12910WAT      O38971   3.509   0.142   3.955
12910WAT     H138972   3.586   0.197   3.923
12910WAT     H238973   3.540   0.081   4.027
12911WAT      O38974   9.149   0.582   3.145
12911WAT     H138975   9.124   0.676   3.120
12911WAT     H238976   9.075   0.540   3.196
12912WAT      O38977   3.517   7.542   0.169
12912WAT     H138978   3.483   7.527   0.261
12912WAT     H238979   3.440   7.552   0.105
12913WAT      O38980   8.308   1.644   5.719
12913WAT     H138981   8.238   1.618   5.652
12913WAT     H238982   8.265   1.666   5.806
12914WAT      O38983   1.510   3.839   9.601
12914WAT     H138984   1.430   3.897   9.581
12914WAT     H238985   1.486   3.773   9.672
12915WAT      O38986   7.994   8.699   2.944
12915WAT     H138987   7.959   8.687   3.037
12915WAT     H238988   8.094   8.696   2.946
12916WAT      O38989   2.533   2.080   0.389
12916WAT     H138990   2.484   2.105   0.472
12916WAT     H238991   2.513   2.147   0.317
12917WAT      O38992   5.367   0.458   0.749
12917WAT     H138993   5.334   0.370   0.714
12917WAT     H238994   5.320   0.480   0.835
12918WAT      O38995   8.564   5.424   6.671
12918WAT     H138996   8.502   5.484   6.723
12918WAT     H238997   8.578   5.339   6.720
12919WAT      O38998   0.018   3.437   4.459
12919WAT     H138999   0.010   3.417   4.556
12919WAT     H239000   0.082   3.372   4.417
12920WAT      O39001   1.423   8.486   5.261
12920WAT     H139002   1.444   8.391   5.235
12920WAT     H239003   1.491   8.518   5.327
12921WAT      O39004   1.254   6.451   3.606
12921WAT     H139005   1.242   6.536   3.657
12921WAT     H239006   1.349   6.442   3.576
12922WAT      O39007   2.358   9.660   4.961
12922WAT     H139008   2.441   9.668   4.905
12922WAT     H239009   2.289   9.724   4.928
12923WAT      O39010   4.658   5.841   1.718
12923WAT     H139011   4.562   5.865   1.730
12923WAT     H239012   4.665   5.765   1.653
12924WAT      O39013   2.885   9.432   4.141
12924WAT     H139014   2.982   9.457   4.142
12924WAT     H239015   2.871   9.349   4.195
12925WAT      O39016   0.233   7.375   7.608
12925WAT     H139017   0.148   7.396   7.657
12925WAT     H239018   0.309   7.374   7.672
12926WAT      O39019   9.623   6.825   9.284
12926WAT     H139020   9.570   6.907   9.309
12926WAT     H239021   9.689   6.805   9.356
12927WAT      O39022   4.246   6.373   3.550
12927WAT     H139023   4.216   6.445   3.613
12927WAT     H239024   4.293   6.414   3.472
12928WAT      O39025   5.906   2.872   3.693
12928WAT     H139026   5.838   2.849   3.763
12928WAT     H239027   5.979   2.926   3.734
12929WAT      O39028   5.481   0.819   2.344
12929WAT     H139029   5.555   0.856   2.400
12929WAT     H239030   5.508   0.820   2.248
12930WAT      O39031   1.593   6.036   0.479
12930WAT     H139032   1.574   6.133   0.491
12930WAT     H239033   1.573   6.009   0.385
12931WAT      O39034   7.813   2.913   7.081
12931WAT     H139035   7.800   2.816   7.060
12931WAT     H239036   7.863   2.921   7.168
12932WAT      O39037   1.381   6.747   1.039
12932WAT     H139038   1.348   6.659   1.005
12932WAT     H239039   1.309   6.816   1.025
12933WAT      O39040   1.848   4.772   3.827
12933WAT     H139041   1.804   4.684   3.846
12933WAT     H239042   1.785   4.846   3.851
12934WAT      O39043   4.071   6.075   5.238
12934WAT     H139044   4.138   6.113   5.175
12934WAT     H239045   4.015   6.149   5.275
12935WAT      O39046   5.203   7.239   5.503
12935WAT     H139047   5.159   7.186   5.576
12935WAT     H239048   5.168   7.211   5.414
12936WAT      O39049   8.872   1.321   5.636
12936WAT     H139050   8.883   1.401   5.694
12936WAT     H239051   8.858   1.350   5.541
12937WAT      O39052   5.646   5.763   7.323
12937WAT     H139053   5.686   5.733   7.237
12937WAT     H239054   5.548   5.745   7.322
12938WAT      O39055   1.002   0.983   2.721
12938WAT     H139056   1.054   0.982   2.635
12938WAT     H239057   0.976   1.076   2.744
12939WAT      O39058   8.304   2.943   1.977
12939WAT     H139059   8.334   2.848   1.990
12939WAT     H239060   8.239   2.967   2.049
12940WAT      O39061   0.684   8.946   2.608
12940WAT     H139062   0.664   8.851   2.629
12940WAT     H239063   0.720   8.992   2.689
12941WAT      O39064   9.812   6.557   4.979
12941WAT     H139065   9.867   6.578   5.060
12941WAT     H239066   9.721   6.525   5.008
12942WAT      O39067   5.801   4.368   5.841
12942WAT     H139068   5.745   4.287   5.823
12942WAT     H239069   5.743   4.440   5.882
12943WAT      O39070   7.991   5.156   9.007
12943WAT     H139071   8.090   5.171   9.013
12943WAT     H239072   7.960   5.178   8.914
12944WAT      O39073   4.931   3.801   5.897
12944WAT     H139074   5.024   3.766   5.892
12944WAT     H239075   4.869   3.739   5.848
12945WAT      O39076   2.308   3.139   0.505
12945WAT     H139077   2.327   3.193   0.423
12945WAT     H239078   2.209   3.136   0.521
12946WAT      O39079   0.578   1.339   7.497
12946WAT     H139080   0.525   1.350   7.413
12946WAT     H239081   0.517   1.315   7.572
12947WAT      O39082   9.176   2.634   2.025
12947WAT     H139083   9.142   2.541   2.008
12947WAT     H239084   9.271   2.628   2.057
12948WAT      O39085   8.203   5.828   0.450
12948WAT     H139086   8.153   5.812   0.365
12948WAT     H239087   8.158   5.779   0.525
12949WAT      O39088   2.192   8.617   5.183
12949WAT     H139089   2.273   8.646   5.234
12949WAT     H239090   2.219   8.596   5.089
12950WAT      O39091   7.050   7.874   7.717
12950WAT     H139092   6.986   7.933   7.766
12950WAT     H239093   7.138   7.921   7.707
12951WAT      O39094   8.742   2.428   1.469
12951WAT     H139095   8.839   2.452   1.458
12951WAT     H239096   8.709   2.463   1.556
12952WAT      O39097   4.334   1.019   7.289
12952WAT     H139098   4.404   1.042   7.221
12952WAT     H239099   4.325   1.095   7.354
12953WAT      O39100   2.193   5.408   5.866
12953WAT     H139101   2.115   5.372   5.815
12953WAT     H239102   2.179   5.392   5.964
12954WAT      O39103   6.642   0.463   8.510
12954WAT     H139104   6.712   0.530   8.533
12954WAT     H239105   6.652   0.383   8.570
12955WAT      O39106   7.136   1.778   4.003
12955WAT     H139107   7.150   1.876   4.019
12955WAT     H239108   7.126   1.761   3.905
12956WAT      O39109   3.851   6.557   0.147
12956WAT     H139110   3.892   6.638   0.190
12956WAT     H239111   3.917   6.514   0.087
12957WAT      O39112   1.869   4.984   7.396
12957WAT     H139113   1.835   4.892   7.414
12957WAT     H239114   1.864   5.038   7.480
12958WAT      O39115   2.800   1.200   4.767
12958WAT     H139116   2.832   1.295   4.778
12958WAT     H239117   2.837   1.144   4.841
12959WAT      O39118   5.741   2.811   5.624
12959WAT     H139119   5.769   2.727   5.577
12959WAT     H239120   5.643   2.806   5.646
12960WAT      O39121   7.782   1.524   9.827
12960WAT     H139122   7.786   1.493   9.732
12960WAT     H239123   7.826   1.456   9.885
12961WAT      O39124   1.553   5.385   8.661
12961WAT     H139125   1.574   5.340   8.748
12961WAT     H239126   1.520   5.478   8.679
12962WAT      O39127   2.042   2.540   0.677
12962WAT     H139128   1.987   2.490   0.744
12962WAT     H239129   2.077   2.475   0.609
12963WAT      O39130   7.260   7.711   1.616
12963WAT     H139131   7.298   7.677   1.702
12963WAT     H239132   7.282   7.647   1.542
12964WAT      O39133   1.389   8.306   5.957
12964WAT     H139134   1.446   8.353   6.024
12964WAT     H239135   1.337   8.373   5.905
12965WAT      O39136   3.960   0.041   5.064
12965WAT     H139137   3.867   0.004   5.059
12965WAT     H239138   4.025  -0.026   5.029
12966WAT      O39139   2.562   7.115   0.721
12966WAT     H139140   2.523   7.160   0.801
12966WAT     H239141   2.591   7.022   0.745
12967WAT      O39142   8.195   7.956   8.062
12967WAT     H139143   8.226   8.050   8.049
12967WAT     H239144   8.154   7.922   7.976
12968WAT      O39145   0.343   3.291   1.450
12968WAT     H139146   0.258   3.320   1.495
12968WAT     H239147   0.352   3.340   1.363
12969WAT      O39148   0.440   1.156   4.884
12969WAT     H139149   0.403   1.231   4.938
12969WAT     H239150   0.424   1.174   4.787
12970WAT      O39151   6.063   0.716   5.317
12970WAT     H139152   6.074   0.789   5.250
12970WAT     H239153   5.968   0.713   5.349
12971WAT      O39154   1.263   4.567   5.063
12971WAT     H139155   1.242   4.598   5.156
12971WAT     H239156   1.362   4.577   5.047
12972WAT      O39157   6.434   8.276   8.007
12972WAT     H139158   6.432   8.246   8.102
12972WAT     H239159   6.484   8.362   8.000
12973WAT      O39160   3.095   5.553   8.209
12973WAT     H139161   3.010   5.553   8.156
12973WAT     H239162   3.170   5.587   8.153
12974WAT      O39163   0.031   2.067   4.816
12974WAT     H139164  -0.027   2.148   4.802
12974WAT     H239165   0.078   2.076   4.904
12975WAT      O39166   3.447   1.521   9.008
12975WAT     H139167   3.365   1.539   8.954
12975WAT     H239168   3.441   1.567   9.096
12976WAT      O39169   1.231   8.472   6.604
12976WAT     H139170   1.159   8.449   6.539
12976WAT     H239171   1.223   8.567   6.632
12977WAT      O39172   1.653   7.095   4.014
12977WAT     H139173   1.711   7.063   3.939
12977WAT     H239174   1.567   7.131   3.977
12978WAT      O39175   5.865   5.317   9.746
12978WAT     H139176   5.944   5.328   9.806
12978WAT     H239177   5.781   5.328   9.799
12979WAT      O39178   7.419   5.129   7.214
12979WAT     H139179   7.418   5.030   7.200
12979WAT     H239180   7.351   5.154   7.283
12980WAT      O39181   0.291   4.543   6.610
12980WAT     H139182   0.289   4.605   6.532
12980WAT     H239183   0.310   4.450   6.579
12981WAT      O39184   4.180   5.481   7.661
12981WAT     H139185   4.120   5.406   7.634
12981WAT     H239186   4.156   5.564   7.611
12982WAT      O39187   9.080   1.104   1.076
12982WAT     H139188   9.177   1.121   1.057
12982WAT     H239189   9.026   1.122   0.993
12983WAT      O39190   4.727   6.601   6.746
12983WAT     H139191   4.766   6.680   6.793
12983WAT     H239192   4.719   6.620   6.648
12984WAT      O39193   0.748   5.308   9.287
12984WAT     H139194   0.774   5.214   9.266
12984WAT     H239195   0.779   5.370   9.215
12985WAT      O39196   9.189   0.232   7.504
12985WAT     H139197   9.203   0.240   7.405
12985WAT     H239198   9.095   0.260   7.527
12986WAT      O39199   2.111   6.230   9.004
12986WAT     H139200   2.133   6.216   8.907
12986WAT     H239201   2.036   6.295   9.012
12987WAT      O39202   5.311   9.330   4.759
12987WAT     H139203   5.216   9.317   4.787
12987WAT     H239204   5.372   9.288   4.826
12988WAT      O39205   4.867   5.288   4.129
12988WAT     H139206   4.878   5.256   4.035
12988WAT     H239207   4.825   5.216   4.184
12989WAT      O39208   6.006   4.231   9.552
12989WAT     H139209   5.950   4.194   9.478
12989WAT     H239210   5.948   4.282   9.616
12990WAT      O39211   8.163   3.869   5.635
12990WAT     H139212   8.246   3.919   5.661
12990WAT     H239213   8.129   3.818   5.715
12991WAT      O39214   7.665   6.013   7.448
12991WAT     H139215   7.611   5.930   7.461
12991WAT     H239216   7.604   6.091   7.435
12992WAT      O39217   3.475   9.515   5.742
12992WAT     H139218   3.574   9.520   5.729
12992WAT     H239219   3.439   9.605   5.765
12993WAT      O39220   5.088   4.251   1.645
12993WAT     H139221   5.163   4.194   1.611
12993WAT     H239222   5.016   4.255   1.576
12994WAT      O39223   4.866   3.640   9.517
12994WAT     H139224   4.897   3.582   9.593
12994WAT     H239225   4.875   3.736   9.543
12995WAT      O39226   5.753   5.184   7.606
12995WAT     H139227   5.673   5.236   7.636
12995WAT     H239228   5.747   5.167   7.508
12996WAT      O39229   0.336   2.347   6.910
12996WAT     H139230   0.345   2.435   6.864
12996WAT     H239231   0.410   2.336   6.977
12997WAT      O39232   7.717   6.436   4.874
12997WAT     H139233   7.688   6.480   4.789
12997WAT     H239234   7.756   6.346   4.854
12998WAT      O39235   2.831   1.285   7.162
12998WAT     H139236   2.895   1.242   7.226
12998WAT     H239237   2.757   1.329   7.213
12999WAT      O39238   3.039   6.598   1.578
12999WAT     H139239   3.020   6.555   1.667
12999WAT     H239240   3.135   6.584   1.554
13000WAT      O39241   2.279   1.067   4.483
13000WAT     H139242   2.352   1.107   4.539
13000WAT     H239243   2.252   1.132   4.412
13001WAT      O39244   8.497   6.817   3.897
13001WAT     H139245   8.483   6.895   3.837
13001WAT     H239246   8.409   6.772   3.915
13002WAT      O39247   6.660   4.671   3.538
13002WAT     H139248   6.584   4.631   3.485
13002WAT     H239249   6.635   4.673   3.635
13003WAT      O39250   2.010   9.678   2.977
13003WAT     H139251   1.942   9.657   3.047
13003WAT     H239252   1.964   9.693   2.889
13004WAT      O39253   6.996   9.185   6.066
13004WAT     H139254   6.969   9.228   6.152
13004WAT     H239255   6.914   9.166   6.011
13005WAT      O39256   6.250   9.294   9.534
13005WAT     H139257   6.325   9.284   9.599
13005WAT     H239258   6.240   9.391   9.509
13006WAT      O39259   5.124   4.291   9.400
13006WAT     H139260   5.070   4.302   9.483
13006WAT     H239261   5.082   4.222   9.341
13007WAT      O39262   9.496   3.585   0.033
13007WAT     H139263   9.404   3.599   0.069
13007WAT     H239264   9.507   3.489   0.006
13008WAT      O39265   4.072   8.979   8.334
13008WAT     H139266   4.091   9.077   8.348
13008WAT     H239267   4.155   8.926   8.351
13009WAT      O39268   7.242   0.531   2.114
13009WAT     H139269   7.315   0.590   2.078
13009WAT     H239270   7.202   0.574   2.195
13010WAT      O39271   1.918   0.316   8.279
13010WAT     H139272   2.002   0.363   8.306
13010WAT     H239273   1.841   0.379   8.286
13011WAT      O39274   4.810   5.936   7.881
13011WAT     H139275   4.782   6.030   7.858
13011WAT     H239276   4.857   5.937   7.969
13012WAT      O39277   5.813   6.594   4.110
13012WAT     H139278   5.714   6.600   4.109
13012WAT     H239279   5.852   6.656   4.041
13013WAT      O39280   4.703   5.849   9.667
13013WAT     H139281   4.634   5.894   9.724
13013WAT     H239282   4.786   5.832   9.720
13014WAT      O39283   4.225   6.586   6.936
13014WAT     H139284   4.287   6.611   6.862
13014WAT     H239285   4.185   6.496   6.917
13015WAT      O39286   2.692   0.144   6.748
13015WAT     H139287   2.742   0.138   6.834
13015WAT     H239288   2.596   0.117   6.763
13016WAT      O39289   1.568   1.357   5.635
13016WAT     H139290   1.528   1.374   5.545
13016WAT     H239291   1.650   1.414   5.647
13017WAT      O39292   0.851   2.149   2.037
13017WAT     H139293   0.892   2.195   1.958
13017WAT     H239294   0.773   2.203   2.071
13018WAT      O39295   4.755   0.715   7.888
13018WAT     H139296   4.784   0.757   7.801
13018WAT     H239297   4.742   0.786   7.957
13019WAT      O39298   7.144   5.796   3.665
13019WAT     H139299   7.244   5.800   3.659
13019WAT     H239300   7.104   5.846   3.588
13020WAT      O39301   2.669   5.078   1.515
13020WAT     H139302   2.624   5.125   1.591
13020WAT     H239303   2.603   5.061   1.442
13021WAT      O39304   3.318   8.716   5.813
13021WAT     H139305   3.303   8.652   5.738
13021WAT     H239306   3.255   8.695   5.887
13022WAT      O39307   9.360   7.467   2.034
13022WAT     H139308   9.322   7.439   2.122
13022WAT     H239309   9.415   7.393   1.996
13023WAT      O39310   6.951   8.834   4.967
13023WAT     H139311   6.897   8.896   4.909
13023WAT     H239312   6.930   8.852   5.063
13024WAT      O39313   4.537   0.869   8.490
13024WAT     H139314   4.538   0.771   8.469
13024WAT     H239315   4.452   0.909   8.455
13025WAT      O39316   9.449   6.605   5.288
13025WAT     H139317   9.350   6.602   5.299
13025WAT     H239318   9.475   6.559   5.202
13026WAT      O39319   9.635   6.254   2.862
13026WAT     H139320   9.701   6.221   2.795
13026WAT     H239321   9.674   6.331   2.913
13027WAT      O39322   6.815   2.959   1.561
13027WAT     H139323   6.720   2.929   1.554
13027WAT     H239324   6.835   3.023   1.486
13028WAT      O39325   8.690   8.617   4.313
13028WAT     H139326   8.643   8.643   4.228
13028WAT     H239327   8.632   8.640   4.391
13029WAT      O39328   1.235   0.562   5.121
13029WAT     H139329   1.156   0.559   5.059
13029WAT     H239330   1.265   0.657   5.131
13030WAT      O39331   0.811   8.497   5.831
13030WAT     H139332   0.724   8.530   5.868
13030WAT     H239333   0.814   8.397   5.835
13031WAT      O39334   0.959   9.403   8.074
13031WAT     H139335   1.049   9.438   8.097
13031WAT     H239336   0.969   9.324   8.013
13032WAT      O39337   0.431   8.439   6.735
13032WAT     H139338   0.423   8.533   6.767
13032WAT     H239339   0.454   8.439   6.637
13033WAT      O39340   0.669   2.051   0.462
13033WAT     H139341   0.734   1.997   0.516
13033WAT     H239342   0.718   2.102   0.391
13034WAT      O39343   6.208   5.680   3.244
13034WAT     H139344   6.184   5.775   3.226
13034WAT     H239345   6.275   5.649   3.176
13035WAT      O39346   1.933   4.444   0.848
13035WAT     H139347   1.921   4.501   0.929
13035WAT     H239348   1.844   4.431   0.803
13036WAT      O39349   6.050   1.766   7.648
13036WAT     H139350   6.027   1.670   7.633
13036WAT     H239351   6.147   1.775   7.668
13037WAT      O39352   1.536   6.109   9.354
13037WAT     H139353   1.603   6.097   9.427
13037WAT     H239354   1.578   6.160   9.278
13038WAT      O39355   5.569   8.724   2.954
13038WAT     H139356   5.565   8.640   3.007
13038WAT     H239357   5.614   8.706   2.867
13039WAT      O39358   0.708   4.113   9.757
13039WAT     H139359   0.697   4.197   9.811
13039WAT     H239360   0.638   4.111   9.685
13040WAT      O39361   9.381   5.289   8.554
13040WAT     H139362   9.310   5.324   8.493
13040WAT     H239363   9.452   5.358   8.566
13041WAT      O39364   7.997   9.206   6.512
13041WAT     H139365   7.935   9.135   6.545
13041WAT     H239366   8.086   9.165   6.492
13042WAT      O39367   4.889   2.649   9.721
13042WAT     H139368   4.898   2.748   9.713
13042WAT     H239369   4.937   2.618   9.804
13043WAT      O39370   7.003   7.882   3.740
13043WAT     H139371   6.990   7.925   3.829
13043WAT     H239372   6.916   7.846   3.707
13044WAT      O39373   4.527   7.688   7.512
13044WAT     H139374   4.504   7.656   7.420
13044WAT     H239375   4.452   7.743   7.548
13045WAT      O39376   3.219   5.278   5.850
13045WAT     H139377   3.296   5.278   5.914
13045WAT     H239378   3.194   5.183   5.828
13046WAT      O39379   0.388   2.373   9.731
13046WAT     H139380   0.458   2.357   9.662
13046WAT     H239381   0.414   2.329   9.816
13047WAT      O39382   8.473   3.045   2.354
13047WAT     H139383   8.554   2.995   2.382
13047WAT     H239384   8.498   3.139   2.332
13048WAT      O39385   1.541   9.492   3.555
13048WAT     H139386   1.627   9.500   3.606
13048WAT     H239387   1.558   9.443   3.469
13049WAT      O39388   8.697   1.150   2.485
13049WAT     H139389   8.618   1.190   2.438
13049WAT     H239390   8.780   1.170   2.433
13050WAT      O39391   5.901   2.444   9.823
13050WAT     H139392   5.817   2.401   9.789
13050WAT     H239393   5.981   2.395   9.788
13051WAT      O39394   6.656   0.407   2.920
13051WAT     H139395   6.631   0.315   2.949
13051WAT     H239396   6.601   0.474   2.971
13052WAT      O39397   0.016   5.726   2.802
13052WAT     H139398   0.052   5.646   2.755
13052WAT     H239399  -0.045   5.776   2.740
13053WAT      O39400   0.134   8.572   3.342
13053WAT     H139401   0.053   8.515   3.356
13053WAT     H239402   0.109   8.652   3.288
13054WAT      O39403   0.648   1.130   2.899
13054WAT     H139404   0.585   1.058   2.871
13054WAT     H239405   0.619   1.217   2.858
13055WAT      O39406   7.750   4.891   4.477
13055WAT     H139407   7.745   4.840   4.564
13055WAT     H239408   7.713   4.982   4.490
13056WAT      O39409   0.142   4.666   2.806
13056WAT     H139410   0.110   4.632   2.717
13056WAT     H239411   0.065   4.672   2.869
13057WAT      O39412   5.904   7.109   1.708
13057WAT     H139413   5.981   7.093   1.770
13057WAT     H239414   5.936   7.108   1.613
13058WAT      O39415   8.113   5.471   5.831
13058WAT     H139416   8.186   5.538   5.820
13058WAT     H239417   8.034   5.499   5.775
13059WAT      O39418   6.701   0.398   6.605
13059WAT     H139419   6.616   0.368   6.649
13059WAT     H239420   6.738   0.477   6.654
13060WAT      O39421   1.574   2.789   2.843
13060WAT     H139422   1.564   2.743   2.755
13060WAT     H239423   1.670   2.791   2.869
13061WAT      O39424   0.180   6.174   9.224
13061WAT     H139425   0.195   6.271   9.209
13061WAT     H239426   0.211   6.122   9.145
13062WAT      O39427   7.145   6.158   8.920
13062WAT     H139428   7.174   6.093   8.850
13062WAT     H239429   7.216   6.167   8.990
13063WAT      O39430   7.827   6.091   2.667
13063WAT     H139431   7.734   6.102   2.632
13063WAT     H239432   7.841   6.154   2.743
13064WAT      O39433   3.145   9.465   4.086
13064WAT     H139434   3.205   9.538   4.118
13064WAT     H239435   3.200   9.386   4.058
13065WAT      O39436   7.310   8.339   0.555
13065WAT     H139437   7.231   8.391   0.522
13065WAT     H239438   7.367   8.399   0.613
13066WAT      O39439   5.009   1.055   4.121
13066WAT     H139440   5.070   1.097   4.054
13066WAT     H239441   5.040   0.962   4.142
13067WAT      O39442   6.457   7.116   5.260
13067WAT     H139443   6.492   7.085   5.348
13067WAT     H239444   6.360   7.092   5.253
13068WAT      O39445   2.678   1.641   2.168
13068WAT     H139446   2.640   1.726   2.206
13068WAT     H239447   2.618   1.565   2.191
13069WAT      O39448   8.292   0.370   4.127
13069WAT     H139449   8.316   0.290   4.072
13069WAT     H239450   8.208   0.411   4.090
13070WAT      O39451   8.807   2.385   5.410
13070WAT     H139452   8.725   2.441   5.429
13070WAT     H239453   8.779   2.292   5.389
13071WAT      O39454   1.552   1.226   7.063
13071WAT     H139455   1.625   1.197   7.001
13071WAT     H239456   1.474   1.260   7.010
13072WAT      O39457   7.542   0.290   5.367
13072WAT     H139458   7.595   0.267   5.286
13072WAT     H239459   7.522   0.207   5.419
13073WAT      O39460   2.010   5.997   5.690
13073WAT     H139461   2.078   6.040   5.750
13073WAT     H239462   2.057   5.937   5.625
13074WAT      O39463   5.478   7.519   2.334
13074WAT     H139464   5.383   7.519   2.305
13074WAT     H239465   5.482   7.502   2.433
13075WAT      O39466   2.300   6.585   9.184
13075WAT     H139467   2.287   6.683   9.198
13075WAT     H239468   2.211   6.541   9.170
13076WAT      O39469   2.298   6.528   3.165
13076WAT     H139470   2.373   6.491   3.110
13076WAT     H239471   2.275   6.464   3.238
13077WAT      O39472   4.911   2.171   8.912
13077WAT     H139473   4.990   2.216   8.955
13077WAT     H239474   4.942   2.091   8.861
13078WAT      O39475   8.184   5.638   1.798
13078WAT     H139476   8.157   5.674   1.887
13078WAT     H239477   8.251   5.699   1.756
13079WAT      O39478   8.598   8.034   5.991
13079WAT     H139479   8.677   7.972   5.994
13079WAT     H239480   8.603   8.097   6.068
13080WAT      O39481   2.127   6.785   2.920
13080WAT     H139482   2.120   6.875   2.963
13080WAT     H239483   2.157   6.795   2.825
13081WAT      O39484   8.313   4.641   9.188
13081WAT     H139485   8.360   4.720   9.150
13081WAT     H239486   8.299   4.653   9.286
13082WAT      O39487   1.763   0.849   0.763
13082WAT     H139488   1.838   0.909   0.793
13082WAT     H239489   1.725   0.884   0.677
13083WAT      O39490   8.245   3.344   3.481
13083WAT     H139491   8.333   3.323   3.438
13083WAT     H239492   8.180   3.375   3.412
13084WAT      O39493   6.048   7.015   5.593
13084WAT     H139494   5.997   7.023   5.679
13084WAT     H239495   5.987   7.038   5.517
13085WAT      O39496   9.435   0.761   5.432
13085WAT     H139497   9.467   0.684   5.487
13085WAT     H239498   9.372   0.816   5.486
13086WAT      O39499   3.220   9.774   4.771
13086WAT     H139500   3.212   9.813   4.862
13086WAT     H239501   3.151   9.814   4.711
13087WAT      O39502   0.193   5.642   6.726
13087WAT     H139503   0.135   5.631   6.646
13087WAT     H239504   0.163   5.722   6.778
13088WAT      O39505   7.290   4.672   0.718
13088WAT     H139506   7.292   4.749   0.654
13088WAT     H239507   7.321   4.589   0.672
13089WAT      O39508   1.549   8.169   8.543
13089WAT     H139509   1.536   8.249   8.602
13089WAT     H239510   1.541   8.197   8.447
13090WAT      O39511   4.887   7.418   8.494
13090WAT     H139512   4.814   7.467   8.447
13090WAT     H239513   4.894   7.449   8.588
13091WAT      O39514   4.596   0.235   8.676
13091WAT     H139515   4.674   0.204   8.730
13091WAT     H239516   4.543   0.301   8.730
13092WAT      O39517   2.886   3.560   0.844
13092WAT     H139518   2.795   3.526   0.869
13092WAT     H239519   2.909   3.638   0.901
13093WAT      O39520   8.722   3.270   8.437
13093WAT     H139521   8.713   3.358   8.484
13093WAT     H239522   8.632   3.239   8.407
13094WAT      O39523   4.475   2.871   8.451
13094WAT     H139524   4.507   2.903   8.362
13094WAT     H239525   4.552   2.869   8.516
13095WAT      O39526   9.212   4.783   7.369
13095WAT     H139527   9.295   4.734   7.397
13095WAT     H239528   9.132   4.738   7.407
13096WAT      O39529   0.477   7.093   7.022
13096WAT     H139530   0.473   6.998   7.052
13096WAT     H239531   0.431   7.151   7.090
13097WAT      O39532   7.815   5.640   1.561
13097WAT     H139533   7.756   5.712   1.523
13097WAT     H239534   7.909   5.674   1.567
13098WAT      O39535   3.589   0.695   2.987
13098WAT     H139536   3.545   0.647   2.911
13098WAT     H239537   3.575   0.643   3.071
13099WAT      O39538   8.758   3.379   5.346
13099WAT     H139539   8.759   3.451   5.277
13099WAT     H239540   8.847   3.333   5.347
13100WAT      O39541   5.069   7.184   5.275
13100WAT     H139542   5.005   7.231   5.214
13100WAT     H239543   5.048   7.086   5.275
13101WAT      O39544   8.493   1.959   6.325
13101WAT     H139545   8.489   2.014   6.242
13101WAT     H239546   8.535   1.871   6.305
13102WAT      O39547   2.318   5.702   3.891
13102WAT     H139548   2.294   5.619   3.840
13102WAT     H239549   2.412   5.729   3.868
13103WAT      O39550   4.560   7.787   8.528
13103WAT     H139551   4.507   7.705   8.506
13103WAT     H239552   4.657   7.771   8.508
13104WAT      O39553   9.161   3.889   2.263
13104WAT     H139554   9.181   3.854   2.172
13104WAT     H239555   9.186   3.821   2.331
13105WAT      O39556   1.752   6.753   4.590
13105WAT     H139557   1.805   6.752   4.674
13105WAT     H239558   1.788   6.823   4.528
13106WAT      O39559   5.913   8.847   5.138
13106WAT     H139560   5.842   8.918   5.134
13106WAT     H239561   5.873   8.763   5.176
13107WAT      O39562   5.942   7.403   0.560
13107WAT     H139563   5.913   7.322   0.508
13107WAT     H239564   5.869   7.471   0.559
13108WAT      O39565   2.945   8.792   5.094
13108WAT     H139566   2.955   8.853   5.015
13108WAT     H239567   2.848   8.783   5.117
13109WAT      O39568   3.816   4.478   4.493
13109WAT     H139569   3.889   4.412   4.478
13109WAT     H239570   3.795   4.484   4.591
13110WAT      O39571   0.442   8.963   6.681
13110WAT     H139572   0.366   8.961   6.746
13110WAT     H239573   0.514   9.023   6.716
13111WAT      O39574   2.174   0.138   7.846
13111WAT     H139575   2.106   0.194   7.893
13111WAT     H239576   2.264   0.154   7.887
13112WAT      O39577   1.647   8.485   1.923
13112WAT     H139578   1.653   8.387   1.943
13112WAT     H239579   1.568   8.502   1.864
13113WAT      O39580   7.522   3.881   5.473
13113WAT     H139581   7.488   3.973   5.493
13113WAT     H239582   7.606   3.865   5.525
13114WAT      O39583   8.411   1.416   6.681
13114WAT     H139584   8.345   1.444   6.612
13114WAT     H239585   8.503   1.420   6.643
13115WAT      O39586   0.021   3.156   5.575
13115WAT     H139587  -0.023   3.246   5.581
13115WAT     H239588   0.076   3.151   5.492
13116WAT      O39589   6.341   3.741   7.472
13116WAT     H139590   6.382   3.653   7.495
13116WAT     H239591   6.287   3.732   7.388
13117WAT      O39592   2.706   3.894   0.334
13117WAT     H139593   2.663   3.963   0.392
13117WAT     H239594   2.699   3.922   0.239
13118WAT      O39595   6.093   7.530   4.664
13118WAT     H139596   6.087   7.430   4.666
13118WAT     H239597   6.121   7.560   4.573
13119WAT      O39598   1.949   7.658   2.752
13119WAT     H139599   1.880   7.594   2.788
13119WAT     H239600   1.990   7.708   2.828
13120WAT      O39601   0.241   9.724   3.356
13120WAT     H139602   0.165   9.789   3.351
13120WAT     H239603   0.209   9.633   3.328
13121WAT      O39604   2.354   3.338   4.121
13121WAT     H139605   2.360   3.258   4.180
13121WAT     H239606   2.258   3.359   4.101
13122WAT      O39607   4.326   0.769   1.959
13122WAT     H139608   4.348   0.674   1.938
13122WAT     H239609   4.404   0.827   1.938
13123WAT      O39610   9.890   1.513   1.320
13123WAT     H139611   9.840   1.511   1.406
13123WAT     H239612   9.891   1.607   1.285
13124WAT      O39613   8.526   7.118   6.659
13124WAT     H139614   8.516   7.028   6.702
13124WAT     H239615   8.443   7.138   6.606
13125WAT      O39616   0.534   9.418   5.226
13125WAT     H139617   0.499   9.506   5.195
13125WAT     H239618   0.549   9.359   5.147
13126WAT      O39619   4.448   4.165   7.346
13126WAT     H139620   4.405   4.144   7.434
13126WAT     H239621   4.521   4.232   7.361
13127WAT      O39622   8.903   0.390   5.909
13127WAT     H139623   8.835   0.370   5.980
13127WAT     H239624   8.876   0.472   5.860
13128WAT      O39625   8.950   7.560   1.645
13128WAT     H139626   8.912   7.507   1.720
13128WAT     H239627   9.001   7.638   1.682
13129WAT      O39628   2.759   4.779   2.301
13129WAT     H139629   2.810   4.772   2.387
13129WAT     H239630   2.815   4.742   2.227
13130WAT      O39631   8.147   7.189   0.207
13130WAT     H139632   8.079   7.260   0.189
13130WAT     H239633   8.139   7.118   0.137
13131WAT      O39634   3.486   9.397   3.032
13131WAT     H139635   3.564   9.426   3.088
13131WAT     H239636   3.401   9.429   3.074
13132WAT      O39637   7.424   7.445   4.887
13132WAT     H139638   7.397   7.539   4.867
13132WAT     H239639   7.452   7.438   4.983
13133WAT      O39640   8.262   2.725   9.342
13133WAT     H139641   8.259   2.791   9.418
13133WAT     H239642   8.346   2.739   9.289
13134WAT      O39643   7.825   7.134   2.920
13134WAT     H139644   7.787   7.139   2.828
13134WAT     H239645   7.776   7.198   2.979
13135WAT      O39646   5.062   2.288   1.600
13135WAT     H139647   5.102   2.365   1.650
13135WAT     H239648   5.107   2.279   1.511
13136WAT      O39649   1.350   2.973   9.137
13136WAT     H139650   1.271   2.988   9.078
13136WAT     H239651   1.322   2.920   9.217
13137WAT      O39652   3.530   3.242   1.971
13137WAT     H139653   3.448   3.288   2.003
13137WAT     H239654   3.506   3.154   1.929
13138WAT      O39655   4.392   5.595   0.541
13138WAT     H139656   4.311   5.607   0.599
13138WAT     H239657   4.368   5.541   0.461
13139WAT      O39658   5.545   0.332   7.000
13139WAT     H139659   5.618   0.302   7.062
13139WAT     H239660   5.563   0.299   6.908
13140WAT      O39661   6.301   1.085   7.574
13140WAT     H139662   6.391   1.076   7.616
13140WAT     H239663   6.271   1.180   7.580
13141WAT      O39664   2.533   6.565   8.759
13141WAT     H139665   2.584   6.648   8.738
13141WAT     H239666   2.566   6.489   8.703
13142WAT      O39667   7.466   1.528   2.733
13142WAT     H139668   7.483   1.562   2.641
13142WAT     H239669   7.519   1.444   2.748
13143WAT      O39670   9.820   8.426   3.422
13143WAT     H139671   9.817   8.388   3.514
13143WAT     H239672   9.770   8.365   3.359
13144WAT      O39673   2.650   8.501   1.901
13144WAT     H139674   2.566   8.464   1.861
13144WAT     H239675   2.643   8.600   1.907
13145WAT      O39676   6.723   6.012   5.651
13145WAT     H139677   6.743   5.939   5.717
13145WAT     H239678   6.688   5.972   5.567
13146WAT      O39679   2.479   5.903   6.166
13146WAT     H139680   2.385   5.904   6.132
13146WAT     H239681   2.491   5.826   6.229
13147WAT      O39682   8.166   0.097   7.565
13147WAT     H139683   8.116   0.024   7.519
13147WAT     H239684   8.199   0.163   7.497
13148WAT      O39685   0.500   8.437   1.158
13148WAT     H139686   0.435   8.435   1.082
13148WAT     H239687   0.583   8.486   1.130
13149WAT      O39688   8.391   1.812   6.702
13149WAT     H139689   8.411   1.724   6.745
13149WAT     H239690   8.388   1.883   6.772
13150WAT      O39691   3.694   4.120   9.458
13150WAT     H139692   3.612   4.089   9.409
13150WAT     H239693   3.708   4.218   9.440
13151WAT      O39694   1.709   2.681   0.708
13151WAT     H139695   1.738   2.617   0.638
13151WAT     H239696   1.756   2.768   0.695
13152WAT      O39697   4.476   1.415   7.254
13152WAT     H139698   4.390   1.399   7.206
13152WAT     H239699   4.552   1.389   7.196
13153WAT      O39700   6.495   0.814   3.232
13153WAT     H139701   6.494   0.890   3.168
13153WAT     H239702   6.420   0.824   3.298
13154WAT      O39703   0.999   4.679   0.459
13154WAT     H139704   0.992   4.586   0.423
13154WAT     H239705   1.089   4.691   0.502
13155WAT      O39706   6.431   8.272   2.084
13155WAT     H139707   6.411   8.305   2.176
13155WAT     H239708   6.346   8.247   2.037
13156WAT      O39709   2.837   1.891   5.781
13156WAT     H139710   2.926   1.934   5.795
13156WAT     H239711   2.815   1.889   5.684
13157WAT      O39712   2.432   6.161   2.785
13157WAT     H139713   2.347   6.129   2.827
13157WAT     H239714   2.509   6.108   2.819
13158WAT      O39715   7.286   5.546   8.381
13158WAT     H139716   7.289   5.600   8.297
13158WAT     H239717   7.362   5.481   8.381
13159WAT      O39718   3.313   8.510   7.076
13159WAT     H139719   3.366   8.517   6.992
13159WAT     H239720   3.313   8.599   7.122
13160WAT      O39721   1.864   5.770   4.376
13160WAT     H139722   1.957   5.786   4.342
13160WAT     H239723   1.866   5.760   4.475
13161WAT      O39724   0.441   1.138   8.701
13161WAT     H139725   0.499   1.119   8.622
13161WAT     H239726   0.435   1.236   8.715
13162WAT      O39727   2.531   5.052   3.880
13162WAT     H139728   2.501   5.142   3.912
13162WAT     H239729   2.564   4.998   3.958
13163WAT      O39730   4.338   9.754   6.785
13163WAT     H139731   4.418   9.737   6.727
13163WAT     H239732   4.284   9.829   6.747
13164WAT      O39733   7.002   9.522   8.188
13164WAT     H139734   7.053   9.605   8.164
13164WAT     H239735   6.955   9.487   8.107
13165WAT      O39736   8.311   9.432   7.563
13165WAT     H139737   8.292   9.512   7.620
13165WAT     H239738   8.237   9.366   7.572
13166WAT      O39739   3.222   7.589   5.443
13166WAT     H139740   3.274   7.549   5.518
13166WAT     H239741   3.202   7.685   5.464
13167WAT      O39742   6.926   1.277   6.993
13167WAT     H139743   6.968   1.347   7.051
13167WAT     H239744   6.963   1.187   7.017
13168WAT      O39745   1.857   1.263   7.999
13168WAT     H139746   1.863   1.334   7.929
13168WAT     H239747   1.832   1.176   7.957
13169WAT      O39748   9.499   3.699   4.146
13169WAT     H139749   9.583   3.675   4.195
13169WAT     H239750   9.432   3.735   4.211
13170WAT      O39751   5.560   0.190   2.791
13170WAT     H139752   5.635   0.231   2.739
13170WAT     H239753   5.500   0.263   2.825
13171WAT      O39754   4.022   3.870   8.632
13171WAT     H139755   3.968   3.917   8.562
13171WAT     H239756   4.074   3.796   8.590
13172WAT      O39757   9.238   2.936   4.884
13172WAT     H139758   9.138   2.942   4.873
13172WAT     H239759   9.269   3.011   4.942
13173WAT      O39760   2.875   9.556   2.417
13173WAT     H139761   2.809   9.553   2.342
13173WAT     H239762   2.947   9.622   2.396
13174WAT      O39763   9.423   3.052   0.619
13174WAT     H139764   9.499   3.031   0.682
13174WAT     H239765   9.348   3.092   0.671
13175WAT      O39766   5.483   8.345   8.319
13175WAT     H139767   5.461   8.249   8.299
13175WAT     H239768   5.433   8.375   8.400
13176WAT      O39769   5.379   9.559   8.853
13176WAT     H139770   5.343   9.579   8.762
13176WAT     H239771   5.470   9.518   8.844
13177WAT      O39772   5.709   9.759   9.522
13177WAT     H139773   5.720   9.822   9.445
13177WAT     H239774   5.656   9.679   9.493
13178WAT      O39775   6.440   9.242   9.703
13178WAT     H139776   6.445   9.155   9.752
13178WAT     H239777   6.527   9.290   9.711
13179WAT      O39778   3.078   2.993   3.902
13179WAT     H139779   2.981   2.990   3.926
13179WAT     H239780   3.101   2.913   3.846
13180WAT      O39781   9.248   6.592   3.512
13180WAT     H139782   9.233   6.677   3.562
13180WAT     H239783   9.290   6.525   3.573
13181WAT      O39784   3.293   2.670   6.044
13181WAT     H139785   3.196   2.650   6.063
13181WAT     H239786   3.339   2.586   6.014
13182WAT      O39787   5.860   7.823   5.923
13182WAT     H139788   5.800   7.770   5.863
13182WAT     H239789   5.914   7.887   5.868
13183WAT      O39790   7.001   5.879   5.975
13183WAT     H139791   7.051   5.884   5.889
13183WAT     H239792   6.902   5.877   5.957
13184WAT      O39793   7.570   1.595   7.414
13184WAT     H139794   7.530   1.516   7.461
13184WAT     H239795   7.668   1.580   7.403
13185WAT      O39796   0.037   4.360   6.909
13185WAT     H139797   0.043   4.261   6.897
13185WAT     H239798   0.060   4.405   6.823
13186WAT      O39799   5.207   7.585   6.476
13186WAT     H139800   5.161   7.498   6.497
13186WAT     H239801   5.264   7.573   6.395
13187WAT      O39802   3.895   7.498   3.595
13187WAT     H139803   3.849   7.566   3.538
13187WAT     H239804   3.993   7.500   3.577
13188WAT      O39805   7.871   9.768   7.992
13188WAT     H139806   7.937   9.786   7.919
13188WAT     H239807   7.821   9.684   7.971
13189WAT      O39808   4.402   0.529   5.638
13189WAT     H139809   4.303   0.524   5.633
13189WAT     H239810   4.434   0.485   5.721
13190WAT      O39811   5.177   5.317   0.360
13190WAT     H139812   5.193   5.379   0.437
13190WAT     H239813   5.088   5.271   0.372
13191WAT      O39814   4.501   0.152   9.485
13191WAT     H139815   4.562   0.119   9.413
13191WAT     H239816   4.544   0.140   9.574
13192WAT      O39817   9.058   1.625   4.456
13192WAT     H139818   8.958   1.631   4.448
13192WAT     H239819   9.100   1.670   4.378
13193WAT      O39820   2.818   9.573   0.444
13193WAT     H139821   2.770   9.564   0.357
13193WAT     H239822   2.782   9.652   0.493
13194WAT      O39823   9.716   2.358   6.532
13194WAT     H139824   9.770   2.409   6.598
13194WAT     H239825   9.673   2.280   6.577
13195WAT      O39826   9.571   4.422   6.110
13195WAT     H139827   9.611   4.332   6.093
13195WAT     H239828   9.494   4.437   6.048
13196WAT      O39829   5.358   9.230   1.646
13196WAT     H139830   5.431   9.192   1.589
13196WAT     H239831   5.272   9.186   1.624
13197WAT      O39832   1.621   0.284   1.167
13197WAT     H139833   1.721   0.284   1.165
13197WAT     H239834   1.590   0.290   1.262
13198WAT      O39835   2.837   3.891   6.612
13198WAT     H139836   2.828   3.812   6.672
13198WAT     H239837   2.930   3.894   6.575
13199WAT      O39838   8.298   4.252   8.254
13199WAT     H139839   8.385   4.229   8.297
13199WAT     H239840   8.246   4.169   8.236
13200WAT      O39841   3.635   2.079   7.322
13200WAT     H139842   3.563   2.129   7.274
13200WAT     H239843   3.713   2.065   7.261
13201WAT      O39844   5.597   6.886   8.145
13201WAT     H139845   5.664   6.812   8.147
13201WAT     H239846   5.603   6.934   8.058
13202WAT      O39847   3.259   3.308   8.461
13202WAT     H139848   3.182   3.270   8.513
13202WAT     H239849   3.345   3.285   8.505
13203WAT      O39850   0.165   0.861   6.220
13203WAT     H139851   0.066   0.879   6.216
13203WAT     H239852   0.180   0.767   6.250
13204WAT      O39853   0.870   4.487   1.099
13204WAT     H139854   0.876   4.584   1.124
13204WAT     H239855   0.774   4.461   1.091
13205WAT      O39856   8.045   7.416   6.189
13205WAT     H139857   8.107   7.492   6.168
13205WAT     H239858   8.082   7.363   6.264
13206WAT      O39859   2.007   0.940   4.627
13206WAT     H139860   2.085   0.976   4.576
13206WAT     H239861   2.034   0.926   4.723
13207WAT      O39862   5.988   0.180   6.149
13207WAT     H139863   6.004   0.240   6.227
13207WAT     H239864   6.070   0.175   6.093
13208WAT      O39865   5.295   5.425   6.428
13208WAT     H139866   5.308   5.388   6.335
13208WAT     H239867   5.383   5.433   6.473
13209WAT      O39868   7.431   4.134   5.578
13209WAT     H139869   7.443   4.214   5.519
13209WAT     H239870   7.337   4.130   5.611
13210WAT      O39871   7.208   7.125   2.092
13210WAT     H139872   7.121   7.085   2.117
13210WAT     H239873   7.241   7.183   2.167
13211WAT      O39874   7.786   8.044   2.655
13211WAT     H139875   7.812   8.140   2.663
13211WAT     H239876   7.793   8.016   2.559
13212WAT      O39877   1.302   6.763   9.443
13212WAT     H139878   1.326   6.848   9.491
13212WAT     H239879   1.381   6.730   9.392
13213WAT      O39880   4.087   2.349   8.982
13213WAT     H139881   4.105   2.447   8.993
13213WAT     H239882   4.021   2.335   8.908
13214WAT      O39883   3.890   2.336   3.927
13214WAT     H139884   3.800   2.362   3.892
13214WAT     H239885   3.960   2.353   3.857
13215WAT      O39886   0.649   3.125   8.734
13215WAT     H139887   0.620   3.213   8.695
13215WAT     H239888   0.639   3.128   8.834
13216WAT      O39889   8.365   7.123   8.370
13216WAT     H139890   8.279   7.105   8.322
13216WAT     H239891   8.376   7.221   8.384
13217WAT      O39892   7.266   2.502   5.291
13217WAT     H139893   7.264   2.497   5.391
13217WAT     H239894   7.244   2.595   5.261
13218WAT      O39895   2.585   3.697   8.700
13218WAT     H139896   2.584   3.792   8.668
13218WAT     H239897   2.680   3.665   8.705
13219WAT      O39898   6.000   5.161   9.561
13219WAT     H139899   5.947   5.153   9.477
13219WAT     H239900   5.953   5.220   9.626
13220WAT      O39901   2.514   1.302   6.210
13220WAT     H139902   2.529   1.379   6.273
13220WAT     H239903   2.513   1.336   6.116
13221WAT      O39904   5.070   0.983   1.030
13221WAT     H139905   5.002   0.994   1.102
13221WAT     H239906   5.045   0.905   0.972
13222WAT      O39907   1.459   3.476   0.871
13222WAT     H139908   1.514   3.483   0.788
13222WAT     H239909   1.442   3.379   0.891
13223WAT      O39910   6.269   9.717   2.707
13223WAT     H139911   6.220   9.696   2.791
13223WAT     H239912   6.303   9.632   2.666
13224WAT      O39913   6.895   4.039   7.468
13224WAT     H139914   6.921   3.986   7.549
13224WAT     H239915   6.958   4.017   7.393
13225WAT      O39916   7.693   5.362   7.241
13225WAT     H139917   7.716   5.443   7.187
13225WAT     H239918   7.605   5.376   7.287
13226WAT      O39919   7.421   1.028   9.365
13226WAT     H139920   7.491   1.057   9.299
13226WAT     H239921   7.338   1.083   9.353
13227WAT      O39922   7.422   2.453   8.708
13227WAT     H139923   7.365   2.398   8.646
13227WAT     H239924   7.506   2.403   8.728
13228WAT      O39925   4.899   9.726   7.180
13228WAT     H139926   4.981   9.739   7.125
13228WAT     H239927   4.902   9.636   7.223
13229WAT      O39928   2.388   6.175   6.885
13229WAT     H139929   2.460   6.225   6.934
13229WAT     H239930   2.299   6.209   6.915
13230WAT      O39931   8.867   9.247   5.617
13230WAT     H139932   8.851   9.307   5.539
13230WAT     H239933   8.780   9.224   5.661
13231WAT      O39934   3.394   4.087   0.654
13231WAT     H139935   3.491   4.063   0.644
13231WAT     H239936   3.344   4.008   0.690
13232WAT      O39937   7.528   2.861   6.102
13232WAT     H139938   7.449   2.823   6.150
13232WAT     H239939   7.569   2.933   6.157
13233WAT      O39940   1.456   1.246   5.864
13233WAT     H139941   1.408   1.315   5.918
13233WAT     H239942   1.486   1.286   5.777
13234WAT      O39943   7.204   3.225   0.799
13234WAT     H139944   7.189   3.127   0.789
13234WAT     H239945   7.197   3.269   0.709
13235WAT      O39946   7.053   2.235   1.052
13235WAT     H139947   7.041   2.147   1.005
13235WAT     H239948   6.972   2.291   1.041
13236WAT      O39949   7.139   8.212   6.704
13236WAT     H139950   7.130   8.215   6.804
13236WAT     H239951   7.178   8.298   6.672
13237WAT      O39952   8.716   3.946   5.574
13237WAT     H139953   8.755   3.935   5.482
13237WAT     H239954   8.730   3.862   5.626
13238WAT      O39955   7.875   6.318   3.278
13238WAT     H139956   7.827   6.248   3.224
13238WAT     H239957   7.853   6.305   3.375
13239WAT      O39958   1.365   2.906   4.081
13239WAT     H139959   1.439   2.973   4.092
13239WAT     H239960   1.341   2.899   3.984
13240WAT      O39961   3.321   4.555   0.478
13240WAT     H139962   3.314   4.465   0.521
13240WAT     H239963   3.230   4.588   0.455
13241WAT      O39964   7.997   3.900   8.685
13241WAT     H139965   8.088   3.915   8.645
13241WAT     H239966   7.927   3.921   8.617
13242WAT      O39967   0.314   4.227   3.877
13242WAT     H139968   0.224   4.233   3.833
13242WAT     H239969   0.303   4.219   3.976
13243WAT      O39970   3.136   7.048   9.183
13243WAT     H139971   3.061   7.000   9.227
13243WAT     H239972   3.189   6.984   9.126
13244WAT      O39973   3.820   7.940   9.604
13244WAT     H139974   3.764   7.893   9.671
13244WAT     H239975   3.910   7.961   9.644
13245WAT      O39976   5.236   5.961   8.787
13245WAT     H139977   5.180   5.880   8.806
13245WAT     H239978   5.290   5.946   8.704
13246WAT      O39979   3.950   1.802   2.655
13246WAT     H139980   4.018   1.752   2.708
13246WAT     H239981   3.907   1.740   2.590
13247WAT      O39982   2.720   3.615   5.672
13247WAT     H139983   2.680   3.535   5.716
13247WAT     H239984   2.702   3.612   5.574
13248WAT      O39985   7.678   2.624   1.124
13248WAT     H139986   7.722   2.700   1.075
13248WAT     H239987   7.693   2.635   1.222
13249WAT      O39988   5.668   5.769   7.023
13249WAT     H139989   5.696   5.864   7.010
13249WAT     H239990   5.642   5.730   6.934
13250WAT      O39991   9.305   4.040   8.978
13250WAT     H139992   9.331   3.948   9.008
13250WAT     H239993   9.223   4.034   8.920
13251WAT      O39994   5.121   8.260   7.893
13251WAT     H139995   5.044   8.313   7.859
13251WAT     H239996   5.099   8.224   7.984
13252WAT      O39997   4.601   2.996   5.319
13252WAT     H139998   4.604   3.055   5.400
13252WAT     H239999   4.513   3.006   5.274
13253WAT      O40000   1.208   8.787   4.684
13253WAT     H140001   1.177   8.695   4.708
13253WAT     H240002   1.218   8.795   4.585
13254WAT      O40003   4.663   8.090   2.127
13254WAT     H140004   4.653   8.163   2.196
13254WAT     H240005   4.752   8.046   2.137
13255WAT      O40006   6.077   7.677   1.578
13255WAT     H140007   6.145   7.609   1.607
13255WAT     H240008   6.063   7.670   1.479
13256WAT      O40009   0.996   5.138   1.713
13256WAT     H140010   1.070   5.149   1.780
13256WAT     H240011   0.908   5.134   1.760
13257WAT      O40012   7.170   4.871   1.718
13257WAT     H140013   7.250   4.845   1.664
13257WAT     H240014   7.180   4.966   1.750
13258WAT      O40015   4.756   5.775   6.649
13258WAT     H140016   4.759   5.866   6.608
13258WAT     H240017   4.818   5.714   6.601
13259WAT      O40018   0.819   5.559   7.957
13259WAT     H140019   0.774   5.549   7.869
13259WAT     H240020   0.815   5.654   7.987
13260WAT      O40021   7.071   3.607   8.434
13260WAT     H140022   7.078   3.507   8.432
13260WAT     H240023   7.161   3.646   8.452
13261WAT      O40024   2.722   2.883   8.953
13261WAT     H140025   2.643   2.890   8.893
13261WAT     H240026   2.720   2.957   9.020
13262WAT      O40027   9.095   2.401   1.844
13262WAT     H140028   9.151   2.450   1.778
13262WAT     H240029   9.133   2.310   1.860
13263WAT      O40030   2.091   8.140   6.936
13263WAT     H140031   2.178   8.179   6.966
13263WAT     H240032   2.052   8.196   6.863
13264WAT      O40033   6.619   7.740   7.219
13264WAT     H140034   6.584   7.660   7.269
13264WAT     H240035   6.577   7.744   7.129
13265WAT      O40036   3.694   7.833   7.062
13265WAT     H140037   3.657   7.889   6.988
13265WAT     H240038   3.761   7.768   7.025
13266WAT      O40039   3.124   6.776   6.282
13266WAT     H140040   3.054   6.727   6.334
13266WAT     H240041   3.193   6.813   6.346
13267WAT      O40042   8.788   1.482   2.231
13267WAT     H140043   8.787   1.383   2.214
13267WAT     H240044   8.712   1.506   2.290
13268WAT      O40045   4.495   6.272   0.747
13268WAT     H140046   4.430   6.323   0.802
13268WAT     H240047   4.453   6.188   0.713
13269WAT      O40048   0.680   8.701   1.369
13269WAT     H140049   0.773   8.713   1.403
13269WAT     H240050   0.683   8.670   1.274
13270WAT      O40051   5.254   3.274   2.348
13270WAT     H140052   5.206   3.186   2.354
13270WAT     H240053   5.242   3.324   2.434
13271WAT      O40054   0.759   7.260   1.809
13271WAT     H140055   0.800   7.186   1.863
13271WAT     H240056   0.662   7.242   1.797
13272WAT      O40057   7.975   7.644   8.875
13272WAT     H140058   7.919   7.721   8.906
13272WAT     H240059   7.922   7.560   8.879
13273WAT      O40060   6.904   7.966   2.365
13273WAT     H140061   6.943   7.878   2.342
13273WAT     H240062   6.969   8.039   2.342
13274WAT      O40063   7.172   6.868   3.757
13274WAT     H140064   7.086   6.876   3.807
13274WAT     H240065   7.248   6.859   3.822
13275WAT      O40066   8.690   5.394   2.684
13275WAT     H140067   8.765   5.400   2.749
13275WAT     H240068   8.654   5.486   2.666
13276WAT      O40069   3.311   6.533   1.511
13276WAT     H140070   3.317   6.467   1.585
13276WAT     H240071   3.272   6.489   1.430
13277WAT      O40072   6.580   7.705   2.928
13277WAT     H140073   6.673   7.673   2.949
13277WAT     H240074   6.563   7.694   2.831
13278WAT      O40075   4.322   5.869   3.336
13278WAT     H140076   4.266   5.869   3.420
13278WAT     H240077   4.407   5.919   3.354
13279WAT      O40078   0.846   2.358   5.364
13279WAT     H140079   0.834   2.426   5.437
13279WAT     H240080   0.764   2.355   5.307
13280WAT      O40081   8.146   1.315   0.896
13280WAT     H140082   8.072   1.268   0.849
13280WAT     H240083   8.225   1.323   0.836
13281WAT      O40084   7.536   8.459   6.943
13281WAT     H140085   7.598   8.382   6.938
13281WAT     H240086   7.587   8.541   6.969
13282WAT      O40087   1.723   9.108   4.800
13282WAT     H140088   1.666   9.166   4.858
13282WAT     H240089   1.756   9.161   4.722
13283WAT      O40090   1.420   0.257   6.143
13283WAT     H140091   1.469   0.219   6.064
13283WAT     H240092   1.332   0.211   6.153
13284WAT      O40093   2.322   8.169   2.633
13284WAT     H140094   2.292   8.162   2.728
13284WAT     H240095   2.252   8.217   2.579
13285WAT      O40096   9.316   2.038   5.165
13285WAT     H140097   9.280   2.108   5.103
13285WAT     H240098   9.245   1.972   5.187
13286WAT      O40099   3.924   6.205   0.175
13286WAT     H140100   3.942   6.274   0.104
13286WAT     H240101   3.930   6.114   0.135
13287WAT      O40102   0.469   0.529   7.148
13287WAT     H140103   0.563   0.527   7.114
13287WAT     H240104   0.444   0.438   7.182
13288WAT      O40105   5.452   6.787   9.478
13288WAT     H140106   5.497   6.858   9.534
13288WAT     H240107   5.414   6.717   9.538
13289WAT      O40108   0.229   7.127   7.890
13289WAT     H140109   0.275   7.209   7.859
13289WAT     H240110   0.132   7.131   7.867
13290WAT      O40111   2.372   8.213   9.088
13290WAT     H140112   2.364   8.299   9.139
13290WAT     H240113   2.450   8.161   9.122
13291WAT      O40114   5.804   1.847   1.362
13291WAT     H140115   5.868   1.858   1.286
13291WAT     H240116   5.854   1.851   1.449
13292WAT      O40117   1.141   9.275   9.026
13292WAT     H140118   1.222   9.257   8.970
13292WAT     H240119   1.158   9.355   9.084
13293WAT      O40120   8.686   7.052   2.551
13293WAT     H140121   8.682   7.109   2.469
13293WAT     H240122   8.650   6.961   2.531
13294WAT      O40123   9.526   2.980   9.616
13294WAT     H140124   9.589   2.929   9.674
13294WAT     H240125   9.575   3.017   9.538
13295WAT      O40126   2.885   7.193   9.457
13295WAT     H140127   2.922   7.280   9.426
13295WAT     H240128   2.841   7.205   9.546
13296WAT      O40129   5.142   4.444   7.632
13296WAT     H140130   5.210   4.398   7.689
13296WAT     H240131   5.076   4.492   7.690
13297WAT      O40132   7.557   0.537   2.423
13297WAT     H140133   7.543   0.447   2.466
13297WAT     H240134   7.600   0.525   2.334
13298WAT      O40135   4.991   1.773   7.575
13298WAT     H140136   4.957   1.742   7.486
13298WAT     H240137   4.992   1.873   7.578
13299WAT      O40138   0.141   1.277   8.770
13299WAT     H140139   0.068   1.330   8.812
13299WAT     H240140   0.102   1.205   8.713
13300WAT      O40141   6.977   1.236   1.531
13300WAT     H140142   6.974   1.260   1.434
13300WAT     H240143   7.072   1.241   1.563
13301WAT      O40144   9.099   2.931   8.327
13301WAT     H140145   9.149   2.949   8.242
13301WAT     H240146   9.067   3.018   8.365
13302WAT      O40147   3.897   7.650   3.830
13302WAT     H140148   3.894   7.609   3.739
13302WAT     H240149   3.952   7.591   3.891
13303WAT      O40150   0.866   0.625   0.376
13303WAT     H140151   0.961   0.620   0.410
13303WAT     H240152   0.863   0.683   0.295
13304WAT      O40153   0.402   4.854   3.327
13304WAT     H140154   0.379   4.890   3.236
13304WAT     H240155   0.322   4.862   3.386
13305WAT      O40156   4.494   4.910   4.064
13305WAT     H140157   4.438   4.887   3.984
13305WAT     H240158   4.469   4.850   4.140
13306WAT      O40159   6.352   4.829   6.658
13306WAT     H140160   6.297   4.838   6.741
13306WAT     H240161   6.387   4.919   6.631
13307WAT      O40162   2.946   0.726   0.028
13307WAT     H140163   2.904   0.671  -0.044
13307WAT     H240164   2.925   0.685   0.117
13308WAT      O40165   3.920   2.427   0.162
13308WAT     H140166   4.012   2.429   0.123
13308WAT     H240167   3.911   2.350   0.224
13309WAT      O40168   0.980   8.050   5.544
13309WAT     H140169   1.005   7.975   5.483
13309WAT     H240170   0.909   8.106   5.501
13310WAT      O40171   3.930   1.121   3.040
13310WAT     H140172   3.941   1.027   3.072
13310WAT     H240173   3.927   1.121   2.940
13311WAT      O40174   5.595   0.840   2.098
13311WAT     H140175   5.654   0.770   2.059
13311WAT     H240176   5.598   0.923   2.041
13312WAT      O40177   2.285   4.807   5.307
13312WAT     H140178   2.383   4.809   5.328
13312WAT     H240179   2.262   4.720   5.264
13313WAT      O40180   5.574   3.656   8.878
13313WAT     H140181   5.659   3.632   8.831
13313WAT     H240182   5.562   3.598   8.959
13314WAT      O40183   4.908   1.612   5.536
13314WAT     H140184   4.927   1.517   5.558
13314WAT     H240185   4.968   1.643   5.462
13315WAT      O40186   1.209   6.227   6.901
13315WAT     H140187   1.175   6.250   6.810
13315WAT     H240188   1.158   6.149   6.936
13316WAT      O40189   0.266   2.125   4.359
13316WAT     H140190   0.176   2.129   4.316
13316WAT     H240191   0.331   2.178   4.305
13317WAT      O40192   2.394   7.773   3.578
13317WAT     H140193   2.407   7.732   3.669
13317WAT     H240194   2.395   7.701   3.509
13318WAT      O40195   9.284   1.525   9.341
13318WAT     H140196   9.320   1.508   9.433
13318WAT     H240197   9.242   1.616   9.338
13319WAT      O40198   7.261   1.418   4.726
13319WAT     H140199   7.173   1.449   4.691
13319WAT     H240200   7.308   1.365   4.656
13320WAT      O40201   1.664   5.994   7.414
13320WAT     H140202   1.643   6.074   7.470
13320WAT     H240203   1.599   5.988   7.338
13321WAT      O40204   6.559   4.337   5.034
13321WAT     H140205   6.482   4.326   4.971
13321WAT     H240206   6.525   4.342   5.128
13322WAT      O40207   7.666   3.029   6.732
13322WAT     H140208   7.761   3.034   6.764
13322WAT     H240209   7.607   2.999   6.808
13323WAT      O40210   5.398   8.001   9.055
13323WAT     H140211   5.345   8.013   8.970
13323WAT     H240212   5.472   7.936   9.039
13324WAT      O40213   3.863   4.060   8.500
13324WAT     H140214   3.885   4.152   8.533
13324WAT     H240215   3.770   4.060   8.462
13325WAT      O40216   5.506   9.128   9.040
13325WAT     H140217   5.543   9.169   8.957
13325WAT     H240218   5.581   9.103   9.102
13326WAT      O40219   2.413   0.949   8.520
13326WAT     H140220   2.408   1.047   8.539
13326WAT     H240221   2.321   0.914   8.504
13327WAT      O40222   0.416   9.619   0.952
13327WAT     H140223   0.479   9.630   0.875
13327WAT     H240224   0.328   9.662   0.929
13328WAT      O40225   1.429   5.454   6.803
13328WAT     H140226   1.511   5.405   6.775
13328WAT     H240227   1.439   5.551   6.780
13329WAT      O40228   1.284   2.115   3.155
13329WAT     H140229   1.369   2.115   3.103
13329WAT     H240230   1.242   2.024   3.151
13330WAT      O40231   7.796   3.519   2.354
13330WAT     H140232   7.770   3.433   2.397
13330WAT     H240233   7.717   3.580   2.350
13331WAT      O40234   3.025   5.592   0.997
13331WAT     H140235   2.967   5.673   1.000
13331WAT     H240236   3.061   5.574   1.089
13332WAT      O40237   3.821   0.901   3.726
13332WAT     H140238   3.856   0.966   3.658
13332WAT     H240239   3.887   0.891   3.800
13333WAT      O40240   3.177   7.377   6.761
13333WAT     H140241   3.116   7.392   6.684
13333WAT     H240242   3.128   7.393   6.847
13334WAT      O40243   7.931   9.721   6.084
13334WAT     H140244   7.869   9.681   6.016
13334WAT     H240245   8.024   9.725   6.047
13335WAT      O40246   7.221   7.893   5.872
13335WAT     H140247   7.242   7.979   5.918
13335WAT     H240248   7.209   7.821   5.941
13336WAT      O40249   5.273   7.269   5.750
13336WAT     H140250   5.249   7.273   5.653
13336WAT     H240251   5.349   7.205   5.763
13337WAT      O40252   1.010   4.368   6.146
13337WAT     H140253   1.075   4.292   6.152
13337WAT     H240254   0.925   4.343   6.193
13338WAT      O40255   6.061   8.094   0.634
13338WAT     H140256   6.095   8.006   0.669
13338WAT     H240257   5.975   8.080   0.586
13339WAT      O40258   0.733   4.901   8.843
13339WAT     H140259   0.700   4.933   8.754
13339WAT     H240260   0.833   4.910   8.847
13340WAT      O40261   6.825   7.678   4.066
13340WAT     H140262   6.834   7.660   4.164
13340WAT     H240263   6.731   7.706   4.045
13341WAT      O40264   6.751   6.545   2.684
13341WAT     H140265   6.769   6.594   2.599
13341WAT     H240266   6.733   6.612   2.757
13342WAT      O40267   9.670   9.297   5.236
13342WAT     H140268   9.745   9.234   5.219
13342WAT     H240269   9.697   9.389   5.209
13343WAT      O40270   3.444   0.408   0.487
13343WAT     H140271   3.385   0.477   0.444
13343WAT     H240272   3.527   0.398   0.433
13344WAT      O40273   7.425   5.135   0.354
13344WAT     H140274   7.476   5.205   0.406
13344WAT     H240275   7.459   5.134   0.260
13345WAT      O40276   3.101   4.852   5.308
13345WAT     H140277   3.093   4.945   5.272
13345WAT     H240278   3.020   4.831   5.364
13346WAT      O40279   7.917   0.128   2.761
13346WAT     H140280   8.013   0.149   2.780
13346WAT     H240281   7.878   0.199   2.703
13347WAT      O40282   4.845   1.205   1.609
13347WAT     H140283   4.877   1.251   1.526
13347WAT     H240284   4.748   1.182   1.599
13348WAT      O40285   4.061   0.815   7.803
13348WAT     H140286   4.075   0.787   7.898
13348WAT     H240287   4.041   0.912   7.798
13349WAT      O40288   4.672   2.767   4.153
13349WAT     H140289   4.594   2.716   4.189
13349WAT     H240290   4.639   2.844   4.098
13350WAT      O40291   0.399   4.300   2.478
13350WAT     H140292   0.356   4.212   2.495
13350WAT     H240293   0.436   4.337   2.563
13351WAT      O40294   4.152   1.248   4.522
13351WAT     H140295   4.072   1.214   4.472
13351WAT     H240296   4.232   1.247   4.462
13352WAT      O40297   5.587   0.964   2.590
13352WAT     H140298   5.679   0.924   2.589
13352WAT     H240299   5.584   1.044   2.530
13353WAT      O40300   8.438   1.884   5.093
13353WAT     H140301   8.343   1.895   5.065
13353WAT     H240302   8.446   1.804   5.153
13354WAT      O40303   1.740   7.538   4.436
13354WAT     H140304   1.644   7.536   4.463
13354WAT     H240305   1.754   7.612   4.369
13355WAT      O40306   3.534   0.215   6.428
13355WAT     H140307   3.595   0.139   6.451
13355WAT     H240308   3.585   0.300   6.428
13356WAT      O40309   8.415   7.360   6.363
13356WAT     H140310   8.508   7.343   6.330
13356WAT     H240311   8.355   7.287   6.332
13357WAT      O40312   0.066   8.584   0.527
13357WAT     H140313   0.140   8.647   0.505
13357WAT     H240314  -0.013   8.602   0.468
13358WAT      O40315   3.963   2.158   6.267
13358WAT     H140316   3.904   2.239   6.263
13358WAT     H240317   4.026   2.166   6.345
13359WAT      O40318   5.368   5.148   2.679
13359WAT     H140319   5.425   5.230   2.678
13359WAT     H240320   5.364   5.109   2.587
13360WAT      O40321   0.723   8.994   0.141
13360WAT     H140322   0.727   8.961   0.235
13360WAT     H240323   0.712   9.094   0.140
13361WAT      O40324   2.593   1.969   3.169
13361WAT     H140325   2.653   2.040   3.132
13361WAT     H240326   2.552   1.919   3.093
13362WAT      O40327   9.467   8.329   7.878
13362WAT     H140328   9.471   8.310   7.780
13362WAT     H240329   9.409   8.261   7.923
13363WAT      O40330   7.338   0.986   1.419
13363WAT     H140331   7.327   0.890   1.395
13363WAT     H240332   7.317   0.999   1.516
13364WAT      O40333   3.219   8.007   1.345
13364WAT     H140334   3.317   8.009   1.326
13364WAT     H240335   3.190   7.912   1.357
13365WAT      O40336   1.230   1.283   2.188
13365WAT     H140337   1.317   1.234   2.182
13365WAT     H240338   1.227   1.354   2.118
13366WAT      O40339   3.621   3.414   9.081
13366WAT     H140340   3.527   3.448   9.072
13366WAT     H240341   3.670   3.470   9.148
13367WAT      O40342   2.692   5.242   2.902
13367WAT     H140343   2.646   5.160   2.937
13367WAT     H240344   2.627   5.318   2.900
13368WAT      O40345   5.315   4.652   0.366
13368WAT     H140346   5.315   4.747   0.336
13368WAT     H240347   5.355   4.594   0.295
13369WAT      O40348   0.076   5.060   4.638
13369WAT     H140349   0.149   5.009   4.685
13369WAT     H240350   0.056   5.016   4.551
13370WAT      O40351   0.850   2.115   3.157
13370WAT     H140352   0.928   2.152   3.209
13370WAT     H240353   0.765   2.142   3.202
13371WAT      O40354   0.673   6.756   7.619
13371WAT     H140355   0.682   6.744   7.718
13371WAT     H240356   0.654   6.852   7.598
13372WAT      O40357   5.093   1.249   4.303
13372WAT     H140358   5.041   1.258   4.388
13372WAT     H240359   5.051   1.179   4.245
13373WAT      O40360   9.064   6.148   1.169
13373WAT     H140361   9.103   6.240   1.169
13373WAT     H240362   8.965   6.154   1.165
13374WAT      O40363   9.113   4.153   0.026
13374WAT     H140364   9.109   4.148   0.126
13374WAT     H240365   9.198   4.197  -0.002
13375WAT      O40366   5.126   3.806   2.893
13375WAT     H140367   5.106   3.898   2.860
13375WAT     H240368   5.212   3.774   2.852
13376WAT      O40369   4.739   5.077   8.468
13376WAT     H140370   4.769   5.032   8.384
13376WAT     H240371   4.798   5.156   8.485
13377WAT      O40372   3.756   7.099   7.310
13377WAT     H140373   3.725   7.017   7.264
13377WAT     H240374   3.795   7.163   7.243
13378WAT      O40375   6.675   7.277   4.856
13378WAT     H140376   6.673   7.223   4.940
13378WAT     H240377   6.631   7.365   4.872
13379WAT      O40378   2.954   0.664   9.328
13379WAT     H140379   3.049   0.637   9.310
13379WAT     H240380   2.937   0.754   9.289
13380WAT      O40381   3.158   9.657   5.872
13380WAT     H140382   3.110   9.645   5.785
13380WAT     H240383   3.125   9.740   5.918
13381WAT      O40384   5.861   6.014   6.239
13381WAT     H140385   5.936   5.952   6.215
13381WAT     H240386   5.850   6.015   6.339
13382WAT      O40387   8.835   0.529   5.092
13382WAT     H140388   8.752   0.565   5.050
13382WAT     H240389   8.876   0.599   5.151
13383WAT      O40390   9.132   7.107   8.274
13383WAT     H140391   9.091   7.103   8.366
13383WAT     H240392   9.067   7.150   8.211
13384WAT      O40393   4.736   1.772   1.497
13384WAT     H140394   4.695   1.711   1.565
13384WAT     H240395   4.667   1.836   1.465
13385WAT      O40396   7.065   9.436   7.534
13385WAT     H140397   7.153   9.465   7.572
13385WAT     H240398   7.001   9.418   7.609
13386WAT      O40399   7.517   8.649   3.452
13386WAT     H140400   7.546   8.738   3.487
13386WAT     H240401   7.463   8.662   3.369
13387WAT      O40402   1.748   1.528   3.789
13387WAT     H140403   1.835   1.484   3.812
13387WAT     H240404   1.675   1.460   3.787
13388WAT      O40405   7.243   3.923   4.609
13388WAT     H140406   7.184   4.000   4.585
13388WAT     H240407   7.287   3.941   4.697
13389WAT      O40408   5.930   1.253   6.267
13389WAT     H140409   5.978   1.177   6.310
13389WAT     H240410   5.991   1.300   6.204
13390WAT      O40411   1.073   8.682   9.787
13390WAT     H140412   1.080   8.634   9.700
13390WAT     H240413   1.001   8.640   9.843
13391WAT      O40414   4.618   7.541   6.223
13391WAT     H140415   4.568   7.530   6.137
13391WAT     H240416   4.553   7.543   6.299
13392WAT      O40417   0.919   5.000   6.648
13392WAT     H140418   0.984   5.069   6.616
13392WAT     H240419   0.916   4.925   6.583
13393WAT      O40420   3.482   1.594   4.073
13393WAT     H140421   3.504   1.503   4.040
13393WAT     H240422   3.394   1.623   4.036
13394WAT      O40423   6.733   6.184   1.004
13394WAT     H140424   6.664   6.203   0.934
13394WAT     H240425   6.728   6.088   1.032
13395WAT      O40426   5.265   9.307   7.104
13395WAT     H140427   5.328   9.347   7.037
13395WAT     H240428   5.246   9.375   7.176
13396WAT      O40429   6.136   9.415   4.592
13396WAT     H140430   6.152   9.382   4.685
13396WAT     H240431   6.221   9.408   4.539
13397WAT      O40432   3.304   2.809   1.060
13397WAT     H140433   3.391   2.776   1.022
13397WAT     H240434   3.320   2.890   1.116
13398WAT      O40435   1.709   4.809   7.725
13398WAT     H140436   1.735   4.791   7.630
13398WAT     H240437   1.759   4.747   7.785
13399WAT      O40438   8.211   4.011   8.230
13399WAT     H140439   8.152   3.950   8.284
13399WAT     H240440   8.220   3.974   8.137
13400WAT      O40441   3.250   2.024   3.660
13400WAT     H140442   3.243   1.935   3.613
13400WAT     H240443   3.225   2.013   3.756
13401WAT      O40444   2.129   5.882   6.768
13401WAT     H140445   2.121   5.913   6.863
13401WAT     H240446   2.051   5.824   6.746
13402WAT      O40447   1.568   5.102   5.810
13402WAT     H140448   1.637   5.101   5.738
13402WAT     H240449   1.535   5.008   5.825
13403WAT      O40450   4.311   2.283   6.042
13403WAT     H140451   4.266   2.365   6.079
13403WAT     H240452   4.249   2.237   5.979
13404WAT      O40453   0.831   7.856   1.588
13404WAT     H140454   0.809   7.941   1.541
13404WAT     H240455   0.758   7.834   1.653
13405WAT      O40456   8.871   9.134   9.083
13405WAT     H140457   8.799   9.072   9.050
13405WAT     H240458   8.899   9.193   9.008
13406WAT      O40459   0.628   4.695   6.865
13406WAT     H140460   0.575   4.621   6.909
13406WAT     H240461   0.609   4.696   6.767
13407WAT      O40462   3.160   9.601   3.852
13407WAT     H140463   3.123   9.673   3.793
13407WAT     H240464   3.099   9.587   3.930
13408WAT      O40465   6.218   1.628   7.150
13408WAT     H140466   6.120   1.628   7.130
13408WAT     H240467   6.239   1.551   7.211
13409WAT      O40468   8.148   4.572   8.957
13409WAT     H140469   8.081   4.646   8.950
13409WAT     H240470   8.187   4.571   9.050
13410WAT      O40471   4.443   0.742   1.592
13410WAT     H140472   4.456   0.768   1.497
13410WAT     H240473   4.349   0.762   1.620
13411WAT      O40474   7.680   2.612   2.038
13411WAT     H140475   7.717   2.692   1.991
13411WAT     H240476   7.587   2.633   2.069
13412WAT      O40477   9.021   1.796   9.360
13412WAT     H140478   8.944   1.736   9.382
13412WAT     H240479   9.056   1.837   9.444
13413WAT      O40480   7.248   5.195   2.149
13413WAT     H140481   7.292   5.106   2.138
13413WAT     H240482   7.163   5.185   2.200
13414WAT      O40483   2.214   4.165   9.091
13414WAT     H140484   2.170   4.076   9.092
13414WAT     H240485   2.270   4.176   9.173
13415WAT      O40486   2.276   2.341   3.575
13415WAT     H140487   2.350   2.359   3.510
13415WAT     H240488   2.192   2.319   3.525
13416WAT      O40489   9.556   5.602   7.463
13416WAT     H140490   9.554   5.555   7.375
13416WAT     H240491   9.562   5.534   7.536
13417WAT      O40492   8.122   1.319   2.880
13417WAT     H140493   8.098   1.413   2.855
13417WAT     H240494   8.099   1.304   2.976
13418WAT      O40495   6.591   2.075   5.693
13418WAT     H140496   6.653   2.014   5.643
13418WAT     H240497   6.558   2.146   5.631
13419WAT      O40498   1.343   1.469   5.996
13419WAT     H140499   1.299   1.520   6.069
13419WAT     H240500   1.425   1.518   5.965
13420WAT      O40501   5.169   3.365   2.604
13420WAT     H140502   5.146   3.307   2.682
13420WAT     H240503   5.224   3.442   2.635
13421WAT      O40504   4.240   3.688   4.734
13421WAT     H140505   4.225   3.640   4.647
13421WAT     H240506   4.166   3.754   4.748
13422WAT      O40507   4.332   9.356   7.025
13422WAT     H140508   4.264   9.422   7.057
13422WAT     H240509   4.421   9.379   7.064
13423WAT      O40510   3.341   9.540   8.283
13423WAT     H140511   3.331   9.571   8.189
13423WAT     H240512   3.438   9.526   8.304
13424WAT      O40513   5.079   6.439   6.137
13424WAT     H140514   4.993   6.393   6.158
13424WAT     H240515   5.109   6.492   6.216
13425WAT      O40516   0.853   4.564   6.579
13425WAT     H140517   0.778   4.502   6.555
13425WAT     H240518   0.843   4.591   6.675
13426WAT      O40519   8.749   0.680   9.140
13426WAT     H140520   8.755   0.765   9.087
13426WAT     H240521   8.654   0.651   9.147
13427WAT      O40522   5.701   7.708   1.285
13427WAT     H140523   5.761   7.648   1.233
13427WAT     H240524   5.753   7.785   1.321
13428WAT      O40525   8.807   5.624   5.201
13428WAT     H140526   8.775   5.531   5.184
13428WAT     H240527   8.736   5.689   5.172
13429WAT      O40528   8.543   9.511   3.061
13429WAT     H140529   8.631   9.464   3.064
13429WAT     H240530   8.469   9.444   3.061
13430WAT      O40531   9.408   6.945   3.006
13430WAT     H140532   9.423   6.968   2.909
13430WAT     H240533   9.344   7.010   3.046
13431WAT      O40534   5.464   1.069   6.012
13431WAT     H140535   5.424   1.143   5.956
13431WAT     H240536   5.521   1.109   6.084
13432WAT      O40537   8.426   9.454   6.601
13432WAT     H140538   8.440   9.550   6.623
13432WAT     H240539   8.330   9.430   6.618
13433WAT      O40540   3.990   0.007   9.287
13433WAT     H140541   3.975   0.043   9.379
13433WAT     H240542   3.954   0.071   9.220
13434WAT      O40543   1.975   5.910   9.792
13434WAT     H140544   2.071   5.927   9.813
13434WAT     H240545   1.951   5.957   9.707
13435WAT      O40546   4.554   8.466   2.405
13435WAT     H140547   4.641   8.508   2.381
13435WAT     H240548   4.571   8.385   2.462
13436WAT      O40549   5.817   8.015   4.273
13436WAT     H140550   5.829   7.917   4.257
13436WAT     H240551   5.876   8.044   4.349
13437WAT      O40552   9.215   3.321   7.303
13437WAT     H140553   9.189   3.368   7.218
13437WAT     H240554   9.168   3.232   7.307
13438WAT      O40555   0.445   1.662   1.654
13438WAT     H140556   0.466   1.729   1.582
13438WAT     H240557   0.520   1.597   1.662
13439WAT      O40558   0.779   3.498   3.454
13439WAT     H140559   0.754   3.477   3.548
13439WAT     H240560   0.852   3.437   3.424
13440WAT      O40561   1.602   1.283   9.193
13440WAT     H140562   1.575   1.205   9.249
13440WAT     H240563   1.683   1.259   9.140
13441WAT      O40564   8.002   2.769   0.457
13441WAT     H140565   7.929   2.732   0.514
13441WAT     H240566   8.070   2.697   0.440
13442WAT      O40567   3.037   5.203   4.697
13442WAT     H140568   3.092   5.285   4.706
13442WAT     H240569   2.940   5.226   4.706
13443WAT      O40570   2.706   5.586   4.549
13443WAT     H140571   2.629   5.557   4.605
13443WAT     H240572   2.789   5.585   4.603
13444WAT      O40573   3.512   5.395   9.630
13444WAT     H140574   3.573   5.316   9.641
13444WAT     H240575   3.562   5.479   9.651
13445WAT      O40576   0.933   6.050   0.416
13445WAT     H140577   0.881   5.966   0.431
13445WAT     H240578   0.991   6.067   0.496
13446WAT      O40579   3.175   6.978   7.564
13446WAT     H140580   3.133   7.011   7.649
13446WAT     H240581   3.269   6.949   7.583
13447WAT      O40582   1.772   5.162   2.810
13447WAT     H140583   1.701   5.125   2.869
13447WAT     H240584   1.752   5.258   2.789
13448WAT      O40585   6.727   9.560   0.635
13448WAT     H140586   6.820   9.583   0.666
13448WAT     H240587   6.732   9.521   0.543
13449WAT      O40588   9.532   0.926   2.552
13449WAT     H140589   9.477   0.897   2.474
13449WAT     H240590   9.601   0.857   2.572
13450WAT      O40591   4.677   0.651   1.030
13450WAT     H140592   4.699   0.603   1.114
13450WAT     H240593   4.671   0.749   1.048
13451WAT      O40594   5.900   5.022   9.846
13451WAT     H140595   5.890   4.951   9.777
13451WAT     H240596   5.883   5.112   9.804
13452WAT      O40597   6.677   4.391   2.073
13452WAT     H140598   6.590   4.344   2.063
13452WAT     H240599   6.688   4.421   2.167
13453WAT      O40600   2.087   4.255   3.100
13453WAT     H140601   2.012   4.196   3.071
13453WAT     H240602   2.152   4.264   3.026
13454WAT      O40603   7.258   3.945   8.890
13454WAT     H140604   7.281   3.887   8.968
13454WAT     H240605   7.196   4.018   8.920
13455WAT      O40606   0.625   1.306   8.940
13455WAT     H140607   0.558   1.371   8.905
13455WAT     H240608   0.631   1.315   9.040
13456WAT      O40609   8.581   6.447   9.715
13456WAT     H140610   8.610   6.467   9.622
13456WAT     H240611   8.572   6.532   9.767
13457WAT      O40612   5.134   6.927   0.916
13457WAT     H140613   5.162   6.888   1.003
13457WAT     H240614   5.149   7.026   0.917
13458WAT      O40615   2.154   3.446   0.182
13458WAT     H140616   2.064   3.463   0.141
13458WAT     H240617   2.202   3.533   0.193
13459WAT      O40618   3.638   8.695   4.303
13459WAT     H140619   3.736   8.699   4.284
13459WAT     H240620   3.612   8.769   4.365
13460WAT      O40621   5.718   5.077   1.229
13460WAT     H140622   5.620   5.086   1.211
13460WAT     H240623   5.763   5.035   1.150
13461WAT      O40624   1.463   7.246   2.901
13461WAT     H140625   1.548   7.226   2.852
13461WAT     H240626   1.397   7.287   2.838
13462WAT      O40627   6.515   2.644   0.538
13462WAT     H140628   6.493   2.576   0.608
13462WAT     H240629   6.463   2.625   0.455
13463WAT      O40630   2.645   3.112   3.097
13463WAT     H140631   2.736   3.097   3.137
13463WAT     H240632   2.579   3.054   3.144
13464WAT      O40633   6.042   1.723   6.485
13464WAT     H140634   6.123   1.679   6.445
13464WAT     H240635   6.063   1.753   6.578
13465WAT      O40636   1.052   0.786   4.171
13465WAT     H140637   1.092   0.848   4.103
13465WAT     H240638   1.089   0.694   4.158
13466WAT      O40639   5.781   0.527   5.189
13466WAT     H140640   5.804   0.624   5.179
13466WAT     H240641   5.838   0.473   5.127
13467WAT      O40642   4.690   3.568   5.329
13467WAT     H140643   4.694   3.655   5.380
13467WAT     H240644   4.642   3.582   5.243
13468WAT      O40645   6.415   1.820   5.867
13468WAT     H140646   6.491   1.814   5.803
13468WAT     H240647   6.424   1.902   5.922
13469WAT      O40648   0.289   1.196   4.155
13469WAT     H140649   0.372   1.165   4.202
13469WAT     H240650   0.261   1.127   4.088
13470WAT      O40651   9.327   1.282   2.788
13470WAT     H140652   9.426   1.299   2.794
13470WAT     H240653   9.279   1.349   2.845
13471WAT      O40654   6.501   6.185   5.102
13471WAT     H140655   6.484   6.271   5.053
13471WAT     H240656   6.532   6.207   5.195
13472WAT      O40657   6.119   7.388   1.429
13472WAT     H140658   6.200   7.404   1.372
13472WAT     H240659   6.040   7.434   1.390
13473WAT      O40660   9.645   9.487   2.908
13473WAT     H140661   9.598   9.427   2.973
13473WAT     H240662   9.583   9.562   2.882
13474WAT      O40663   1.091   2.448   7.933
13474WAT     H140664   1.043   2.402   8.008
13474WAT     H240665   1.143   2.380   7.881
13475WAT      O40666   5.354   7.464   1.214
13475WAT     H140667   5.390   7.534   1.275
13475WAT     H240668   5.298   7.506   1.142
13476WAT      O40669   4.856   4.208   2.006
13476WAT     H140670   4.882   4.216   2.102
13476WAT     H240671   4.879   4.292   1.958
13477WAT      O40672   9.132   1.236   9.812
13477WAT     H140673   9.222   1.215   9.772
13477WAT     H240674   9.095   1.154   9.855
13478WAT      O40675   6.035   2.788   4.718
13478WAT     H140676   5.982   2.769   4.635
13478WAT     H240677   6.041   2.887   4.731
13479WAT      O40678   7.412   1.957   1.556
13479WAT     H140679   7.434   2.047   1.520
13479WAT     H240680   7.370   1.967   1.646
13480WAT      O40681   7.091   9.042   4.285
13480WAT     H140682   7.029   8.990   4.227
13480WAT     H240683   7.185   9.030   4.253
13481WAT      O40684   6.309   7.602   9.165
13481WAT     H140685   6.398   7.635   9.135
13481WAT     H240686   6.296   7.508   9.133
13482WAT      O40687   4.857   2.256   7.447
13482WAT     H140688   4.952   2.227   7.460
13482WAT     H240689   4.797   2.200   7.505
13483WAT      O40690   9.401   5.822   5.782
13483WAT     H140691   9.357   5.736   5.759
13483WAT     H240692   9.384   5.843   5.878
13484WAT      O40693   5.921   1.537   7.830
13484WAT     H140694   5.928   1.526   7.731
13484WAT     H240695   5.964   1.459   7.875
13485WAT      O40696   5.823   5.535   7.030
13485WAT     H140697   5.877   5.569   6.953
13485WAT     H240698   5.764   5.609   7.064
13486WAT      O40699   5.771   4.950   0.976
13486WAT     H140700   5.753   4.940   0.878
13486WAT     H240701   5.700   4.901   1.028
13487WAT      O40702   0.191   6.128   3.609
13487WAT     H140703   0.278   6.090   3.577
13487WAT     H240704   0.185   6.120   3.708
13488WAT      O40705   3.004   6.853   0.497
13488WAT     H140706   3.048   6.789   0.560
13488WAT     H240707   3.002   6.944   0.538
13489WAT      O40708   6.823   8.382   2.113
13489WAT     H140709   6.865   8.369   2.203
13489WAT     H240710   6.795   8.294   2.076
13490WAT      O40711   0.559   8.021   6.732
13490WAT     H140712   0.587   8.104   6.780
13490WAT     H240713   0.640   7.972   6.699
13491WAT      O40714   7.198   8.800   5.063
13491WAT     H140715   7.266   8.781   4.993
13491WAT     H240716   7.111   8.825   5.020
13492WAT      O40717   6.911   8.787   3.862
13492WAT     H140718   6.846   8.719   3.896
13492WAT     H240719   6.879   8.879   3.886
13493WAT      O40720   0.370   5.448   0.270
13493WAT     H140721   0.429   5.372   0.241
13493WAT     H240722   0.322   5.421   0.354
13494WAT      O40723   3.110   9.525   4.775
13494WAT     H140724   3.014   9.526   4.746
13494WAT     H240725   3.146   9.619   4.772
13495WAT      O40726   1.101   1.905   7.062
13495WAT     H140727   1.185   1.924   7.011
13495WAT     H240728   1.100   1.960   7.146
13496WAT      O40729   6.849   2.279   7.431
13496WAT     H140730   6.887   2.191   7.402
13496WAT     H240731   6.777   2.306   7.367
13497WAT      O40732   3.295   9.247   0.516
13497WAT     H140733   3.202   9.228   0.548
13497WAT     H240734   3.292   9.322   0.450
13498WAT      O40735   1.354   0.839   9.828
13498WAT     H140736   1.409   0.862   9.908
13498WAT     H240737   1.334   0.741   9.828
13499WAT      O40738   8.802   8.036   4.059
13499WAT     H140739   8.824   7.994   3.971
13499WAT     H240740   8.709   8.073   4.056
13500WAT      O40741   1.573   7.061   6.666
13500WAT     H140742   1.569   6.961   6.659
13500WAT     H240743   1.493   7.094   6.717
13501WAT      O40744   8.693   0.132   9.562
13501WAT     H140745   8.596   0.125   9.582
13501WAT     H240746   8.706   0.190   9.481
13502WAT      O40747   8.807   2.815   1.770
13502WAT     H140748   8.766   2.850   1.854
13502WAT     H240749   8.907   2.816   1.778
13503WAT      O40750   9.277   0.460   4.076
13503WAT     H140751   9.277   0.527   4.001
13503WAT     H240752   9.371   0.445   4.107
13504WAT      O40753   9.385   7.600   4.683
13504WAT     H140754   9.368   7.698   4.674
13504WAT     H240755   9.427   7.565   4.599
13505WAT      O40756   6.964   4.954   0.922
13505WAT     H140757   6.985   4.878   0.862
13505WAT     H240758   6.978   4.926   1.017
13506WAT      O40759   4.727   2.242   2.679
13506WAT     H140760   4.772   2.292   2.605
13506WAT     H240761   4.739   2.292   2.765
13507WAT      O40762   0.306   8.473   0.966
13507WAT     H140763   0.236   8.489   1.036
13507WAT     H240764   0.329   8.560   0.922
13508WAT      O40765   1.857   4.220   8.793
13508WAT     H140766   1.836   4.144   8.732
13508WAT     H240767   1.776   4.278   8.804
13509WAT      O40768   1.878   3.353   7.936
13509WAT     H140769   1.929   3.289   7.879
13509WAT     H240770   1.886   3.445   7.897
13510WAT      O40771   8.864   3.007   3.074
13510WAT     H140772   8.893   2.948   2.999
13510WAT     H240773   8.928   2.998   3.150
13511WAT      O40774   8.849   2.551   6.650
13511WAT     H140775   8.788   2.594   6.583
13511WAT     H240776   8.795   2.522   6.729
13512WAT      O40777   1.982   1.362   6.210
13512WAT     H140778   1.883   1.352   6.225
13512WAT     H240779   2.007   1.458   6.221
13513WAT      O40780   8.780   2.709   9.626
13513WAT     H140781   8.714   2.716   9.551
13513WAT     H240782   8.752   2.769   9.701
13514WAT      O40783   3.690   1.152   9.207
13514WAT     H140784   3.606   1.179   9.161
13514WAT     H240785   3.753   1.229   9.211
13515WAT      O40786   0.665   0.495   4.304
13515WAT     H140787   0.745   0.435   4.301
13515WAT     H240788   0.689   0.584   4.266
13516WAT      O40789   1.388   1.483   1.617
13516WAT     H140790   1.396   1.457   1.714
13516WAT     H240791   1.305   1.537   1.604
13517WAT      O40792   7.867   5.679   3.250
13517WAT     H140793   7.803   5.652   3.179
13517WAT     H240794   7.949   5.622   3.244
13518WAT      O40795   4.335   8.374   7.134
13518WAT     H140796   4.240   8.342   7.142
13518WAT     H240797   4.358   8.388   7.038
13519WAT      O40798   7.276   9.796   6.690
13519WAT     H140799   7.353   9.737   6.665
13519WAT     H240800   7.305   9.892   6.686
13520WAT      O40801   5.726   7.206   7.316
13520WAT     H140802   5.631   7.179   7.332
13520WAT     H240803   5.778   7.195   7.401
13521WAT      O40804   3.903   6.607   7.236
13521WAT     H140805   3.860   6.516   7.238
13521WAT     H240806   3.901   6.647   7.327
13522WAT      O40807   1.550   1.299   3.487
13522WAT     H140808   1.530   1.390   3.450
13522WAT     H240809   1.648   1.283   3.485
13523WAT      O40810   2.265   1.693   0.912
13523WAT     H140811   2.235   1.758   0.983
13523WAT     H240812   2.344   1.730   0.864
13524WAT      O40813   4.589   3.827   2.603
13524WAT     H140814   4.646   3.831   2.521
13524WAT     H240815   4.646   3.810   2.683
13525WAT      O40816   6.371   4.030   0.623
13525WAT     H140817   6.371   3.980   0.709
13525WAT     H240818   6.278   4.032   0.585
13526WAT      O40819   1.927   9.748   3.424
13526WAT     H140820   1.976   9.667   3.457
13526WAT     H240821   1.988   9.801   3.365
13527WAT      O40822   4.799   9.743   4.001
13527WAT     H140823   4.728   9.676   3.980
13527WAT     H240824   4.849   9.767   3.918
13528WAT      O40825   2.687   1.714   7.550
13528WAT     H140826   2.779   1.680   7.571
13528WAT     H240827   2.660   1.780   7.620
13529WAT      O40828   4.787   5.225   5.878
13529WAT     H140829   4.865   5.277   5.842
13529WAT     H240830   4.818   5.134   5.906
13530WAT      O40831   1.217   2.762   1.756
13530WAT     H140832   1.312   2.790   1.768
13530WAT     H240833   1.170   2.762   1.845
13531WAT      O40834   5.659   0.661   2.721
13531WAT     H140835   5.701   0.718   2.650
13531WAT     H240836   5.704   0.680   2.808
13532WAT      O40837   2.464   1.055   2.081
13532WAT     H140838   2.406   0.992   2.030
13532WAT     H240839   2.496   1.011   2.165
13533WAT      O40840   1.887   5.028   9.326
13533WAT     H140841   1.980   4.997   9.305
13533WAT     H240842   1.822   4.985   9.263
13534WAT      O40843   7.024   0.645   2.689
13534WAT     H140844   7.055   0.581   2.619
13534WAT     H240845   6.929   0.623   2.715
13535WAT      O40846   1.186   1.886   4.418
13535WAT     H140847   1.173   1.801   4.367
13535WAT     H240848   1.263   1.876   4.480
13536WAT      O40849   6.947   1.848   7.678
13536WAT     H140850   6.870   1.901   7.642
13536WAT     H240851   6.958   1.866   7.775
13537WAT      O40852   8.924   8.256   6.761
13537WAT     H140853   8.934   8.355   6.751
13537WAT     H240854   8.985   8.209   6.697
13538WAT      O40855   8.766   7.487   3.975
13538WAT     H140856   8.794   7.404   3.928
13538WAT     H240857   8.784   7.566   3.917
13539WAT      O40858   5.146   6.988   8.084
13539WAT     H140859   5.200   6.909   8.056
13539WAT     H240860   5.181   7.070   8.040
13540WAT      O40861   2.761   6.540   9.252
13540WAT     H140862   2.807   6.492   9.327
13540WAT     H240863   2.689   6.481   9.215
13541WAT      O40864   2.192   5.366   8.003
13541WAT     H140865   2.270   5.311   8.032
13541WAT     H240866   2.218   5.422   7.924
13542WAT      O40867   8.654   4.793   8.909
13542WAT     H140868   8.702   4.772   8.994
13542WAT     H240869   8.556   4.801   8.926
13543WAT      O40870   1.739   8.594   0.916
13543WAT     H140871   1.697   8.637   0.836
13543WAT     H240872   1.735   8.495   0.906
13544WAT      O40873   4.595   8.912   1.874
13544WAT     H140874   4.673   8.960   1.833
13544WAT     H240875   4.546   8.861   1.803
13545WAT      O40876   2.476   6.208   2.031
13545WAT     H140877   2.495   6.233   2.126
13545WAT     H240878   2.472   6.109   2.022
13546WAT      O40879   8.562   2.175   8.101
13546WAT     H140880   8.543   2.175   8.002
13546WAT     H240881   8.480   2.144   8.150
13547WAT      O40882   9.566   9.048   5.825
13547WAT     H140883   9.550   9.135   5.872
13547WAT     H240884   9.660   9.018   5.842
13548WAT      O40885   0.488   2.873   4.865
13548WAT     H140886   0.584   2.848   4.879
13548WAT     H240887   0.485   2.965   4.824
13549WAT      O40888   1.248   7.475   0.526
13549WAT     H140889   1.186   7.406   0.489
13549WAT     H240890   1.204   7.565   0.520
13550WAT      O40891   0.003   7.984   1.208
13550WAT     H140892  -0.060   7.959   1.282
13550WAT     H240893   0.089   7.935   1.221
13551WAT      O40894   3.099   5.651   2.473
13551WAT     H140895   3.072   5.603   2.557
13551WAT     H240896   3.179   5.606   2.433
13552WAT      O40897   1.084   4.880   3.256
13552WAT     H140898   1.010   4.936   3.293
13552WAT     H240899   1.074   4.874   3.156
13553WAT      O40900   4.694   6.193   5.230
13553WAT     H140901   4.671   6.096   5.239
13553WAT     H240902   4.613   6.249   5.248
13554WAT      O40903   4.374   5.437   8.713
13554WAT     H140904   4.335   5.508   8.655
13554WAT     H240905   4.458   5.403   8.672
13555WAT      O40906   2.212   1.928   1.046
13555WAT     H140907   2.113   1.924   1.054
13555WAT     H240908   2.239   2.017   1.010
13556WAT      O40909   7.241   1.748   9.173
13556WAT     H140910   7.184   1.811   9.119
13556WAT     H240911   7.336   1.754   9.143
13557WAT      O40912   1.421   8.518   4.615
13557WAT     H140913   1.403   8.579   4.539
13557WAT     H240914   1.459   8.432   4.581
13558WAT      O40915   9.272   7.952   1.943
13558WAT     H140916   9.223   7.971   1.857
13558WAT     H240917   9.323   7.867   1.934
13559WAT      O40918   1.888   4.039   3.009
13559WAT     H140919   1.943   3.968   3.054
13559WAT     H240920   1.824   4.078   3.074
13560WAT      O40921   4.651   9.475   3.999
13560WAT     H140922   4.657   9.384   4.038
13560WAT     H240923   4.585   9.529   4.051
13561WAT      O40924   5.230   4.803   5.930
13561WAT     H140925   5.315   4.753   5.917
13561WAT     H240926   5.218   4.869   5.856
13562WAT      O40927   0.877   7.751   5.032
13562WAT     H140928   0.972   7.752   5.000
13562WAT     H240929   0.851   7.844   5.060
13563WAT      O40930   6.216   9.645   8.593
13563WAT     H140931   6.224   9.701   8.675
13563WAT     H240932   6.179   9.555   8.618
13564WAT      O40933   6.129   5.674   5.950
13564WAT     H140934   6.136   5.633   6.041
13564WAT     H240935   6.217   5.668   5.904
13565WAT      O40936   3.562   2.943   2.840
13565WAT     H140937   3.593   2.932   2.745
13565WAT     H240938   3.527   3.036   2.853
13566WAT      O40939   4.313   5.972   7.689
13566WAT     H140940   4.325   6.037   7.764
13566WAT     H240941   4.301   6.022   7.603
13567WAT      O40942   3.833   7.448   0.794
13567WAT     H140943   3.864   7.477   0.704
13567WAT     H240944   3.902   7.470   0.863
13568WAT      O40945   2.467   8.793   9.452
13568WAT     H140946   2.461   8.889   9.481
13568WAT     H240947   2.486   8.790   9.353
13569WAT      O40948   4.702   1.835   2.986
13569WAT     H140949   4.662   1.890   3.059
13569WAT     H240950   4.717   1.892   2.906
13570WAT      O40951   7.269   3.936   2.958
13570WAT     H140952   7.283   4.034   2.940
13570WAT     H240953   7.175   3.911   2.934
13571WAT      O40954   0.013   4.010   2.908
13571WAT     H140955   0.093   4.044   2.958
13571WAT     H240956  -0.069   4.053   2.945
13572WAT      O40957   5.162   1.974   1.570
13572WAT     H140958   5.119   2.055   1.609
13572WAT     H240959   5.259   1.972   1.594
13573WAT      O40960   6.150   1.931   3.798
13573WAT     H140961   6.191   1.862   3.857
13573WAT     H240962   6.072   1.973   3.845
13574WAT      O40963   9.798   6.269   4.518
13574WAT     H140964   9.782   6.257   4.420
13574WAT     H240965   9.844   6.356   4.534
13575WAT      O40966   8.580   1.982   9.179
13575WAT     H140967   8.657   2.012   9.123
13575WAT     H240968   8.613   1.928   9.255
13576WAT      O40969   0.305   9.627   2.350
13576WAT     H140970   0.372   9.699   2.331
13576WAT     H240971   0.288   9.623   2.448
13577WAT      O40972   0.984   8.049   2.222
13577WAT     H140973   0.938   8.134   2.197
13577WAT     H240974   1.034   8.063   2.308
13578WAT      O40975   8.023   1.560   0.922
13578WAT     H140976   7.963   1.565   1.002
13578WAT     H240977   8.065   1.470   0.918
13579WAT      O40978   4.587   2.413   5.659
13579WAT     H140979   4.502   2.449   5.697
13579WAT     H240980   4.647   2.384   5.734
13580WAT      O40981   7.396   3.970   0.763
13580WAT     H140982   7.353   3.998   0.848
13580WAT     H240983   7.493   3.950   0.779
13581WAT      O40984   0.287   9.536   9.108
13581WAT     H140985   0.289   9.440   9.080
13581WAT     H240986   0.194   9.571   9.102
13582WAT      O40987   8.628   8.881   2.078
13582WAT     H140988   8.679   8.817   2.136
13582WAT     H240989   8.548   8.914   2.129
13583WAT      O40990   1.057   2.115   6.699
13583WAT     H140991   1.017   2.032   6.737
13583WAT     H240992   1.113   2.160   6.769
13584WAT      O40993   5.109   1.793   4.724
13584WAT     H140994   5.203   1.820   4.748
13584WAT     H240995   5.089   1.822   4.631
13585WAT      O40996   5.417   2.889   3.386
13585WAT     H140997   5.417   2.875   3.485
13585WAT     H240998   5.422   2.800   3.340
13586WAT      O40999   4.548   4.670   7.633
13586WAT     H141000   4.573   4.748   7.691
13586WAT     H241001   4.609   4.593   7.651
13587WAT      O41002   6.201   2.053   7.265
13587WAT     H141003   6.179   2.058   7.168
13587WAT     H241004   6.122   2.019   7.316
13588WAT      O41005   0.305   5.203   6.393
13588WAT     H141006   0.341   5.239   6.307
13588WAT     H241007   0.229   5.141   6.375
13589WAT      O41008   9.541   6.342   9.354
13589WAT     H141009   9.536   6.433   9.312
13589WAT     H241010   9.592   6.281   9.293
13590WAT      O41011   5.076   8.090   1.349
13590WAT     H141012   5.005   8.062   1.414
13590WAT     H241013   5.152   8.025   1.352
13591WAT      O41014   2.871   0.745   4.140
13591WAT     H141015   2.810   0.690   4.196
13591WAT     H241016   2.907   0.690   4.065
13592WAT      O41017   8.994   1.225   7.184
13592WAT     H141018   9.067   1.284   7.151
13592WAT     H241019   9.029   1.133   7.197
13593WAT      O41020   9.515   9.641   3.561
13593WAT     H141021   9.504   9.728   3.609
13593WAT     H241022   9.580   9.652   3.486
13594WAT      O41023   7.415   2.030   5.282
13594WAT     H141024   7.443   2.036   5.186
13594WAT     H241025   7.449   1.945   5.322
13595WAT      O41026   5.364   8.550   0.277
13595WAT     H141027   5.335   8.640   0.311
13595WAT     H241028   5.440   8.516   0.333
13596WAT      O41029   1.889   5.182   3.214
13596WAT     H141030   1.805   5.235   3.228
13596WAT     H241031   1.869   5.085   3.226
13597WAT      O41032   5.136   1.200   5.028
13597WAT     H141033   5.118   1.283   4.974
13597WAT     H241034   5.233   1.177   5.021
13598WAT      O41035   2.356   2.369   5.584
13598WAT     H141036   2.308   2.283   5.600
13598WAT     H241037   2.290   2.444   5.580
13599WAT      O41038   0.931   4.149   9.183
13599WAT     H141039   0.868   4.187   9.116
13599WAT     H241040   0.881   4.124   9.266
13600WAT      O41041   7.698   6.489   0.266
13600WAT     H141042   7.797   6.499   0.273
13600WAT     H241043   7.674   6.392   0.256
13601WAT      O41044   8.271   3.045   1.743
13601WAT     H141045   8.234   3.136   1.758
13601WAT     H241046   8.296   3.004   1.830
13602WAT      O41047   9.477   2.044   5.748
13602WAT     H141048   9.393   2.013   5.793
13602WAT     H241049   9.550   2.053   5.815
13603WAT      O41050   3.281   0.457   1.075
13603WAT     H141051   3.379   0.479   1.067
13603WAT     H241052   3.245   0.496   1.160
13604WAT      O41053   1.526   9.006   3.631
13604WAT     H141054   1.456   9.077   3.641
13604WAT     H241055   1.515   8.937   3.703
13605WAT      O41056   2.994   2.511   0.865
13605WAT     H141057   2.914   2.556   0.905
13605WAT     H241058   2.964   2.437   0.805
13606WAT      O41059   3.401   2.367   7.493
13606WAT     H141060   3.323   2.316   7.457
13606WAT     H241061   3.460   2.305   7.545
13607WAT      O41062   7.974   0.636   4.420
13607WAT     H141063   8.003   0.629   4.516
13607WAT     H241064   7.875   0.653   4.417
13608WAT      O41065   7.565   2.537   6.098
13608WAT     H141066   7.606   2.543   6.007
13608WAT     H241067   7.577   2.623   6.146
13609WAT      O41068   5.256   3.094   8.649
13609WAT     H141069   5.295   3.155   8.579
13609WAT     H241070   5.325   3.077   8.720
13610WAT      O41071   8.234   5.473   0.375
13610WAT     H141072   8.305   5.535   0.340
13610WAT     H241073   8.170   5.450   0.302
13611WAT      O41074   6.721   5.087   0.935
13611WAT     H141075   6.812   5.060   0.904
13611WAT     H241076   6.662   5.006   0.939
13612WAT      O41077   5.131   1.068   5.249
13612WAT     H141078   5.133   1.121   5.164
13612WAT     H241079   5.073   1.115   5.315
13613WAT      O41080   6.668   1.584   9.122
13613WAT     H141081   6.670   1.675   9.079
13613WAT     H241082   6.758   1.543   9.118
13614WAT      O41083   5.800   9.818   4.528
13614WAT     H141084   5.846   9.904   4.504
13614WAT     H241085   5.707   9.818   4.493
13615WAT      O41086   1.418   4.907   4.821
13615WAT     H141087   1.483   4.878   4.892
13615WAT     H241088   1.336   4.851   4.825
13616WAT      O41089   1.752   4.432   3.058
13616WAT     H141090   1.810   4.442   2.978
13616WAT     H241091   1.693   4.513   3.067
13617WAT      O41092   8.084   3.281   0.125
13617WAT     H141093   8.008   3.235   0.171
13617WAT     H241094   8.049   3.335   0.048
13618WAT      O41095   2.435   0.892   0.770
13618WAT     H141096   2.400   0.832   0.698
13618WAT     H241097   2.534   0.881   0.777
13619WAT      O41098   6.062   6.653   9.661
13619WAT     H141099   6.080   6.557   9.683
13619WAT     H241100   6.056   6.663   9.562
13620WAT      O41101   6.953   3.055   8.362
13620WAT     H141102   6.888   3.104   8.303
13620WAT     H241103   7.044   3.057   8.321
13621WAT      O41104   1.750   7.186   1.144
13621WAT     H141105   1.747   7.281   1.114
13621WAT     H241106   1.658   7.147   1.139
13622WAT      O41107   7.538   3.346   1.955
13622WAT     H141108   7.630   3.344   1.994
13622WAT     H241109   7.530   3.423   1.892
13623WAT      O41110   7.361   9.444   7.356
13623WAT     H141111   7.337   9.444   7.453
13623WAT     H241112   7.328   9.359   7.314
13624WAT      O41113   6.801   2.075   0.758
13624WAT     H141114   6.745   2.152   0.727
13624WAT     H241115   6.745   1.992   0.761
13625WAT      O41116   8.619   7.119   8.842
13625WAT     H141117   8.523   7.113   8.871
13625WAT     H241118   8.631   7.067   8.758
13626WAT      O41119   0.787   7.547   0.085
13626WAT     H141120   0.690   7.547   0.108
13626WAT     H241121   0.806   7.474   0.019
13627WAT      O41122   5.700   8.945   3.060
13627WAT     H141123   5.657   8.870   3.010
13627WAT     H241124   5.797   8.951   3.035
13628WAT      O41125   9.320   4.991   9.269
13628WAT     H141126   9.389   4.921   9.288
13628WAT     H241127   9.323   5.016   9.173
13629WAT      O41128   7.345   4.072   9.584
13629WAT     H141129   7.428   4.024   9.557
13629WAT     H241130   7.321   4.139   9.514
13630WAT      O41131   8.067   5.721   2.328
13630WAT     H141132   8.108   5.680   2.246
13630WAT     H241133   8.136   5.727   2.400
13631WAT      O41134   8.127   4.769   0.875
13631WAT     H141135   8.134   4.781   0.974
13631WAT     H241136   8.098   4.675   0.855
13632WAT      O41137   1.656   6.623   8.100
13632WAT     H141138   1.688   6.660   8.188
13632WAT     H241139   1.563   6.656   8.082
13633WAT      O41140   3.110   3.949   4.148
13633WAT     H141141   3.101   3.883   4.223
13633WAT     H241142   3.189   3.924   4.091
13634WAT      O41143   3.980   7.509   1.018
13634WAT     H141144   3.904   7.533   1.078
13634WAT     H241145   4.064   7.552   1.052
13635WAT      O41146   5.585   3.960   6.635
13635WAT     H141147   5.572   4.011   6.551
13635WAT     H241148   5.498   3.952   6.684
13636WAT      O41149   6.286   5.498   1.235
13636WAT     H141150   6.381   5.468   1.228
13636WAT     H241151   6.253   5.480   1.328
13637WAT      O41152   5.424   8.297   6.479
13637WAT     H141153   5.498   8.256   6.426
13637WAT     H241154   5.432   8.397   6.476
13638WAT      O41155   7.776   0.860   1.431
13638WAT     H141156   7.684   0.844   1.467
13638WAT     H241157   7.826   0.920   1.493
13639WAT      O41158   5.222   5.711   1.755
13639WAT     H141159   5.125   5.708   1.731
13639WAT     H241160   5.263   5.795   1.721
13640WAT      O41161   6.050   6.457   2.248
13640WAT     H141162   5.960   6.417   2.266
13640WAT     H241163   6.113   6.386   2.219
13641WAT      O41164   6.170   9.772   8.837
13641WAT     H141165   6.103   9.712   8.881
13641WAT     H241166   6.180   9.856   8.890
13642WAT      O41167   6.116   4.837   5.087
13642WAT     H141168   6.209   4.872   5.079
13642WAT     H241169   6.117   4.738   5.072
13643WAT      O41170   4.843   0.155   1.778
13643WAT     H141171   4.929   0.203   1.760
13643WAT     H241172   4.853   0.100   1.861
13644WAT      O41173   5.266   5.363   8.846
13644WAT     H141174   5.264   5.455   8.885
13644WAT     H241175   5.329   5.305   8.899
13645WAT      O41176   7.219   7.193   2.570
13645WAT     H141177   7.256   7.231   2.485
13645WAT     H241178   7.213   7.265   2.639
13646WAT      O41179   1.112   8.517   2.142
13646WAT     H141180   1.203   8.481   2.160
13646WAT     H241181   1.115   8.578   2.063
13647WAT      O41182   2.415   5.298   3.988
13647WAT     H141183   2.369   5.291   4.076
13647WAT     H241184   2.349   5.325   3.918
13648WAT      O41185   4.566   4.819   2.826
13648WAT     H141186   4.517   4.842   2.910
13648WAT     H241187   4.647   4.877   2.819
13649WAT      O41188   6.075   8.040   9.891
13649WAT     H141189   6.149   8.026   9.825
13649WAT     H241190   6.101   8.110   9.957
13650WAT      O41191   3.735   7.917   3.323
13650WAT     H141192   3.650   7.947   3.281
13650WAT     H241193   3.807   7.984   3.306
13651WAT      O41194   1.073   4.815   7.966
13651WAT     H141195   1.127   4.742   7.924
13651WAT     H241196   1.135   4.879   8.011
13652WAT      O41197   4.028   7.910   0.718
13652WAT     H141198   4.034   7.931   0.815
13652WAT     H241199   4.064   7.987   0.665
13653WAT      O41200   8.556   3.387   8.017
13653WAT     H141201   8.533   3.308   8.075
13653WAT     H241202   8.559   3.358   7.922
13654WAT      O41203   3.024   8.303   1.942
13654WAT     H141204   2.973   8.385   1.966
13654WAT     H241205   2.995   8.270   1.852
13655WAT      O41206   1.822   8.058   8.712
13655WAT     H141207   1.912   8.026   8.743
13655WAT     H241208   1.833   8.112   8.629
13656WAT      O41209   9.337   9.325   2.200
13656WAT     H141210   9.366   9.230   2.194
13656WAT     H241211   9.286   9.340   2.284
13657WAT      O41212   5.051   5.476   9.386
13657WAT     H141213   5.009   5.560   9.350
13657WAT     H241214   4.980   5.406   9.396
13658WAT      O41215   4.771   1.342   5.147
13658WAT     H141216   4.768   1.442   5.143
13658WAT     H241217   4.790   1.306   5.055
13659WAT      O41218   5.334   9.284   5.683
13659WAT     H141219   5.385   9.284   5.597
13659WAT     H241220   5.398   9.294   5.760
13660WAT      O41221   1.751   8.020   9.019
13660WAT     H141222   1.762   8.029   9.118
13660WAT     H241223   1.681   8.084   8.987
13661WAT      O41224   8.117   6.500   3.595
13661WAT     H141225   8.110   6.452   3.507
13661WAT     H241226   8.170   6.444   3.659
13662WAT      O41227   2.294   4.639   1.161
13662WAT     H141228   2.295   4.590   1.073
13662WAT     H241229   2.257   4.579   1.232
13663WAT      O41230   3.570   1.296   1.125
13663WAT     H141231   3.546   1.230   1.054
13663WAT     H241232   3.558   1.254   1.215
13664WAT      O41233   8.018   1.254   2.245
13664WAT     H141234   8.058   1.213   2.327
13664WAT     H241235   8.003   1.352   2.261
13665WAT      O41236   7.954   2.174   2.172
13665WAT     H141237   8.052   2.188   2.187
13665WAT     H241238   7.940   2.096   2.111
13666WAT      O41239   3.687   7.330   4.701
13666WAT     H141240   3.778   7.311   4.739
13666WAT     H241241   3.691   7.328   4.601
13667WAT      O41242   2.820   9.085   5.979
13667WAT     H141243   2.895   9.072   5.914
13667WAT     H241244   2.737   9.113   5.930
13668WAT      O41245   7.324   7.866   4.619
13668WAT     H141246   7.347   7.790   4.680
13668WAT     H241247   7.327   7.952   4.670
13669WAT      O41248   4.128   8.104   4.986
13669WAT     H141249   4.061   8.082   4.916
13669WAT     H241250   4.165   8.020   5.025
13670WAT      O41251   0.446   3.197   3.941
13670WAT     H141252   0.522   3.192   3.876
13670WAT     H241253   0.462   3.133   4.016
13671WAT      O41254   9.171   0.978   4.730
13671WAT     H141255   9.226   1.035   4.791
13671WAT     H241256   9.125   0.906   4.784
13672WAT      O41257   9.288   6.391   7.823
13672WAT     H141258   9.262   6.378   7.728
13672WAT     H241259   9.334   6.479   7.834
13673WAT      O41260   2.272   2.659   3.461
13673WAT     H141261   2.350   2.667   3.399
13673WAT     H241262   2.277   2.572   3.510
13674WAT      O41263   0.853   3.331   4.409
13674WAT     H141264   0.792   3.369   4.478
13674WAT     H241265   0.864   3.232   4.424
13675WAT      O41266   7.037   8.202   6.318
13675WAT     H141267   7.045   8.297   6.288
13675WAT     H241268   6.973   8.197   6.395
13676WAT      O41269   3.743   8.807   3.123
13676WAT     H141270   3.732   8.907   3.127
13676WAT     H241271   3.772   8.773   3.212
13677WAT      O41272   9.419   2.434   5.048
13677WAT     H141273   9.439   2.360   4.983
13677WAT     H241274   9.392   2.515   4.997
13678WAT      O41275   3.526   8.982   8.869
13678WAT     H141276   3.510   8.926   8.950
13678WAT     H241277   3.457   9.054   8.863
13679WAT      O41278   9.573   5.835   7.793
13679WAT     H141279   9.474   5.832   7.773
13679WAT     H241280   9.588   5.821   7.890
13680WAT      O41281   5.783   1.099   1.528
13680WAT     H141282   5.861   1.092   1.590
13680WAT     H241283   5.712   1.035   1.557
13681WAT      O41284   8.162   3.038   2.191
13681WAT     H141285   8.247   3.073   2.232
13681WAT     H241286   8.127   2.963   2.247
13682WAT      O41287   2.310   8.167   6.635
13682WAT     H141288   2.391   8.160   6.694
13682WAT     H241289   2.292   8.264   6.615
13683WAT      O41290   8.071   7.896   8.316
13683WAT     H141291   8.103   7.900   8.222
13683WAT     H241292   8.093   7.806   8.355
13684WAT      O41293   1.486   8.493   0.515
13684WAT     H141294   1.560   8.447   0.465
13684WAT     H241295   1.399   8.474   0.469
13685WAT      O41296   6.508   6.877   8.459
13685WAT     H141297   6.589   6.820   8.469
13685WAT     H241298   6.532   6.961   8.411
13686WAT      O41299   3.492   9.171   9.337
13686WAT     H141300   3.428   9.190   9.262
13686WAT     H241301   3.563   9.108   9.306
13687WAT      O41302   4.284   9.590   2.448
13687WAT     H141303   4.289   9.689   2.465
13687WAT     H241304   4.376   9.554   2.435
13688WAT      O41305   7.928   2.777   3.501
13688WAT     H141306   7.930   2.813   3.595
13688WAT     H241307   8.020   2.747   3.475
13689WAT      O41308   5.796   1.043   7.579
13689WAT     H141309   5.737   1.122   7.562
13689WAT     H241310   5.830   1.048   7.673
13690WAT      O41311   1.418   2.403   1.256
13690WAT     H141312   1.337   2.461   1.268
13690WAT     H241313   1.406   2.348   1.173
13691WAT      O41314   8.541   1.452   1.876
13691WAT     H141315   8.527   1.435   1.779
13691WAT     H241316   8.496   1.537   1.902
13692WAT      O41317   1.291   1.295   8.546
13692WAT     H141318   1.226   1.369   8.528
13692WAT     H241319   1.249   1.207   8.526
13693WAT      O41320   6.068   4.623   5.426
13693WAT     H141321   6.138   4.695   5.422
13693WAT     H241322   5.981   4.660   5.394
13694WAT      O41323   5.228   0.928   4.542
13694WAT     H141324   5.267   0.844   4.582
13694WAT     H241325   5.136   0.943   4.579
13695WAT      O41326   6.628   6.224   6.344
13695WAT     H141327   6.545   6.232   6.398
13695WAT     H241328   6.608   6.247   6.248
13696WAT      O41329   3.628   0.126   2.060
13696WAT     H141330   3.596   0.164   1.973
13696WAT     H241331   3.717   0.166   2.083
13697WAT      O41332   2.776   4.901   8.491
13697WAT     H141333   2.746   4.827   8.552
13697WAT     H241334   2.697   4.947   8.452
13698WAT      O41335   4.269   1.881   7.643
13698WAT     H141336   4.310   1.899   7.553
13698WAT     H241337   4.339   1.887   7.714
13699WAT      O41338   6.734   9.780   8.985
13699WAT     H141339   6.779   9.691   8.986
13699WAT     H241340   6.659   9.779   8.920
13700WAT      O41341   7.649   3.146   4.196
13700WAT     H141342   7.650   3.246   4.201
13700WAT     H241343   7.561   3.112   4.230
13701WAT      O41344   2.395   3.192   2.784
13701WAT     H141345   2.351   3.207   2.695
13701WAT     H241346   2.327   3.196   2.857
13702WAT      O41347   8.029   9.591   3.648
13702WAT     H141348   8.058   9.635   3.733
13702WAT     H241349   7.958   9.524   3.668
13703WAT      O41350   1.679   2.570   6.631
13703WAT     H141351   1.771   2.607   6.649
13703WAT     H241352   1.620   2.642   6.595
13704WAT      O41353   4.842   0.954   4.454
13704WAT     H141354   4.752   0.949   4.496
13704WAT     H241355   4.837   1.011   4.371
13705WAT      O41356   4.794   5.224   2.289
13705WAT     H141357   4.796   5.126   2.308
13705WAT     H241358   4.878   5.267   2.323
13706WAT      O41359   5.924   2.801   0.533
13706WAT     H141360   5.965   2.729   0.476
13706WAT     H241361   5.882   2.870   0.474
13707WAT      O41362   6.782   8.409   3.644
13707WAT     H141363   6.743   8.337   3.702
13707WAT     H241364   6.851   8.459   3.696
13708WAT      O41365   1.425   2.646   4.411
13708WAT     H141366   1.373   2.713   4.464
13708WAT     H241367   1.370   2.616   4.334
13709WAT      O41368   0.151   6.395   8.636
13709WAT     H141369   0.094   6.475   8.651
13709WAT     H241370   0.151   6.338   8.718
13710WAT      O41371   5.217   6.078   2.147
13710WAT     H141372   5.293   6.143   2.151
13710WAT     H241373   5.248   5.988   2.179
13711WAT      O41374   9.631   7.829   3.449
13711WAT     H141375   9.631   7.928   3.464
13711WAT     H241376   9.711   7.805   3.394
13712WAT      O41377   9.278   2.297   7.816
13712WAT     H141378   9.338   2.330   7.889
13712WAT     H241379   9.197   2.255   7.857
13713WAT      O41380   5.419   0.709   8.420
13713WAT     H141381   5.516   0.716   8.394
13713WAT     H241382   5.399   0.615   8.448
13714WAT      O41383   5.182   2.595   7.578
13714WAT     H141384   5.155   2.534   7.652
13714WAT     H241385   5.188   2.689   7.612
13715WAT      O41386   0.345   8.100   2.173
13715WAT     H141387   0.355   8.130   2.268
13715WAT     H241388   0.278   8.026   2.168
13716WAT      O41389   8.790   4.990   4.111
13716WAT     H141390   8.819   5.085   4.099
13716WAT     H241391   8.707   4.973   4.059
13717WAT      O41392   7.410   1.826   0.784
13717WAT     H141393   7.494   1.799   0.832
13717WAT     H241394   7.403   1.926   0.783
13718WAT      O41395   0.865   4.411   2.087
13718WAT     H141396   0.929   4.477   2.128
13718WAT     H241397   0.801   4.460   2.027
13719WAT      O41398   1.415   0.386   9.119
13719WAT     H141399   1.491   0.377   9.184
13719WAT     H241400   1.354   0.308   9.129
13720WAT      O41401   9.289   3.381   3.505
13720WAT     H141402   9.289   3.363   3.407
13720WAT     H241403   9.382   3.402   3.535
13721WAT      O41404   7.065   6.927   4.949
13721WAT     H141405   7.061   6.836   4.991
13721WAT     H241406   7.013   6.927   4.864
13722WAT      O41407   6.469   8.142   4.121
13722WAT     H141408   6.422   8.058   4.094
13722WAT     H241409   6.477   8.145   4.220
13723WAT      O41410   8.741   4.604   9.341
13723WAT     H141411   8.772   4.613   9.436
13723WAT     H241412   8.744   4.694   9.297
13724WAT      O41413   8.890   7.974   6.096
13724WAT     H141414   8.972   7.963   6.040
13724WAT     H241415   8.914   7.964   6.192
13725WAT      O41416   0.179   1.039   4.880
13725WAT     H141417   0.278   1.054   4.888
13725WAT     H241418   0.134   1.073   4.963
13726WAT      O41419   6.837   2.633   7.831
13726WAT     H141420   6.764   2.638   7.899
13726WAT     H241421   6.844   2.721   7.783
13727WAT      O41422   0.813   9.633   3.618
13727WAT     H141423   0.786   9.675   3.531
13727WAT     H241424   0.802   9.534   3.612
13728WAT      O41425   9.697   2.376   2.940
13728WAT     H141426   9.601   2.393   2.919
13728WAT     H241427   9.746   2.463   2.945
13729WAT      O41428   3.633   1.424   7.119
13729WAT     H141429   3.673   1.427   7.210
13729WAT     H241430   3.537   1.401   7.125
13730WAT      O41431   8.654   5.907   7.276
13730WAT     H141432   8.649   5.836   7.206
13730WAT     H241433   8.600   5.880   7.356
13731WAT      O41434   6.390   5.327   4.412
13731WAT     H141435   6.380   5.291   4.320
13731WAT     H241436   6.338   5.270   4.476
13732WAT      O41437   0.760   4.313   8.872
13732WAT     H141438   0.725   4.324   8.779
13732WAT     H241439   0.728   4.226   8.910
13733WAT      O41440   9.609   1.639   7.215
13733WAT     H141441   9.670   1.589   7.277
13733WAT     H241442   9.625   1.611   7.121
13734WAT      O41443   6.582   9.258   8.326
13734WAT     H141444   6.588   9.203   8.243
13734WAT     H241445   6.489   9.255   8.362
13735WAT      O41446   4.342   5.236   8.885
13735WAT     H141447   4.368   5.312   8.826
13735WAT     H241448   4.254   5.199   8.854
13736WAT      O41449   2.161   7.805   7.984
13736WAT     H141450   2.095   7.787   7.911
13736WAT     H241451   2.232   7.867   7.950
13737WAT      O41452   2.307   5.744   7.784
13737WAT     H141453   2.235   5.755   7.716
13737WAT     H241454   2.355   5.830   7.796
13738WAT      O41455   4.962   7.805   9.690
13738WAT     H141456   5.016   7.764   9.764
13738WAT     H241457   4.875   7.755   9.681
13739WAT      O41458   5.873   7.545   3.759
13739WAT     H141459   5.905   7.637   3.738
13739WAT     H241460   5.937   7.500   3.821
13740WAT      O41461   1.616   4.167   3.735
13740WAT     H141462   1.627   4.108   3.655
13740WAT     H241463   1.525   4.210   3.732
13741WAT      O41464   4.382   4.550   0.063
13741WAT     H141465   4.361   4.507   0.151
13741WAT     H241466   4.364   4.485  -0.011
13742WAT      O41467   5.965   9.403   5.533
13742WAT     H141468   6.058   9.371   5.519
13742WAT     H241469   5.944   9.405   5.631
13743WAT      O41470   6.393   8.041   9.392
13743WAT     H141471   6.308   8.085   9.421
13743WAT     H241472   6.380   8.001   9.301
13744WAT      O41473   3.955   4.104   0.045
13744WAT     H141474   3.959   4.024   0.105
13744WAT     H241475   4.044   4.119   0.002
13745WAT      O41476   1.267   7.633   9.510
13745WAT     H141477   1.367   7.634   9.518
13745WAT     H241478   1.241   7.645   9.415
13746WAT      O41479   6.574   7.601   4.584
13746WAT     H141480   6.598   7.529   4.519
13746WAT     H241481   6.514   7.668   4.540
13747WAT      O41482   7.689   8.884   1.243
13747WAT     H141483   7.770   8.826   1.248
13747WAT     H241484   7.717   8.980   1.238
13748WAT      O41485   3.863   3.600   1.093
13748WAT     H141486   3.842   3.597   0.995
13748WAT     H241487   3.804   3.537   1.142
13749WAT      O41488   6.196   5.884   7.766
13749WAT     H141489   6.210   5.786   7.756
13749WAT     H241490   6.244   5.932   7.692
13750WAT      O41491   8.069   3.166   7.895
13750WAT     H141492   8.034   3.098   7.960
13750WAT     H241493   8.048   3.137   7.802
13751WAT      O41494   5.436   1.737   2.339
13751WAT     H141495   5.508   1.806   2.331
13751WAT     H241496   5.348   1.780   2.320
13752WAT      O41497   4.437   3.383   8.929
13752WAT     H141498   4.430   3.314   9.001
13752WAT     H241499   4.525   3.430   8.935
13753WAT      O41500   4.184   0.955   0.446
13753WAT     H141501   4.098   0.953   0.498
13753WAT     H241502   4.248   1.017   0.490
13754WAT      O41503   9.191   0.780   1.722
13754WAT     H141504   9.196   0.871   1.681
13754WAT     H241505   9.193   0.710   1.651
13755WAT      O41506   8.285   2.555   3.233
13755WAT     H141507   8.226   2.481   3.201
13755WAT     H241508   8.379   2.522   3.241
13756WAT      O41509   8.169   6.257   4.420
13756WAT     H141510   8.152   6.166   4.458
13756WAT     H241511   8.260   6.259   4.379
13757WAT      O41512   2.158   3.652   9.769
13757WAT     H141513   2.061   3.672   9.756
13757WAT     H241514   2.187   3.584   9.701
13758WAT      O41515   8.939   9.830   2.861
13758WAT     H141516   8.867   9.851   2.928
13758WAT     H241517   8.906   9.762   2.796
13759WAT      O41518   5.981   8.820   4.479
13759WAT     H141519   6.074   8.804   4.513
13759WAT     H241520   5.953   8.913   4.502
13760WAT      O41521   4.967   1.076   5.850
13760WAT     H141522   4.895   1.133   5.812
13760WAT     H241523   4.957   1.070   5.949
13761WAT      O41524   2.872   6.909   4.851
13761WAT     H141525   2.818   6.851   4.791
13761WAT     H241526   2.831   7.000   4.856
13762WAT      O41527   5.079   4.674   1.797
13762WAT     H141528   5.055   4.692   1.893
13762WAT     H241529   5.135   4.749   1.763
13763WAT      O41530   7.942   5.654   2.920
13763WAT     H141531   7.879   5.589   2.963
13763WAT     H241532   7.910   5.676   2.828
13764WAT      O41533   3.174   3.795   5.042
13764WAT     H141534   3.149   3.810   5.137
13764WAT     H241535   3.117   3.722   5.003
13765WAT      O41536   4.806   2.191   3.155
13765WAT     H141537   4.854   2.186   3.243
13765WAT     H241538   4.728   2.129   3.156
13766WAT      O41539   8.006   4.604   3.652
13766WAT     H141540   7.953   4.521   3.673
13766WAT     H241541   8.063   4.627   3.731
13767WAT      O41542   2.682   7.798   1.069
13767WAT     H141543   2.603   7.801   1.008
13767WAT     H241544   2.653   7.818   1.162
13768WAT      O41545   2.602   0.819   9.651
13768WAT     H141546   2.655   0.849   9.731
13768WAT     H241547   2.580   0.722   9.661
13769WAT      O41548   6.188   7.114   9.590
13769WAT     H141549   6.188   7.051   9.667
13769WAT     H241550   6.281   7.147   9.573
13770WAT      O41551   4.606   8.024   0.097
13770WAT     H141552   4.582   8.114   0.062
13770WAT     H241553   4.682   7.986   0.043
13771WAT      O41554   0.769   0.434   6.044
13771WAT     H141555   0.805   0.376   6.116
13771WAT     H241556   0.736   0.378   5.968
13772WAT      O41557   0.071   6.490   4.408
13772WAT     H141558   0.047   6.560   4.341
13772WAT     H241559   0.119   6.532   4.485
13773WAT      O41560   4.925   8.121   1.573
13773WAT     H141561   4.830   8.119   1.603
13773WAT     H241562   4.980   8.060   1.630
13774WAT      O41563   9.547   0.528   7.339
13774WAT     H141564   9.503   0.617   7.326
13774WAT     H241565   9.482   0.465   7.382
13775WAT      O41566   9.418   7.278   5.663
13775WAT     H141567   9.397   7.287   5.761
13775WAT     H241568   9.514   7.301   5.647
13776WAT      O41569   6.230   6.846   6.616
13776WAT     H141570   6.218   6.945   6.616
13776WAT     H241571   6.287   6.820   6.537
13777WAT      O41572   2.536   6.310   2.295
13777WAT     H141573   2.497   6.241   2.356
13777WAT     H241574   2.634   6.319   2.313
13778WAT      O41575   7.874   3.570   8.581
13778WAT     H141576   7.844   3.479   8.610
13778WAT     H241577   7.923   3.563   8.494
13779WAT      O41578   8.248   9.230   4.077
13779WAT     H141579   8.153   9.261   4.071
13779WAT     H241580   8.281   9.205   3.986
13780WAT      O41581   9.422   7.834   8.391
13780WAT     H141582   9.330   7.840   8.428
13780WAT     H241583   9.457   7.926   8.373
13781WAT      O41584   4.559   8.761   2.105
13781WAT     H141585   4.594   8.669   2.090
13781WAT     H241586   4.555   8.811   2.018
13782WAT      O41587   5.490   1.735   4.277
13782WAT     H141588   5.529   1.742   4.185
13782WAT     H241589   5.409   1.794   4.284
13783WAT      O41590   9.349   9.737   5.628
13783WAT     H141591   9.336   9.832   5.600
13783WAT     H241592   9.392   9.685   5.553
13784WAT      O41593   0.914   0.075   1.674
13784WAT     H141594   0.950   0.145   1.736
13784WAT     H241595   0.973  -0.006   1.677
13785WAT      O41596   8.545   7.576   3.006
13785WAT     H141597   8.512   7.665   3.037
13785WAT     H241598   8.634   7.557   3.046
13786WAT      O41599   7.433   0.724   4.830
13786WAT     H141600   7.532   0.713   4.838
13786WAT     H241601   7.406   0.716   4.735
13787WAT      O41602   5.082   2.602   5.445
13787WAT     H141603   5.086   2.565   5.538
13787WAT     H241604   4.991   2.585   5.407
13788WAT      O41605   7.361   3.530   3.275
13788WAT     H141606   7.320   3.548   3.364
13788WAT     H241607   7.345   3.608   3.214
13789WAT      O41608   2.150   2.343   7.144
13789WAT     H141609   2.147   2.435   7.183
13789WAT     H241610   2.239   2.302   7.161
13790WAT      O41611   7.636   8.080   6.738
13790WAT     H141612   7.647   8.002   6.676
13790WAT     H241613   7.585   8.051   6.819
13791WAT      O41614   1.590   9.159   3.050
13791WAT     H141615   1.657   9.230   3.072
13791WAT     H241616   1.542   9.184   2.966
13792WAT      O41617   9.670   8.750   4.178
13792WAT     H141618   9.746   8.742   4.242
13792WAT     H241619   9.685   8.828   4.117
13793WAT      O41620   1.021   8.126   7.917
13793WAT     H141621   1.121   8.125   7.911
13793WAT     H241622   0.982   8.107   7.826
13794WAT      O41623   0.319   3.464   4.908
13794WAT     H141624   0.367   3.408   4.840
13794WAT     H241625   0.379   3.539   4.936
13795WAT      O41626   1.526   4.371   6.365
13795WAT     H141627   1.568   4.280   6.366
13795WAT     H241628   1.532   4.409   6.273
13796WAT      O41629   2.659   6.612   4.549
13796WAT     H141630   2.569   6.602   4.507
13796WAT     H241631   2.649   6.629   4.647
13797WAT      O41632   6.763   9.024   2.468
13797WAT     H141633   6.786   8.936   2.426
13797WAT     H241634   6.675   9.056   2.432
13798WAT      O41635   3.193   8.387   9.136
13798WAT     H141636   3.122   8.453   9.110
13798WAT     H241637   3.162   8.294   9.115
13799WAT      O41638   1.773   6.420   0.584
13799WAT     H141639   1.723   6.436   0.669
13799WAT     H241640   1.806   6.507   0.547
13800WAT      O41641   7.977   0.211   3.382
13800WAT     H141642   7.879   0.191   3.383
13800WAT     H241643   8.025   0.137   3.335
13801WAT      O41644   1.442   5.942   5.028
13801WAT     H141645   1.420   5.986   5.115
13801WAT     H241646   1.491   6.007   4.969
13802WAT      O41647   8.932   2.564   5.125
13802WAT     H141648   9.010   2.505   5.141
13802WAT     H241649   8.920   2.578   5.027
13803WAT      O41650   4.698   8.678   5.310
13803WAT     H141651   4.784   8.671   5.361
13803WAT     H241652   4.692   8.768   5.267
13804WAT      O41653   4.492   3.779   6.527
13804WAT     H141654   4.571   3.743   6.478
13804WAT     H241655   4.412   3.721   6.508
13805WAT      O41656   1.145   3.974   7.168
13805WAT     H141657   1.057   3.964   7.121
13805WAT     H241658   1.213   4.009   7.104
13806WAT      O41659   2.784   8.028   1.372
13806WAT     H141660   2.759   8.081   1.453
13806WAT     H241661   2.806   8.090   1.297
13807WAT      O41662   2.433   0.127   8.496
13807WAT     H141663   2.372   0.126   8.575
13807WAT     H241664   2.452   0.033   8.468
13808WAT      O41665   2.484   8.961   0.307
13808WAT     H141666   2.507   9.004   0.220
13808WAT     H241667   2.557   8.898   0.333
13809WAT      O41668   8.100   7.441   5.271
13809WAT     H141669   8.114   7.373   5.199
13809WAT     H241670   8.002   7.451   5.289
13810WAT      O41671   3.120   5.941   4.284
13810WAT     H141672   3.021   5.950   4.291
13810WAT     H241673   3.150   5.862   4.337
13811WAT      O41674   7.801   4.052   6.656
13811WAT     H141675   7.768   3.962   6.685
13811WAT     H241676   7.787   4.062   6.558
13812WAT      O41677   8.503   3.637   8.174
13812WAT     H141678   8.502   3.551   8.124
13812WAT     H241679   8.520   3.713   8.111
13813WAT      O41680   3.794   6.596   6.825
13813WAT     H141681   3.826   6.513   6.872
13813WAT     H241682   3.782   6.576   6.728
13814WAT      O41683   1.482   2.055   1.949
13814WAT     H141684   1.488   1.989   1.873
13814WAT     H241685   1.562   2.043   2.008
13815WAT      O41686   0.855   2.883   1.265
13815WAT     H141687   0.876   2.967   1.214
13815WAT     H241688   0.768   2.893   1.312
13816WAT      O41689   9.481   8.041   4.780
13816WAT     H141690   9.458   8.106   4.708
13816WAT     H241691   9.402   7.982   4.799
13817WAT      O41692   9.434   7.163   6.371
13817WAT     H141693   9.456   7.084   6.428
13817WAT     H241694   9.513   7.223   6.366
13818WAT      O41695   5.252   3.638   9.845
13818WAT     H141696   5.237   3.568   9.915
13818WAT     H241697   5.272   3.595   9.758
13819WAT      O41698   0.397   7.341   0.673
13819WAT     H141699   0.311   7.387   0.654
13819WAT     H241700   0.447   7.327   0.587
13820WAT      O41701   5.034   6.740   7.248
13820WAT     H141702   5.132   6.743   7.230
13820WAT     H241703   5.001   6.647   7.235
13821WAT      O41704   7.602   2.352   2.107
13821WAT     H141705   7.595   2.316   2.014
13821WAT     H241706   7.621   2.451   2.104
13822WAT      O41707   7.608   2.665   1.675
13822WAT     H141708   7.599   2.764   1.666
13822WAT     H241709   7.537   2.631   1.737
13823WAT      O41710   5.052   8.942   7.710
13823WAT     H141711   4.963   8.906   7.737
13823WAT     H241712   5.040   9.009   7.636
13824WAT      O41713   5.486   0.325   3.575
13824WAT     H141714   5.502   0.420   3.600
13824WAT     H241715   5.437   0.322   3.488
13825WAT      O41716   6.475   7.402   6.942
13825WAT     H141717   6.570   7.430   6.957
13825WAT     H241718   6.472   7.303   6.926
13826WAT      O41719   7.565   3.760   6.102
13826WAT     H141720   7.572   3.824   6.178
13826WAT     H241721   7.636   3.780   6.034
13827WAT      O41722   4.288   7.275   2.988
13827WAT     H141723   4.279   7.315   3.079
13827WAT     H241724   4.204   7.291   2.936
13828WAT      O41725   8.301   4.645   8.731
13828WAT     H141726   8.243   4.644   8.813
13828WAT     H241727   8.326   4.551   8.707
13829WAT      O41728   0.484   1.152   1.927
13829WAT     H141729   0.467   1.176   2.022
13829WAT     H241730   0.537   1.067   1.924
13830WAT      O41731   7.166   9.136   6.582
13830WAT     H141732   7.159   9.232   6.555
13830WAT     H241733   7.075   9.094   6.580
13831WAT      O41734   8.161   1.138   1.523
13831WAT     H141735   8.176   1.045   1.488
13831WAT     H241736   8.237   1.196   1.496
13832WAT      O41737   0.710   8.255   2.238
13832WAT     H141738   0.685   8.169   2.193
13832WAT     H241739   0.627   8.301   2.269
13833WAT      O41740   8.378   5.723   4.100
13833WAT     H141741   8.328   5.649   4.053
13833WAT     H241742   8.314   5.796   4.122
13834WAT      O41743   6.131   8.183   2.477
13834WAT     H141744   6.080   8.260   2.440
13834WAT     H241745   6.189   8.214   2.552
13835WAT      O41746   5.432   3.470   1.121
13835WAT     H141747   5.367   3.508   1.187
13835WAT     H241748   5.496   3.541   1.093
13836WAT      O41749   0.783   9.276   3.804
13836WAT     H141750   0.813   9.183   3.825
13836WAT     H241751   0.790   9.292   3.706
13837WAT      O41752   0.172   6.890   2.569
13837WAT     H141753   0.164   6.826   2.645
13837WAT     H241754   0.263   6.930   2.569
13838WAT      O41755   0.309   2.600   6.795
13838WAT     H141756   0.300   2.695   6.827
13838WAT     H241757   0.396   2.590   6.746
13839WAT      O41758   2.882   5.925   9.288
13839WAT     H141759   2.920   5.864   9.357
13839WAT     H241760   2.783   5.930   9.298
13840WAT      O41761   0.625   9.204   0.325
13840WAT     H141762   0.634   9.114   0.368
13840WAT     H241763   0.712   9.253   0.331
13841WAT      O41764   3.032   2.358   8.632
13841WAT     H141765   2.936   2.376   8.656
13841WAT     H241766   3.071   2.439   8.588
13842WAT      O41767   9.861   3.461   6.052
13842WAT     H141768   9.814   3.529   6.109
13842WAT     H241769   9.793   3.406   6.004
13843WAT      O41770   5.028   7.280   4.804
13843WAT     H141771   4.980   7.342   4.866
13843WAT     H241772   5.065   7.332   4.727
13844WAT      O41773   7.137   5.034   3.009
13844WAT     H141774   7.207   4.963   3.019
13844WAT     H241775   7.046   4.993   3.016
13845WAT      O41776   3.642   4.867   9.674
13845WAT     H141777   3.710   4.811   9.721
13845WAT     H241778   3.671   4.963   9.678
13846WAT      O41779   8.284   3.094   1.446
13846WAT     H141780   8.253   3.060   1.534
13846WAT     H241781   8.368   3.147   1.458
13847WAT      O41782   4.536   8.253   9.853
13847WAT     H141783   4.439   8.235   9.872
13847WAT     H241784   4.556   8.227   9.758
13848WAT      O41785   5.051   4.456   9.026
13848WAT     H141786   5.129   4.474   8.966
13848WAT     H241787   4.966   4.476   8.978
13849WAT      O41788   3.080   3.444   0.150
13849WAT     H141789   3.137   3.522   0.126
13849WAT     H241790   3.011   3.473   0.216
13850WAT      O41791   5.839   2.951   6.701
13850WAT     H141792   5.880   3.042   6.710
13850WAT     H241793   5.901   2.883   6.741
13851WAT      O41794   6.316   7.751   3.296
13851WAT     H141795   6.349   7.788   3.383
13851WAT     H241796   6.216   7.756   3.294
13852WAT      O41797   0.296   0.625   6.445
13852WAT     H141798   0.235   0.597   6.371
13852WAT     H241799   0.390   0.603   6.422
13853WAT      O41800   5.144   3.111   0.438
13853WAT     H141801   5.206   3.065   0.502
13853WAT     H241802   5.049   3.097   0.467
13854WAT      O41803   4.570   4.351   1.318
13854WAT     H141804   4.658   4.370   1.275
13854WAT     H241805   4.520   4.285   1.263
13855WAT      O41806   3.273   2.406   5.901
13855WAT     H141807   3.345   2.389   5.834
13855WAT     H241808   3.187   2.424   5.854
13856WAT      O41809   1.682   8.379   2.770
13856WAT     H141810   1.637   8.292   2.749
13856WAT     H241811   1.712   8.423   2.685
13857WAT      O41812   7.856   8.103   6.463
13857WAT     H141813   7.904   8.037   6.405
13857WAT     H241814   7.909   8.188   6.468
13858WAT      O41815   8.148   8.060   6.204
13858WAT     H141816   8.221   7.999   6.173
13858WAT     H241817   8.125   8.125   6.132
13859WAT      O41818   8.028   5.808   5.904
13859WAT     H141819   8.115   5.794   5.952
13859WAT     H241820   8.024   5.749   5.824
13860WAT      O41821   8.861   3.476   1.464
13860WAT     H141822   8.802   3.480   1.384
13860WAT     H241823   8.957   3.481   1.435
13861WAT      O41824   4.145   4.383   5.035
13861WAT     H141825   4.101   4.368   4.946
13861WAT     H241826   4.243   4.395   5.022
13862WAT      O41827   9.180   3.304   9.635
13862WAT     H141828   9.112   3.378   9.629
13862WAT     H241829   9.270   3.339   9.608
13863WAT      O41830   0.814   3.537   9.275
13863WAT     H141831   0.871   3.613   9.244
13863WAT     H241832   0.719   3.554   9.248
13864WAT      O41833   9.463   0.582   8.631
13864WAT     H141834   9.459   0.504   8.694
13864WAT     H241835   9.517   0.558   8.551
13865WAT      O41836   3.582   6.180   9.221
13865WAT     H141837   3.575   6.181   9.321
13865WAT     H241838   3.543   6.094   9.186
13866WAT      O41839   0.297   9.549   2.618
13866WAT     H141840   0.259   9.482   2.681
13866WAT     H241841   0.382   9.513   2.579
13867WAT      O41842   9.418   6.365   4.459
13867WAT     H141843   9.475   6.415   4.524
13867WAT     H241844   9.452   6.271   4.451
13868WAT      O41845   3.856   7.013   2.245
13868WAT     H141846   3.882   6.926   2.286
13868WAT     H241847   3.793   6.997   2.169
13869WAT      O41848   2.216   3.575   9.170
13869WAT     H141849   2.179   3.643   9.107
13869WAT     H241850   2.183   3.484   9.143
13870WAT      O41851   8.918   9.561   5.827
13870WAT     H141852   9.003   9.598   5.864
13870WAT     H241853   8.937   9.476   5.778
13871WAT      O41854   5.311   8.673   2.745
13871WAT     H141855   5.211   8.680   2.754
13871WAT     H241856   5.355   8.745   2.797
13872WAT      O41857   2.079   2.822   0.637
13872WAT     H141858   2.109   2.870   0.719
13872WAT     H241859   2.066   2.725   0.659
13873WAT      O41860   0.694   7.268   6.961
13873WAT     H141861   0.673   7.346   7.019
13873WAT     H241862   0.618   7.204   6.961
13874WAT      O41863   0.446   3.266   0.687
13874WAT     H141864   0.534   3.273   0.642
13874WAT     H241865   0.374   3.304   0.628
13875WAT      O41866   6.364   4.388   3.651
13875WAT     H141867   6.376   4.385   3.552
13875WAT     H241868   6.269   4.367   3.674
13876WAT      O41869   8.809   5.910   3.558
13876WAT     H141870   8.750   5.829   3.551
13876WAT     H241871   8.882   5.903   3.491
13877WAT      O41872   5.336   9.785   1.992
13877WAT     H141873   5.316   9.692   1.961
13877WAT     H241874   5.422   9.785   2.043
13878WAT      O41875   1.922   6.955   4.183
13878WAT     H141876   1.913   7.025   4.112
13878WAT     H241877   1.977   6.879   4.149
13879WAT      O41878   8.642   2.611   7.881
13879WAT     H141879   8.597   2.568   7.960
13879WAT     H241880   8.741   2.602   7.891
13880WAT      O41881   8.864   0.062   3.582
13880WAT     H141882   8.863  -0.007   3.510
13880WAT     H241883   8.942   0.123   3.569
13881WAT      O41884   6.962   3.216   9.048
13881WAT     H141885   6.966   3.227   8.949
13881WAT     H241886   6.905   3.137   9.071
13882WAT      O41887   5.393   8.828   6.766
13882WAT     H141888   5.435   8.850   6.678
13882WAT     H241889   5.380   8.729   6.772
13883WAT      O41890   8.384   7.354   4.635
13883WAT     H141891   8.421   7.445   4.649
13883WAT     H241892   8.336   7.324   4.718
13884WAT      O41893   4.380   3.774   4.037
13884WAT     H141894   4.333   3.859   4.012
13884WAT     H241895   4.465   3.797   4.084
13885WAT      O41896   9.546   8.060   1.914
13885WAT     H141897   9.455   8.027   1.938
13885WAT     H241898   9.603   8.063   1.996
13886WAT      O41899   6.116   9.004   3.578
13886WAT     H141900   6.141   9.094   3.541
13886WAT     H241901   6.035   9.013   3.634
13887WAT      O41902   5.442   6.659   8.735
13887WAT     H141903   5.382   6.691   8.807
13887WAT     H241904   5.486   6.573   8.763
13888WAT      O41905   2.385   8.122   1.084
13888WAT     H141906   2.342   8.196   1.032
13888WAT     H241907   2.316   8.070   1.133
13889WAT      O41908   4.198   7.839   2.938
13889WAT     H141909   4.167   7.847   2.844
13889WAT     H241910   4.184   7.926   2.985
13890WAT      O41911   7.151   8.003   4.114
13890WAT     H141912   7.149   7.953   4.201
13890WAT     H241913   7.068   7.983   4.062
13891WAT      O41914   7.679   1.013   4.078
13891WAT     H141915   7.727   1.022   3.991
13891WAT     H241916   7.607   1.082   4.084
13892WAT      O41917   1.181   8.802   8.490
13892WAT     H141918   1.140   8.875   8.545
13892WAT     H241919   1.271   8.830   8.457
13893WAT      O41920   4.544   5.152   0.205
13893WAT     H141921   4.453   5.112   0.196
13893WAT     H241922   4.557   5.221   0.133
13894WAT      O41923   1.437   1.736   4.955
13894WAT     H141924   1.475   1.708   5.043
13894WAT     H241925   1.392   1.825   4.965
13895WAT      O41926   3.596   5.491   2.421
13895WAT     H141927   3.659   5.550   2.370
13895WAT     H241928   3.615   5.395   2.400
13896WAT      O41929   5.916   7.095   8.414
13896WAT     H141930   5.828   7.060   8.382
13896WAT     H241931   5.902   7.181   8.462
13897WAT      O41932   8.209   8.176   4.155
13897WAT     H141933   8.275   8.180   4.080
13897WAT     H241934   8.249   8.126   4.232
13898WAT      O41935   8.113   3.521   4.745
13898WAT     H141936   8.194   3.472   4.713
13898WAT     H241937   8.081   3.583   4.672
13899WAT      O41938   6.776   1.588   1.072
13899WAT     H141939   6.718   1.531   1.014
13899WAT     H241940   6.807   1.535   1.151
13900WAT      O41941   4.366   1.308   8.676
13900WAT     H141942   4.451   1.264   8.704
13900WAT     H241943   4.297   1.294   8.747
13901WAT      O41944   1.813   8.816   5.111
13901WAT     H141945   1.815   8.912   5.084
13901WAT     H241946   1.807   8.758   5.029
13902WAT      O41947   9.050   4.358   2.466
13902WAT     H141948   9.072   4.283   2.404
13902WAT     H241949   8.954   4.386   2.452
13903WAT      O41950   4.633   0.860   2.255
13903WAT     H141951   4.546   0.814   2.234
13903WAT     H241952   4.709   0.797   2.238
13904WAT      O41953   3.302   6.809   4.651
13904WAT     H141954   3.259   6.803   4.741
13904WAT     H241955   3.401   6.797   4.660
13905WAT      O41956   2.939   6.835   8.807
13905WAT     H141957   2.981   6.774   8.739
13905WAT     H241958   2.841   6.815   8.813
13906WAT      O41959   8.799   2.347   9.809
13906WAT     H141960   8.857   2.429   9.805
13906WAT     H241961   8.798   2.303   9.719
13907WAT      O41962   5.527   6.572   7.182
13907WAT     H141963   5.478   6.504   7.127
13907WAT     H241964   5.617   6.535   7.207
13908WAT      O41965   8.371   4.149   2.683
13908WAT     H141966   8.422   4.079   2.633
13908WAT     H241967   8.435   4.218   2.717
13909WAT      O41968   2.388   3.473   0.741
13909WAT     H141969   2.451   3.432   0.674
13909WAT     H241970   2.302   3.496   0.695
13910WAT      O41971   2.220   0.127   8.663
13910WAT     H141972   2.131   0.084   8.650
13910WAT     H241973   2.209   0.226   8.668
13911WAT      O41974   0.534   0.631   3.153
13911WAT     H141975   0.460   0.650   3.216
13911WAT     H241976   0.605   0.578   3.200
13912WAT      O41977   0.979   6.990   5.779
13912WAT     H141978   0.913   6.949   5.716
13912WAT     H241979   1.053   7.032   5.727
13913WAT      O41980   8.936   0.363   1.454
13913WAT     H141981   8.948   0.292   1.523
13913WAT     H241982   9.006   0.433   1.465
13914WAT      O41983   4.575   4.571   8.995
13914WAT     H141984   4.569   4.528   9.085
13914WAT     H241985   4.499   4.539   8.938
13915WAT      O41986   4.514   1.476   4.518
13915WAT     H141987   4.558   1.465   4.607
13915WAT     H241988   4.472   1.567   4.513
13916WAT      O41989   2.829   3.331   5.150
13916WAT     H141990   2.853   3.272   5.226
13916WAT     H241991   2.751   3.388   5.176
13917WAT      O41992   2.272   4.004   5.401
13917WAT     H141993   2.308   4.044   5.486
13917WAT     H241994   2.244   4.077   5.339
13918WAT      O41995   6.101   2.862   9.735
13918WAT     H141996   6.020   2.817   9.773
13918WAT     H241997   6.097   2.960   9.757
13919WAT      O41998   1.772   3.330   6.020
13919WAT     H141999   1.831   3.252   6.001
13919WAT     H242000   1.825   3.414   6.011
13920WAT      O42001   9.191   0.178   6.179
13920WAT     H142002   9.217   0.263   6.133
13920WAT     H242003   9.103   0.147   6.145
13921WAT      O42004   7.624   5.572   7.564
13921WAT     H142005   7.571   5.492   7.536
13921WAT     H242006   7.579   5.617   7.642
13922WAT      O42007   1.014   6.787   0.578
13922WAT     H142008   0.946   6.715   0.588
13922WAT     H242009   1.093   6.767   0.636
13923WAT      O42010   3.178   1.096   3.423
13923WAT     H142011   3.105   1.154   3.386
13923WAT     H242012   3.149   1.000   3.416
13924WAT      O42013   8.975   9.031   6.379
13924WAT     H142014   8.893   9.085   6.360
13924WAT     H242015   8.987   8.962   6.308
13925WAT      O42016   5.009   8.205   1.077
13925WAT     H142017   5.094   8.181   1.125
13925WAT     H242018   5.007   8.304   1.062
13926WAT      O42019   9.469   1.004   1.536
13926WAT     H142020   9.420   1.073   1.484
13926WAT     H242021   9.500   0.931   1.475
13927WAT      O42022   0.285   6.998   1.265
13927WAT     H142023   0.310   7.069   1.332
13927WAT     H242024   0.348   7.002   1.188
13928WAT      O42025   2.302   1.448   8.388
13928WAT     H142026   2.208   1.419   8.406
13928WAT     H242027   2.338   1.396   8.310
13929WAT      O42028   7.045   4.920   4.794
13929WAT     H142029   6.989   4.996   4.760
13929WAT     H242030   7.025   4.838   4.740
13930WAT      O42031   7.651   8.757   4.164
13930WAT     H142032   7.614   8.849   4.149
13930WAT     H242033   7.690   8.722   4.079
13931WAT      O42034   2.821   7.193   9.786
13931WAT     H142035   2.794   7.259   9.716
13931WAT     H242036   2.790   7.224   9.876
13932WAT      O42037   0.678   6.790   9.439
13932WAT     H142038   0.771   6.766   9.411
13932WAT     H242039   0.625   6.816   9.358
13933WAT      O42040   1.077   9.275   7.227
13933WAT     H142041   0.989   9.250   7.187
13933WAT     H242042   1.151   9.237   7.172
13934WAT      O42043   9.769   7.209   2.502
13934WAT     H142044   9.764   7.163   2.414
13934WAT     H242045   9.725   7.152   2.572
13935WAT      O42046   2.058   6.527   6.652
13935WAT     H142047   2.093   6.544   6.560
13935WAT     H242048   1.982   6.462   6.648
13936WAT      O42049   6.667   3.354   2.500
13936WAT     H142050   6.681   3.431   2.563
13936WAT     H242051   6.754   3.308   2.484
13937WAT      O42052   2.797   4.376   7.694
13937WAT     H142053   2.724   4.438   7.724
13937WAT     H242054   2.789   4.289   7.743
13938WAT      O42055   3.428   0.683   5.196
13938WAT     H142056   3.508   0.705   5.141
13938WAT     H242057   3.366   0.762   5.198
13939WAT      O42058   9.208   9.708   9.608
13939WAT     H142059   9.182   9.648   9.532
13939WAT     H242060   9.127   9.760   9.638
13940WAT      O42061   5.851   3.786   9.470
13940WAT     H142062   5.882   3.821   9.558
13940WAT     H242063   5.815   3.693   9.482
13941WAT      O42064   5.477   1.666   0.446
13941WAT     H142065   5.455   1.569   0.445
13941WAT     H242066   5.513   1.693   0.356
13942WAT      O42067   8.453   0.559   6.482
13942WAT     H142068   8.363   0.603   6.491
13942WAT     H242069   8.511   0.613   6.421
13943WAT      O42070   5.843   7.594   6.492
13943WAT     H142071   5.882   7.505   6.515
13943WAT     H242072   5.769   7.615   6.556
13944WAT      O42073   1.315   5.630   2.480
13944WAT     H142074   1.389   5.563   2.488
13944WAT     H242075   1.348   5.712   2.433
13945WAT      O42076   9.214   1.845   8.456
13945WAT     H142077   9.278   1.922   8.465
13945WAT     H242078   9.264   1.766   8.422
13946WAT      O42079   1.658   5.094   8.748
13946WAT     H142080   1.722   5.162   8.784
13946WAT     H242081   1.645   5.110   8.650
13947WAT      O42082   2.704   7.740   3.520
13947WAT     H142083   2.671   7.655   3.560
13947WAT     H242084   2.625   7.793   3.487
13948WAT      O42085   7.026   1.034   0.254
13948WAT     H142086   7.072   1.120   0.231
13948WAT     H242087   6.978   1.044   0.341
13949WAT      O42088   3.758   8.502   2.279
13949WAT     H142089   3.796   8.530   2.191
13949WAT     H242090   3.816   8.431   2.320
13950WAT      O42091   2.213   1.656   8.872
13950WAT     H142092   2.248   1.634   8.963
13950WAT     H242093   2.267   1.608   8.803
13951WAT      O42094   9.830   1.498   0.922
13951WAT     H142095   9.917   1.545   0.905
13951WAT     H242096   9.848   1.404   0.950
13952WAT      O42097   9.757   1.482   8.475
13952WAT     H142098   9.712   1.469   8.563
13952WAT     H242099   9.689   1.506   8.406
13953WAT      O42100   1.267   8.087   8.816
13953WAT     H142101   1.173   8.088   8.851
13953WAT     H242102   1.278   8.010   8.753
13954WAT      O42103   2.076   2.603   9.586
13954WAT     H142104   2.074   2.549   9.502
13954WAT     H242105   2.169   2.637   9.601
13955WAT      O42106   2.835   1.100   8.045
13955WAT     H142107   2.845   1.161   8.124
13955WAT     H242108   2.738   1.080   8.031
13956WAT      O42109   8.382   4.916   8.787
13956WAT     H142110   8.334   4.835   8.755
13956WAT     H242111   8.460   4.934   8.726
13957WAT      O42112   8.893   5.009   9.395
13957WAT     H142113   8.918   5.028   9.490
13957WAT     H242114   8.968   4.964   9.348
13958WAT      O42115   2.902   6.464   7.199
13958WAT     H142116   2.816   6.514   7.188
13958WAT     H242117   2.882   6.366   7.210
13959WAT      O42118   4.551   6.422   1.057
13959WAT     H142119   4.491   6.490   1.015
13959WAT     H242120   4.601   6.463   1.133
13960WAT      O42121   7.713   4.002   4.109
13960WAT     H142122   7.698   3.904   4.122
13960WAT     H242123   7.808   4.025   4.127
13961WAT      O42124   2.000   6.799   8.655
13961WAT     H142125   1.945   6.751   8.587
13961WAT     H242126   2.087   6.752   8.667
13962WAT      O42127   0.617   6.057   5.872
13962WAT     H142128   0.698   6.085   5.924
13962WAT     H242129   0.545   6.125   5.883
13963WAT      O42130   1.807   7.426   8.733
13963WAT     H142131   1.738   7.386   8.793
13963WAT     H242132   1.776   7.516   8.702
13964WAT      O42133   4.734   4.524   2.212
13964WAT     H142134   4.676   4.582   2.155
13964WAT     H242135   4.703   4.529   2.307
13965WAT      O42136   1.337   3.359   1.218
13965WAT     H142137   1.402   3.370   1.142
13965WAT     H242138   1.361   3.422   1.292
13966WAT      O42139   7.751   1.552   8.284
13966WAT     H142140   7.785   1.553   8.190
13966WAT     H242141   7.736   1.646   8.315
13967WAT      O42142   9.064   5.408   5.024
13967WAT     H142143   8.993   5.408   5.095
13967WAT     H242144   9.150   5.376   5.064
13968WAT      O42145   9.705   3.599   4.341
13968WAT     H142146   9.775   3.541   4.383
13968WAT     H242147   9.624   3.601   4.399
13969WAT      O42148   5.615   9.106   4.410
13969WAT     H142149   5.566   9.188   4.438
13969WAT     H242150   5.642   9.053   4.490
13970WAT      O42151   3.210   6.692   8.330
13970WAT     H142152   3.170   6.601   8.317
13970WAT     H242153   3.281   6.708   8.262
13971WAT      O42154   6.646   7.008   3.774
13971WAT     H142155   6.571   6.995   3.839
13971WAT     H242156   6.685   6.920   3.750
13972WAT      O42157   1.574   0.587   5.114
13972WAT     H142158   1.494   0.548   5.069
13972WAT     H242159   1.655   0.533   5.090
13973WAT      O42160   8.055   6.657   2.999
13973WAT     H142161   8.041   6.756   2.999
13973WAT     H242162   8.078   6.627   2.907
13974WAT      O42163   7.158   7.631   0.737
13974WAT     H142164   7.167   7.544   0.688
13974WAT     H242165   7.087   7.686   0.694
13975WAT      O42166   8.070   3.541   7.430
13975WAT     H142167   8.149   3.561   7.371
13975WAT     H242168   8.011   3.474   7.385
13976WAT      O42169   5.688   0.153   0.519
13976WAT     H142170   5.652   0.246   0.511
13976WAT     H242171   5.691   0.110   0.429
13977WAT      O42172   5.141   3.053   9.368
13977WAT     H142173   5.043   3.053   9.346
13977WAT     H242174   5.182   3.139   9.338
13978WAT      O42175   2.646   6.890   9.126
13978WAT     H142176   2.627   6.873   9.223
13978WAT     H242177   2.629   6.987   9.106
13979WAT      O42178   2.219   8.466   9.167
13979WAT     H142179   2.241   8.511   9.254
13979WAT     H242180   2.133   8.417   9.176
13980WAT      O42181   1.034   2.508   0.760
13980WAT     H142182   1.055   2.432   0.698
13980WAT     H242183   0.948   2.551   0.732
13981WAT      O42184   5.669   2.288   1.370
13981WAT     H142185   5.659   2.341   1.454
13981WAT     H242186   5.645   2.192   1.388
13982WAT      O42187   0.491   7.129   2.687
13982WAT     H142188   0.553   7.117   2.609
13982WAT     H242189   0.472   7.039   2.727
13983WAT      O42190   7.313   9.318   1.868
13983WAT     H142191   7.275   9.355   1.783
13983WAT     H242192   7.388   9.256   1.847
13984WAT      O42193   7.208   8.421   8.414
13984WAT     H142194   7.217   8.399   8.511
13984WAT     H242195   7.111   8.422   8.390
13985WAT      O42196   6.464   5.602   5.334
13985WAT     H142197   6.551   5.576   5.377
13985WAT     H242198   6.392   5.601   5.403
13986WAT      O42199   1.828   1.005   8.620
13986WAT     H142200   1.779   0.954   8.691
13986WAT     H242201   1.845   0.945   8.542
13987WAT      O42202   5.391   9.071   7.552
13987WAT     H142203   5.349   8.980   7.557
13987WAT     H242204   5.447   9.087   7.633
13988WAT      O42205   8.959   2.631   7.581
13988WAT     H142206   9.039   2.572   7.576
13988WAT     H242207   8.876   2.576   7.574
13989WAT      O42208   4.083   9.676   8.392
13989WAT     H142209   4.078   9.683   8.292
13989WAT     H242210   3.999   9.635   8.427
13990WAT      O42211   0.937   4.084   0.618
13990WAT     H142212   0.984   4.138   0.548
13990WAT     H242213   0.924   3.990   0.586
13991WAT      O42214   2.689   9.415   2.061
13991WAT     H142215   2.776   9.366   2.072
13991WAT     H242216   2.614   9.349   2.061
13992WAT      O42217   3.486   5.703   8.888
13992WAT     H142218   3.434   5.655   8.818
13992WAT     H242219   3.433   5.706   8.973
13993WAT      O42220   6.155   6.063   1.898
13993WAT     H142221   6.243   6.024   1.923
13993WAT     H242222   6.159   6.098   1.804
13994WAT      O42223   5.572   1.149   3.263
13994WAT     H142224   5.659   1.109   3.294
13994WAT     H242225   5.542   1.218   3.328
13995WAT      O42226   3.189   6.961   2.247
13995WAT     H142227   3.186   6.870   2.289
13995WAT     H242228   3.102   7.008   2.264
13996WAT      O42229   0.173   1.502   6.105
13996WAT     H142230   0.223   1.421   6.073
13996WAT     H242231   0.189   1.578   6.043
13997WAT      O42232   5.864   7.450   5.359
13997WAT     H142233   5.844   7.479   5.265
13997WAT     H242234   5.950   7.491   5.389
13998WAT      O42235   2.802   1.970   2.349
13998WAT     H142236   2.729   1.917   2.307
13998WAT     H242237   2.834   1.924   2.431
13999WAT      O42238   6.874   0.002   8.140
13999WAT     H142239   6.819  -0.056   8.080
13999WAT     H242240   6.946   0.045   8.086
14000WAT      O42241   1.922   2.716   6.621
14000WAT     H142242   1.998   2.730   6.558
14000WAT     H242243   1.907   2.799   6.675
14001WAT      O42244   0.591   2.658   3.456
14001WAT     H142245   0.680   2.702   3.469
14001WAT     H242246   0.594   2.600   3.374
14002WAT      O42247   9.654   7.872   5.573
14002WAT     H142248   9.584   7.805   5.596
14002WAT     H242249   9.615   7.942   5.512
14003WAT      O42250   9.529   8.511   3.098
14003WAT     H142251   9.592   8.548   3.166
14003WAT     H242252   9.450   8.572   3.090
14004WAT      O42253   3.812   4.482   6.351
14004WAT     H142254   3.759   4.447   6.428
14004WAT     H242255   3.906   4.449   6.357
14005WAT      O42256   6.756   0.474   6.029
14005WAT     H142257   6.842   0.508   6.068
14005WAT     H242258   6.713   0.410   6.093
14006WAT      O42259   9.049   7.219   4.258
14006WAT     H142260   8.963   7.268   4.249
14006WAT     H242261   9.077   7.218   4.354
14007WAT      O42262   2.535   3.991   8.928
14007WAT     H142263   2.521   4.055   9.003
14007WAT     H242264   2.481   3.908   8.943
14008WAT      O42265   1.272   6.109   4.404
14008WAT     H142266   1.294   6.108   4.502
14008WAT     H242267   1.253   6.015   4.374
14009WAT      O42268   4.270   1.252   8.420
14009WAT     H142269   4.325   1.260   8.503
14009WAT     H242270   4.309   1.309   8.348
14010WAT      O42271   4.238   5.842   5.873
14010WAT     H142272   4.222   5.933   5.834
14010WAT     H242273   4.219   5.772   5.805
14011WAT      O42274   9.844   0.249   1.010
14011WAT     H142275   9.925   0.245   0.952
14011WAT     H242276   9.843   0.170   1.071
14012WAT      O42277   6.060   3.001   4.022
14012WAT     H142278   6.080   2.906   4.045
14012WAT     H242279   5.961   3.013   4.015
14013WAT      O42280   7.583   3.568   1.753
14013WAT     H142281   7.484   3.581   1.761
14013WAT     H242282   7.608   3.552   1.658
14014WAT      O42283   4.533   3.060   0.681
14014WAT     H142284   4.440   3.093   0.696
14014WAT     H242285   4.596   3.137   0.675
14015WAT      O42286   6.404   0.041   5.246
14015WAT     H142287   6.420   0.032   5.148
14015WAT     H242288   6.465   0.110   5.284
14016WAT      O42289   5.286   0.966   3.528
14016WAT     H142290   5.286   0.986   3.430
14016WAT     H242291   5.370   0.917   3.552
14017WAT      O42292   2.084   5.771   0.851
14017WAT     H142293   2.007   5.758   0.913
14017WAT     H242294   2.141   5.690   0.851
14018WAT      O42295   8.597   0.052   1.614
14018WAT     H142296   8.664   0.023   1.546
14018WAT     H242297   8.639   0.114   1.679
14019WAT      O42298   9.391   9.493   3.114
14019WAT     H142299   9.435   9.457   3.195
14019WAT     H242300   9.390   9.424   3.042
14020WAT      O42301   3.919   2.796   2.837
14020WAT     H142302   3.839   2.765   2.887
14020WAT     H242303   3.890   2.854   2.760
14021WAT      O42304   1.060   5.005   9.704
14021WAT     H142305   0.985   5.003   9.638
14021WAT     H242306   1.085   5.100   9.724
14022WAT      O42307   9.662   9.073   3.377
14022WAT     H142308   9.597   9.042   3.447
14022WAT     H242309   9.719   9.146   3.415
14023WAT      O42310   0.899   7.350   4.449
14023WAT     H142311   0.952   7.402   4.381
14023WAT     H242312   0.959   7.320   4.522
14024WAT      O42313   5.021   4.502   0.607
14024WAT     H142314   4.937   4.464   0.568
14024WAT     H242315   5.036   4.461   0.697
14025WAT      O42316   8.708   9.619   6.987
14025WAT     H142317   8.703   9.682   6.910
14025WAT     H242318   8.760   9.537   6.960
14026WAT      O42319   3.616   2.909   6.862
14026WAT     H142320   3.524   2.870   6.871
14026WAT     H242321   3.682   2.837   6.844
14027WAT      O42322   6.784   3.053   0.747
14027WAT     H142323   6.833   3.112   0.810
14027WAT     H242324   6.698   3.096   0.721
14028WAT      O42325   5.501   8.088   2.235
14028WAT     H142326   5.491   8.115   2.139
14028WAT     H242327   5.434   8.017   2.257
14029WAT      O42328   5.533   7.163   6.297
14029WAT     H142329   5.478   7.115   6.366
14029WAT     H242330   5.519   7.262   6.307
14030WAT      O42331   3.562   1.238   6.861
14030WAT     H142332   3.471   1.229   6.820
14030WAT     H242333   3.604   1.324   6.831
14031WAT      O42334   5.611   8.664   6.298
14031WAT     H142335   5.698   8.617   6.309
14031WAT     H242336   5.561   8.663   6.386
14032WAT      O42337   2.370   8.603   2.299
14032WAT     H142338   2.371   8.697   2.266
14032WAT     H242339   2.463   8.567   2.299
14033WAT      O42340   8.514   7.998   1.300
14033WAT     H142341   8.571   8.069   1.258
14033WAT     H242342   8.438   7.976   1.240
14034WAT      O42343   4.249   1.370   3.779
14034WAT     H142344   4.345   1.359   3.754
14034WAT     H242345   4.191   1.330   3.708
14035WAT      O42346   7.064   8.884   5.720
14035WAT     H142347   6.983   8.842   5.679
14035WAT     H242348   7.084   8.971   5.676
14036WAT      O42349   0.896   5.618   5.103
14036WAT     H142350   0.947   5.539   5.069
14036WAT     H242351   0.800   5.594   5.113
14037WAT      O42352   1.573   4.825   7.276
14037WAT     H142353   1.633   4.745   7.274
14037WAT     H242354   1.571   4.864   7.368
14038WAT      O42355   0.201   0.149   1.271
14038WAT     H142356   0.107   0.126   1.246
14038WAT     H242357   0.243   0.202   1.197
14039WAT      O42358   2.767   7.774   2.419
14039WAT     H142359   2.724   7.687   2.444
14039WAT     H242360   2.798   7.820   2.503
14040WAT      O42361   5.859   5.440   7.714
14040WAT     H142362   5.765   5.436   7.749
14040WAT     H242363   5.915   5.495   7.776
14041WAT      O42364   0.363   7.486   6.527
14041WAT     H142365   0.420   7.498   6.446
14041WAT     H242366   0.421   7.474   6.608
14042WAT      O42367   1.860   4.493   9.129
14042WAT     H142368   1.809   4.456   9.207
14042WAT     H242369   1.904   4.417   9.080
14043WAT      O42370   3.553   6.891   9.127
14043WAT     H142371   3.590   6.943   9.051
14043WAT     H242372   3.558   6.946   9.211
14044WAT      O42373   4.525   5.924   2.548
14044WAT     H142374   4.621   5.926   2.521
14044WAT     H242375   4.478   6.003   2.509
14045WAT      O42376   3.242   1.009   6.694
14045WAT     H142377   3.165   1.016   6.632
14045WAT     H242378   3.275   1.100   6.718
14046WAT      O42379   8.886   6.749   8.964
14046WAT     H142380   8.883   6.845   8.991
14046WAT     H242381   8.969   6.731   8.911
14047WAT      O42382   0.107   6.946   7.606
14047WAT     H142383   0.161   7.019   7.565
14047WAT     H242384   0.027   6.927   7.549
14048WAT      O42385   3.793   9.024   6.793
14048WAT     H142386   3.766   9.061   6.882
14048WAT     H242387   3.767   9.088   6.721
14049WAT      O42388   8.965   4.130   7.972
14049WAT     H142389   8.987   4.190   7.895
14049WAT     H242390   8.987   4.035   7.947
14050WAT      O42391   0.765   1.123   7.699
14050WAT     H142392   0.830   1.197   7.688
14050WAT     H242393   0.685   1.139   7.640
14051WAT      O42394   1.284   9.724   5.465
14051WAT     H142395   1.219   9.659   5.425
14051WAT     H242396   1.278   9.811   5.416
14052WAT      O42397   8.589   7.225   2.026
14052WAT     H142398   8.621   7.320   2.030
14052WAT     H242399   8.661   7.168   1.986
14053WAT      O42400   6.019   8.318   4.465
14053WAT     H142401   5.941   8.374   4.492
14053WAT     H242402   5.995   8.221   4.473
14054WAT      O42403   6.277   3.920   6.330
14054WAT     H142404   6.196   3.907   6.273
14054WAT     H242405   6.251   3.969   6.414
14055WAT      O42406   4.564   5.613   7.128
14055WAT     H142407   4.513   5.532   7.097
14055WAT     H242408   4.612   5.653   7.050
14056WAT      O42409   3.376   5.552   5.898
14056WAT     H142410   3.323   5.552   5.813
14056WAT     H242411   3.454   5.491   5.889
14057WAT      O42412   4.487   8.113   8.904
14057WAT     H142413   4.565   8.124   8.843
14057WAT     H242414   4.461   8.202   8.942
14058WAT      O42415   0.335   3.420   1.204
14058WAT     H142416   0.285   3.503   1.228
14058WAT     H242417   0.415   3.444   1.148
14059WAT      O42418   2.195   2.792   1.049
14059WAT     H142419   2.096   2.806   1.056
14059WAT     H242420   2.223   2.718   1.111
14060WAT      O42421   3.304   4.870   2.821
14060WAT     H142422   3.281   4.919   2.905
14060WAT     H242423   3.387   4.909   2.781
14061WAT      O42424   8.115   4.370   4.149
14061WAT     H142425   8.054   4.361   4.071
14061WAT     H242426   8.062   4.400   4.229
14062WAT      O42427   3.556   8.320   1.407
14062WAT     H142428   3.569   8.275   1.496
14062WAT     H242429   3.528   8.415   1.421
14063WAT      O42430   7.665   2.572   9.014
14063WAT     H142431   7.687   2.487   8.965
14063WAT     H242432   7.595   2.622   8.964
14064WAT      O42433   1.052   4.869   0.950
14064WAT     H142434   1.043   4.888   0.852
14064WAT     H242435   1.140   4.904   0.982
14065WAT      O42436   4.672   8.492   9.186
14065WAT     H142437   4.618   8.551   9.126
14065WAT     H242438   4.691   8.540   9.271
14066WAT      O42439   6.209   8.484   6.314
14066WAT     H142440   6.185   8.401   6.264
14066WAT     H242441   6.232   8.557   6.249
14067WAT      O42442   2.484   8.211   3.710
14067WAT     H142443   2.494   8.184   3.614
14067WAT     H242444   2.402   8.268   3.720
14068WAT      O42445   1.761   1.069   4.580
14068WAT     H142446   1.852   1.032   4.599
14068WAT     H242447   1.764   1.169   4.584
14069WAT      O42448   1.303   6.763   2.080
14069WAT     H142449   1.362   6.825   2.132
14069WAT     H242450   1.337   6.753   1.987
14070WAT      O42451   4.456   9.221   4.830
14070WAT     H142452   4.464   9.187   4.736
14070WAT     H242453   4.503   9.310   4.837
14071WAT      O42454   0.458   5.890   5.077
14071WAT     H142455   0.515   5.809   5.088
14071WAT     H242456   0.398   5.901   5.156
14072WAT      O42457   1.276   1.415   9.326
14072WAT     H142458   1.322   1.434   9.413
14072WAT     H242459   1.335   1.442   9.250
14073WAT      O42460   7.643   6.694   8.669
14073WAT     H142461   7.709   6.704   8.594
14073WAT     H242462   7.635   6.597   8.693
14074WAT      O42463   3.761   7.879   9.353
14074WAT     H142464   3.842   7.853   9.301
14074WAT     H242465   3.784   7.884   9.450
14075WAT      O42466   5.803   8.390   7.044
14075WAT     H142467   5.804   8.489   7.034
14075WAT     H242468   5.784   8.347   6.956
14076WAT      O42469   2.454   9.687   2.438
14076WAT     H142470   2.528   9.664   2.501
14076WAT     H242471   2.374   9.718   2.490
14077WAT      O42472   2.520   6.498   0.604
14077WAT     H142473   2.585   6.569   0.629
14077WAT     H242474   2.521   6.426   0.673
14078WAT      O42475   9.289   2.285   1.498
14078WAT     H142476   9.195   2.262   1.522
14078WAT     H242477   9.296   2.297   1.399
14079WAT      O42478   6.993   5.584   7.436
14079WAT     H142479   6.923   5.590   7.365
14079WAT     H242480   7.066   5.522   7.407
14080WAT      O42481   5.352   0.784   6.502
14080WAT     H142482   5.386   0.768   6.594
14080WAT     H242483   5.359   0.700   6.448
14081WAT      O42484   8.389   8.169   8.005
14081WAT     H142485   8.337   8.254   8.009
14081WAT     H242486   8.426   8.147   8.095
14082WAT      O42487   8.614   3.033   9.343
14082WAT     H142488   8.625   3.113   9.284
14082WAT     H242489   8.527   3.039   9.391
14083WAT      O42490   7.578   8.382   4.022
14083WAT     H142491   7.639   8.372   4.100
14083WAT     H242492   7.545   8.476   4.017
14084WAT      O42493   9.294   4.910   7.625
14084WAT     H142494   9.329   4.864   7.543
14084WAT     H242495   9.200   4.883   7.641
14085WAT      O42496   9.563   2.579   8.655
14085WAT     H142497   9.609   2.626   8.579
14085WAT     H242498   9.469   2.556   8.627
14086WAT      O42499   9.103   8.399   9.607
14086WAT     H142500   9.044   8.408   9.526
14086WAT     H242501   9.169   8.474   9.608
14087WAT      O42502   2.899   6.748   2.433
14087WAT     H142503   2.867   6.824   2.376
14087WAT     H242504   2.822   6.713   2.487
14088WAT      O42505   8.923   5.211   1.569
14088WAT     H142506   8.913   5.119   1.532
14088WAT     H242507   8.834   5.257   1.567
14089WAT      O42508   2.062   8.213   2.207
14089WAT     H142509   2.092   8.297   2.164
14089WAT     H242510   2.136   8.146   2.205
14090WAT      O42511   0.351   7.579   9.343
14090WAT     H142512   0.392   7.494   9.376
14090WAT     H242513   0.282   7.558   9.275
14091WAT      O42514   8.345   0.282   6.553
14091WAT     H142515   8.339   0.186   6.524
14091WAT     H242516   8.283   0.338   6.498
14092WAT      O42517   9.210   3.175   0.746
14092WAT     H142518   9.206   3.270   0.715
14092WAT     H242519   9.128   3.127   0.717
14093WAT      O42520   2.585   7.054   1.186
14093WAT     H142521   2.616   6.971   1.234
14093WAT     H242522   2.493   7.039   1.149
14094WAT      O42523   9.306   6.589   8.155
14094WAT     H142524   9.308   6.567   8.058
14094WAT     H242525   9.214   6.616   8.181
14095WAT      O42526   5.615   1.900   5.553
14095WAT     H142527   5.542   1.850   5.599
14095WAT     H242528   5.603   1.998   5.566
14096WAT      O42529   0.287   4.593   5.200
14096WAT     H142530   0.306   4.496   5.186
14096WAT     H242531   0.252   4.607   5.293
14097WAT      O42532   2.836   6.578   4.925
14097WAT     H142533   2.839   6.479   4.932
14097WAT     H242534   2.890   6.608   4.846
14098WAT      O42535   8.700   8.337   0.907
14098WAT     H142536   8.670   8.424   0.867
14098WAT     H242537   8.800   8.337   0.915
14099WAT      O42538   2.873   9.107   9.765
14099WAT     H142539   2.826   9.041   9.823
14099WAT     H242540   2.858   9.084   9.669
14100WAT      O42541   8.804   2.337   2.893
14100WAT     H142542   8.886   2.388   2.920
14100WAT     H242543   8.831   2.254   2.845
14101WAT      O42544   2.562   0.559   8.452
14101WAT     H142545   2.649   0.558   8.403
14101WAT     H242546   2.572   0.613   8.536
14102WAT      O42547   1.502   4.875   5.524
14102WAT     H142548   1.490   4.853   5.621
14102WAT     H242549   1.560   4.806   5.481
14103WAT      O42550   3.476   2.055   4.005
14103WAT     H142551   3.523   1.993   4.068
14103WAT     H242552   3.385   2.019   3.984
14104WAT      O42553   7.257   0.665   9.186
14104WAT     H142554   7.324   0.593   9.203
14104WAT     H242555   7.300   0.738   9.131
14105WAT      O42556   7.686   2.271   7.571
14105WAT     H142557   7.718   2.177   7.567
14105WAT     H242558   7.599   2.278   7.521
14106WAT      O42559   1.660   6.743   2.590
14106WAT     H142560   1.644   6.711   2.683
14106WAT     H242561   1.590   6.707   2.529
14107WAT      O42562   2.993   3.455   2.659
14107WAT     H142563   2.905   3.501   2.670
14107WAT     H242564   3.037   3.447   2.749
14108WAT      O42565   2.326   8.587   4.539
14108WAT     H142566   2.247   8.634   4.502
14108WAT     H242567   2.311   8.488   4.535
14109WAT      O42568   6.016   4.769   6.300
14109WAT     H142569   6.086   4.840   6.312
14109WAT     H242570   6.008   4.717   6.385
14110WAT      O42571   8.196   7.773   7.601
14110WAT     H142572   8.191   7.674   7.614
14110WAT     H242573   8.280   7.795   7.552
14111WAT      O42574   6.728   5.552   5.962
14111WAT     H142575   6.645   5.579   6.010
14111WAT     H242576   6.779   5.487   6.018
14112WAT      O42577   8.110   8.696   4.030
14112WAT     H142578   8.183   8.649   4.079
14112WAT     H242579   8.033   8.714   4.092
14113WAT      O42580   6.475   2.063   5.958
14113WAT     H142581   6.412   2.137   5.976
14113WAT     H242582   6.526   2.082   5.873
14114WAT      O42583   7.844   0.713   8.367
14114WAT     H142584   7.889   0.770   8.298
14114WAT     H242585   7.913   0.665   8.421
14115WAT      O42586   9.301   4.301   1.109
14115WAT     H142587   9.326   4.228   1.173
14115WAT     H242588   9.385   4.345   1.075
14116WAT      O42589   7.123   9.348   0.095
14116WAT     H142590   7.122   9.399   0.009
14116WAT     H242591   7.215   9.313   0.111
14117WAT      O42592   4.999   6.646   8.929
14117WAT     H142593   5.011   6.745   8.927
14117WAT     H242594   5.088   6.601   8.917
14118WAT      O42595   7.061   4.284   0.659
14118WAT     H142596   7.087   4.242   0.746
14118WAT     H242597   6.981   4.343   0.673
14119WAT      O42598   4.301   4.668   7.560
14119WAT     H142599   4.398   4.664   7.585
14119WAT     H242600   4.261   4.751   7.598
14120WAT      O42601   5.921   7.867   0.215
14120WAT     H142602   5.928   7.774   0.251
14120WAT     H242603   6.003   7.888   0.162
14121WAT      O42604   7.261   2.377   9.116
14121WAT     H142605   7.207   2.387   9.200
14121WAT     H242606   7.224   2.439   9.046
14122WAT      O42607   9.809   0.021   8.135
14122WAT     H142608   9.778   0.009   8.041
14122WAT     H242609   9.731   0.043   8.194
14123WAT      O42610   1.103   7.108   4.032
14123WAT     H142611   1.021   7.086   3.979
14123WAT     H242612   1.135   7.199   4.007
14124WAT      O42613   1.818   6.384   6.625
14124WAT     H142614   1.718   6.381   6.636
14124WAT     H242615   1.858   6.302   6.666
14125WAT      O42616   9.199   4.474   8.798
14125WAT     H142617   9.118   4.426   8.831
14125WAT     H242618   9.240   4.525   8.874
14126WAT      O42619   7.014   6.158   3.426
14126WAT     H142620   7.072   6.178   3.347
14126WAT     H242621   7.046   6.208   3.506
14127WAT      O42622   6.034   8.989   8.498
14127WAT     H142623   6.084   8.958   8.578
14127WAT     H242624   6.039   8.920   8.426
14128WAT      O42625   7.754   3.834   3.400
14128WAT     H142626   7.727   3.839   3.304
14128WAT     H242627   7.672   3.835   3.457
14129WAT      O42628   0.861   2.433   9.027
14129WAT     H142629   0.781   2.493   9.035
14129WAT     H242630   0.847   2.372   8.949
14130WAT      O42631   9.743   9.107   1.529
14130WAT     H142632   9.735   9.008   1.541
14130WAT     H242633   9.744   9.129   1.432
14131WAT      O42634   1.104   6.020   8.924
14131WAT     H142635   1.052   5.991   9.004
14131WAT     H242636   1.140   5.939   8.876
14132WAT      O42637   7.442   2.108   6.617
14132WAT     H142638   7.450   2.009   6.611
14132WAT     H242639   7.529   2.148   6.644
14133WAT      O42640   6.485   7.501   6.695
14133WAT     H142641   6.395   7.515   6.653
14133WAT     H242642   6.474   7.469   6.789
14134WAT      O42643   6.309   6.887   4.759
14134WAT     H142644   6.295   6.908   4.662
14134WAT     H242645   6.302   6.971   4.812
14135WAT      O42646   5.828   5.620   5.551
14135WAT     H142647   5.779   5.605   5.465
14135WAT     H242648   5.903   5.555   5.560
14136WAT      O42649   3.686   8.479   8.888
14136WAT     H142650   3.693   8.498   8.985
14136WAT     H242651   3.591   8.492   8.859
14137WAT      O42652   3.837   0.370   4.941
14137WAT     H142653   3.917   0.405   4.990
14137WAT     H242654   3.843   0.271   4.933
14138WAT      O42655   7.719   4.661   1.146
14138WAT     H142656   7.730   4.746   1.095
14138WAT     H242657   7.622   4.646   1.165
14139WAT      O42658   6.780   2.097   7.793
14139WAT     H142659   6.729   2.131   7.714
14139WAT     H242660   6.751   2.146   7.875
14140WAT      O42661   1.362   4.362   0.735
14140WAT     H142662   1.413   4.364   0.648
14140WAT     H242663   1.280   4.419   0.726
14141WAT      O42664   9.789   2.314   4.755
14141WAT     H142665   9.830   2.399   4.787
14141WAT     H242666   9.835   2.284   4.671
14142WAT      O42667   2.937   4.742   0.598
14142WAT     H142668   2.931   4.683   0.679
14142WAT     H242669   2.992   4.823   0.620
14143WAT      O42670   5.083   2.252   4.002
14143WAT     H142671   4.983   2.262   4.003
14143WAT     H242672   5.125   2.343   4.004
14144WAT      O42673   2.007   3.026   9.462
14144WAT     H142674   2.062   3.055   9.540
14144WAT     H242675   1.912   3.013   9.491
14145WAT      O42676   7.887   2.298   3.082
14145WAT     H142677   7.980   2.288   3.046
14145WAT     H242678   7.874   2.392   3.114
14146WAT      O42679   9.759   5.341   8.196
14146WAT     H142680   9.789   5.256   8.153
14146WAT     H242681   9.806   5.353   8.283
14147WAT      O42682   7.077   7.234   9.824
14147WAT     H142683   7.075   7.332   9.846
14147WAT     H242684   6.983   7.202   9.808
14148WAT      O42685   9.112   5.420   8.819
14148WAT     H142686   9.139   5.458   8.907
14148WAT     H242687   9.157   5.472   8.745
14149WAT      O42688   9.504   8.609   9.277
14149WAT     H142689   9.520   8.611   9.178
14149WAT     H242690   9.407   8.621   9.295
14150WAT      O42691   8.270   6.542   3.206
14150WAT     H142692   8.231   6.457   3.241
14150WAT     H242693   8.199   6.612   3.202
14151WAT      O42694   0.566   6.682   8.993
14151WAT     H142695   0.568   6.587   9.025
14151WAT     H242696   0.485   6.695   8.935
14152WAT      O42697   0.923   3.987   1.853
14152WAT     H142698   0.989   3.912   1.862
14152WAT     H242699   0.961   4.070   1.894
14153WAT      O42700   1.371   7.586   5.171
14153WAT     H142701   1.363   7.671   5.224
14153WAT     H242702   1.456   7.587   5.119
14154WAT      O42703   8.398   8.986   7.820
14154WAT     H142704   8.458   9.056   7.781
14154WAT     H242705   8.429   8.964   7.913
14155WAT      O42706   7.705   9.650   4.861
14155WAT     H142707   7.618   9.679   4.820
14155WAT     H242708   7.688   9.580   4.930
14156WAT      O42709   7.414   6.633   3.281
14156WAT     H142710   7.466   6.581   3.349
14156WAT     H242711   7.357   6.571   3.227
14157WAT      O42712   6.763   1.007   6.115
14157WAT     H142713   6.709   0.940   6.064
14157WAT     H242714   6.848   0.964   6.147
14158WAT      O42715   3.298   1.066   8.495
14158WAT     H142716   3.301   1.029   8.402
14158WAT     H242717   3.391   1.093   8.522
14159WAT      O42718   9.824   2.761   1.974
14159WAT     H142719   9.802   2.668   1.943
14159WAT     H242720   9.918   2.783   1.950
14160WAT      O42721   6.931   3.367   4.066
14160WAT     H142722   6.923   3.432   4.142
14160WAT     H242723   6.889   3.280   4.093
14161WAT      O42724   1.647   6.180   3.862
14161WAT     H142725   1.734   6.219   3.831
14161WAT     H242726   1.662   6.086   3.894
14162WAT      O42727   6.755   5.227   7.068
14162WAT     H142728   6.790   5.290   6.999
14162WAT     H242729   6.778   5.260   7.159
14163WAT      O42730   9.862   5.734   5.772
14163WAT     H142731   9.834   5.815   5.823
14163WAT     H242732   9.883   5.660   5.836
14164WAT      O42733   9.404   3.127   8.304
14164WAT     H142734   9.365   3.077   8.226
14164WAT     H242735   9.442   3.062   8.370
14165WAT      O42736   2.041   5.102   9.867
14165WAT     H142737   2.001   5.014   9.894
14165WAT     H242738   1.986   5.142   9.793
14166WAT      O42739   1.429   0.769   9.353
14166WAT     H142740   1.374   0.711   9.293
14166WAT     H242741   1.369   0.826   9.409
14167WAT      O42742   2.690   7.565   2.831
14167WAT     H142743   2.706   7.484   2.888
14167WAT     H242744   2.630   7.540   2.754
14168WAT      O42745   0.907   3.692   0.700
14168WAT     H142746   0.970   3.768   0.714
14168WAT     H242747   0.821   3.727   0.663
14169WAT      O42748   7.702   0.301   3.290
14169WAT     H142749   7.667   0.394   3.304
14169WAT     H242750   7.631   0.235   3.315
14170WAT      O42751   8.991   0.833   8.598
14170WAT     H142752   9.048   0.914   8.612
14170WAT     H242753   8.969   0.824   8.501
14171WAT      O42754   9.437   7.219   5.138
14171WAT     H142755   9.420   7.215   5.039
14171WAT     H242756   9.350   7.228   5.187
14172WAT      O42757   1.437   4.223   5.635
14172WAT     H142758   1.481   4.306   5.601
14172WAT     H242759   1.494   4.181   5.706
14173WAT      O42760   8.849   2.418   4.265
14173WAT     H142761   8.829   2.491   4.331
14173WAT     H242762   8.875   2.458   4.178
14174WAT      O42763   8.254   2.065   0.482
14174WAT     H142764   8.213   2.034   0.396
14174WAT     H242765   8.230   2.001   0.555
14175WAT      O42766   5.762   2.054   7.675
14175WAT     H142767   5.825   2.027   7.748
14175WAT     H242768   5.807   2.120   7.615
14176WAT      O42769   0.361   1.662   0.537
14176WAT     H142770   0.366   1.750   0.489
14176WAT     H242771   0.418   1.595   0.489
14177WAT      O42772   9.441   1.555   4.275
14177WAT     H142773   9.380   1.482   4.244
14177WAT     H242774   9.434   1.565   4.374
14178WAT      O42775   9.286   2.479   0.914
14178WAT     H142776   9.208   2.437   0.868
14178WAT     H242777   9.261   2.571   0.945
14179WAT      O42778   1.247   1.551   3.297
14179WAT     H142779   1.164   1.501   3.276
14179WAT     H242780   1.292   1.579   3.212
14180WAT      O42781   6.455   8.425   7.519
14180WAT     H142782   6.396   8.381   7.451
14180WAT     H242783   6.402   8.492   7.570
14181WAT      O42784   5.415   7.603   7.469
14181WAT     H142785   5.478   7.562   7.535
14181WAT     H242786   5.461   7.609   7.380
14182WAT      O42787   7.851   1.993   7.018
14182WAT     H142788   7.806   1.933   6.952
14182WAT     H242789   7.816   2.086   7.009
14183WAT      O42790   3.813   6.787   7.522
14183WAT     H142791   3.857   6.756   7.606
14183WAT     H242792   3.721   6.748   7.516
14184WAT      O42793   1.106   1.500   8.506
14184WAT     H142794   1.158   1.564   8.563
14184WAT     H242795   1.036   1.550   8.455
14185WAT      O42796   1.642   5.710   9.123
14185WAT     H142797   1.627   5.750   9.213
14185WAT     H242798   1.739   5.689   9.110
14186WAT      O42799   2.969   0.681   8.344
14186WAT     H142800   2.889   0.622   8.339
14186WAT     H242801   2.960   0.755   8.277
14187WAT      O42802   9.233   9.021   3.007
14187WAT     H142803   9.299   9.052   3.075
14187WAT     H242804   9.145   9.003   3.051
14188WAT      O42805   0.490   6.419   6.659
14188WAT     H142806   0.505   6.321   6.664
14188WAT     H242807   0.435   6.449   6.737
14189WAT      O42808   9.633   7.864   0.645
14189WAT     H142809   9.597   7.879   0.553
14189WAT     H242810   9.729   7.892   0.648
14190WAT      O42811   5.172   8.069   2.116
14190WAT     H142812   5.218   8.090   2.030
14190WAT     H242813   5.181   8.147   2.179
14191WAT      O42814   2.673   8.903   7.263
14191WAT     H142815   2.648   8.852   7.345
14191WAT     H242816   2.771   8.891   7.245
14192WAT      O42817   0.273   1.913   7.102
14192WAT     H142818   0.252   1.917   7.005
14192WAT     H242819   0.258   2.003   7.143
14193WAT      O42820   9.304   9.124   7.027
14193WAT     H142821   9.352   9.074   6.954
14193WAT     H242822   9.252   9.199   6.987
14194WAT      O42823   5.899   2.893   7.332
14194WAT     H142824   5.989   2.852   7.319
14194WAT     H242825   5.887   2.919   7.428
14195WAT      O42826   0.481   0.482   3.471
14195WAT     H142827   0.566   0.508   3.425
14195WAT     H242828   0.429   0.564   3.494
14196WAT      O42829   3.998   4.253   8.893
14196WAT     H142830   4.047   4.198   8.825
14196WAT     H242831   3.949   4.192   8.955
14197WAT      O42832   4.157   0.784   2.734
14197WAT     H142833   4.100   0.784   2.652
14197WAT     H242834   4.253   0.780   2.708
14198WAT      O42835   2.201   0.689   3.377
14198WAT     H142836   2.118   0.719   3.331
14198WAT     H242837   2.178   0.652   3.467
14199WAT      O42838   4.074   3.229   0.972
14199WAT     H142839   4.135   3.156   1.003
14199WAT     H242840   3.979   3.204   0.994
14200WAT      O42841   7.438   3.275   2.863
14200WAT     H142842   7.513   3.333   2.831
14200WAT     H242843   7.354   3.300   2.814
14201WAT      O42844   4.935   8.743   5.580
14201WAT     H142845   4.936   8.708   5.487
14201WAT     H242846   4.851   8.796   5.594
14202WAT      O42847   1.407   1.130   3.973
14202WAT     H142848   1.483   1.102   4.032
14202WAT     H242849   1.352   1.199   4.020
14203WAT      O42850   2.191   1.181   4.254
14203WAT     H142851   2.269   1.170   4.192
14203WAT     H242852   2.137   1.260   4.227
14204WAT      O42853   8.746   6.741   4.702
14204WAT     H142854   8.823   6.711   4.760
14204WAT     H242855   8.773   6.736   4.606
14205WAT      O42856   8.217   1.379   1.765
14205WAT     H142857   8.292   1.386   1.700
14205WAT     H242858   8.246   1.325   1.844
14206WAT      O42859   0.362   8.951   8.085
14206WAT     H142860   0.339   8.894   8.007
14206WAT     H242861   0.450   8.996   8.069
14207WAT      O42862   7.737   8.065   7.571
14207WAT     H142863   7.837   8.061   7.571
14207WAT     H242864   7.701   8.000   7.504
14208WAT      O42865   9.260   6.165   0.356
14208WAT     H142866   9.352   6.167   0.317
14208WAT     H242867   9.258   6.100   0.432
14209WAT      O42868   3.589   8.935   1.488
14209WAT     H142869   3.596   8.959   1.391
14209WAT     H242870   3.623   8.842   1.501
14210WAT      O42871   1.072   9.721   0.822
14210WAT     H142872   1.085   9.714   0.921
14210WAT     H242873   1.004   9.653   0.793
14211WAT      O42874   0.869   3.085   6.267
14211WAT     H142875   0.788   3.058   6.319
14211WAT     H242876   0.950   3.080   6.325
14212WAT      O42877   8.518   8.757   4.469
14212WAT     H142878   8.538   8.850   4.439
14212WAT     H242879   8.419   8.741   4.466
14213WAT      O42880   3.283   3.518   6.619
14213WAT     H142881   3.216   3.542   6.689
14213WAT     H242882   3.333   3.601   6.592
14214WAT      O42883   8.944   3.565   3.286
14214WAT     H142884   8.985   3.568   3.377
14214WAT     H242885   8.956   3.473   3.248
14215WAT      O42886   9.147   4.937   5.088
14215WAT     H142887   9.215   4.979   5.029
14215WAT     H242888   9.183   4.931   5.182
14216WAT      O42889   5.790   5.686   5.102
14216WAT     H142890   5.712   5.649   5.052
14216WAT     H242891   5.874   5.640   5.073
14217WAT      O42892   6.461   1.907   3.726
14217WAT     H142893   6.387   1.974   3.734
14217WAT     H242894   6.472   1.858   3.813
14218WAT      O42895   8.151   9.000   7.682
14218WAT     H142896   8.234   8.989   7.737
14218WAT     H242897   8.074   8.955   7.727
14219WAT      O42898   5.891   2.575   5.546
14219WAT     H142899   5.972   2.526   5.580
14219WAT     H242900   5.905   2.600   5.450
14220WAT      O42901   5.584   1.839   8.395
14220WAT     H142902   5.639   1.918   8.422
14220WAT     H242903   5.546   1.854   8.304
14221WAT      O42904   5.018   0.914   8.964
14221WAT     H142905   5.089   0.869   9.017
14221WAT     H242906   5.002   0.863   8.879
14222WAT      O42907   3.376   7.507   5.182
14222WAT     H142908   3.311   7.503   5.258
14222WAT     H242909   3.457   7.453   5.205
14223WAT      O42910   1.225   1.689   7.747
14223WAT     H142911   1.159   1.636   7.694
14223WAT     H242912   1.185   1.714   7.835
14224WAT      O42913   3.524   0.255   5.441
14224WAT     H142914   3.481   0.205   5.516
14224WAT     H242915   3.455   0.310   5.394
14225WAT      O42916   8.299   5.643   7.500
14225WAT     H142917   8.311   5.674   7.406
14225WAT     H242918   8.212   5.595   7.509
14226WAT      O42919   2.575   4.621   0.981
14226WAT     H142920   2.582   4.721   0.987
14226WAT     H242921   2.496   4.596   0.924
14227WAT      O42922   3.519   7.375   1.661
14227WAT     H142923   3.555   7.394   1.752
14227WAT     H242924   3.593   7.376   1.594
14228WAT      O42925   0.952   7.160   7.269
14228WAT     H142926   1.010   7.118   7.339
14228WAT     H242927   0.929   7.093   7.199
14229WAT      O42928   4.770   0.354   7.401
14229WAT     H142929   4.849   0.404   7.434
14229WAT     H242930   4.778   0.257   7.427
14230WAT      O42931   3.255   4.325   9.021
14230WAT     H142932   3.276   4.420   8.999
14230WAT     H242933   3.337   4.280   9.056
14231WAT      O42934   9.740   0.641   5.815
14231WAT     H142935   9.750   0.621   5.718
14231WAT     H242936   9.731   0.555   5.866
14232WAT      O42937   7.075   6.779   7.755
14232WAT     H142938   7.162   6.775   7.804
14232WAT     H242939   7.027   6.864   7.778
14233WAT      O42940   0.831   5.333   1.433
14233WAT     H142941   0.791   5.360   1.520
14233WAT     H242942   0.927   5.363   1.430
14234WAT      O42943   3.639   1.018   6.078
14234WAT     H142944   3.626   0.993   5.982
14234WAT     H242945   3.667   1.114   6.084
14235WAT      O42946   8.591   7.218   4.875
14235WAT     H142947   8.597   7.122   4.901
14235WAT     H242948   8.506   7.257   4.909
14236WAT      O42949   5.112   2.149   9.860
14236WAT     H142950   5.145   2.058   9.883
14236WAT     H242951   5.110   2.160   9.761
14237WAT      O42952   7.983   1.159   0.763
14237WAT     H142953   8.031   1.132   0.680
14237WAT     H242954   7.950   1.078   0.811
14238WAT      O42955   2.808   0.345   1.239
14238WAT     H142956   2.891   0.375   1.287
14238WAT     H242957   2.792   0.405   1.160
14239WAT      O42958   7.163   7.865   8.453
14239WAT     H142959   7.254   7.830   8.475
14239WAT     H242960   7.154   7.874   8.353
14240WAT      O42961   7.993   6.903   8.802
14240WAT     H142962   7.903   6.946   8.806
14240WAT     H242963   8.047   6.944   8.729
14241WAT      O42964   9.545   6.923   1.028
14241WAT     H142965   9.523   7.009   1.074
14241WAT     H242966   9.483   6.851   1.059
14242WAT      O42967   3.057   7.005   5.553
14242WAT     H142968   3.132   7.006   5.487
14242WAT     H242969   3.093   7.000   5.645
14243WAT      O42970   9.125   7.022   4.085
14243WAT     H142971   9.125   7.061   3.993
14243WAT     H242972   9.100   7.093   4.152
14244WAT      O42973   5.508   5.349   4.803
14244WAT     H142974   5.601   5.327   4.771
14244WAT     H242975   5.472   5.271   4.855
14245WAT      O42976   0.302   4.420   2.854
14245WAT     H142977   0.207   4.436   2.830
14245WAT     H242978   0.316   4.443   2.950
14246WAT      O42979   5.227   6.097   3.054
14246WAT     H142980   5.324   6.120   3.066
14246WAT     H242981   5.175   6.132   3.132
14247WAT      O42982   1.509   4.472   5.893
14247WAT     H142983   1.595   4.445   5.936
14247WAT     H242984   1.437   4.409   5.923
14248WAT      O42985   1.904   8.815   2.685
14248WAT     H142986   1.829   8.829   2.748
14248WAT     H242987   1.959   8.899   2.679
14249WAT      O42988   1.756   1.041   7.893
14249WAT     H142989   1.813   0.966   7.862
14249WAT     H242990   1.664   1.007   7.913
14250WAT      O42991   7.012   5.310   1.888
14250WAT     H142992   7.011   5.391   1.947
14250WAT     H242993   6.994   5.337   1.794
14251WAT      O42994   5.225   7.381   9.671
14251WAT     H142995   5.240   7.407   9.576
14251WAT     H242996   5.185   7.289   9.675
14252WAT      O42997   7.960   6.661   6.111
14252WAT     H142998   7.932   6.626   6.200
14252WAT     H242999   7.965   6.761   6.114
14253WAT      O43000   2.919   9.676   1.621
14253WAT     H143001   2.943   9.699   1.715
14253WAT     H243002   2.854   9.744   1.586
14254WAT      O43003   7.401   4.040   8.685
14254WAT     H143004   7.499   4.018   8.685
14254WAT     H243005   7.358   3.999   8.765
14255WAT      O43006   4.056   1.050   0.213
14255WAT     H143007   4.087   0.979   0.149
14255WAT     H243008   4.081   1.024   0.306
14256WAT      O43009   7.072   1.220   1.109
14256WAT     H143010   7.088   1.279   1.029
14256WAT     H243011   6.992   1.254   1.159
14257WAT      O43012   8.827   6.897   6.206
14257WAT     H143013   8.787   6.876   6.117
14257WAT     H243014   8.898   6.830   6.228
14258WAT      O43015   5.641   0.352   8.444
14258WAT     H143016   5.688   0.373   8.530
14258WAT     H243017   5.706   0.360   8.369
14259WAT      O43018   3.388   5.275   7.086
14259WAT     H143019   3.314   5.312   7.030
14259WAT     H243020   3.374   5.301   7.182
14260WAT      O43021   7.417   2.563   4.300
14260WAT     H143022   7.375   2.594   4.385
14260WAT     H243023   7.467   2.639   4.258
14261WAT      O43024   9.857   2.892   5.316
14261WAT     H143025   9.941   2.945   5.300
14261WAT     H243026   9.780   2.954   5.330
14262WAT      O43027   2.628   9.766   2.978
14262WAT     H143028   2.593   9.676   2.950
14262WAT     H243029   2.562   9.809   3.040
14263WAT      O43030   6.612   3.778   4.935
14263WAT     H143031   6.527   3.785   4.884
14263WAT     H243032   6.592   3.783   5.033
14264WAT      O43033   9.199   6.803   6.649
14264WAT     H143034   9.253   6.747   6.587
14264WAT     H243035   9.118   6.838   6.601
14265WAT      O43036   4.051   1.929   2.997
14265WAT     H143037   4.067   1.956   3.092
14265WAT     H243038   3.970   1.872   2.991
14266WAT      O43039   4.464   4.085   9.865
14266WAT     H143040   4.456   4.104   9.963
14266WAT     H243041   4.558   4.060   9.844
14267WAT      O43042   2.257   9.194   7.766
14267WAT     H143043   2.354   9.193   7.744
14267WAT     H243044   2.205   9.227   7.688
14268WAT      O43045   1.760   7.461   1.068
14268WAT     H143046   1.728   7.552   1.042
14268WAT     H243047   1.819   7.424   0.997
14269WAT      O43048   6.272   6.749   8.913
14269WAT     H143049   6.241   6.824   8.971
14269WAT     H243050   6.254   6.771   8.817
14270WAT      O43051   4.295   4.915   7.725
14270WAT     H143052   4.239   4.874   7.796
14270WAT     H243053   4.237   4.944   7.649
14271WAT      O43054   6.259   2.105   3.639
14271WAT     H143055   6.287   2.181   3.697
14271WAT     H243056   6.199   2.044   3.690
14272WAT      O43057   7.646   7.732   9.664
14272WAT     H143058   7.725   7.671   9.670
14272WAT     H243059   7.652   7.787   9.581
14273WAT      O43060   3.360   0.456   7.316
14273WAT     H143061   3.421   0.536   7.315
14273WAT     H243062   3.399   0.383   7.261
14274WAT      O43063   8.496   1.006   4.298
14274WAT     H143064   8.587   0.973   4.322
14274WAT     H243065   8.497   1.105   4.292
14275WAT      O43066   0.578   9.454   9.875
14275WAT     H143067   0.568   9.518   9.798
14275WAT     H243068   0.507   9.384   9.869
14276WAT      O43069   6.087   9.835   9.128
14276WAT     H143070   6.025   9.759   9.146
14276WAT     H243071   6.176   9.816   9.170
14277WAT      O43072   5.616   3.075   3.420
14277WAT     H143073   5.696   3.071   3.360
14277WAT     H243074   5.549   3.007   3.391
14278WAT      O43075   0.844   4.502   3.167
14278WAT     H143076   0.813   4.407   3.163
14278WAT     H243077   0.767   4.561   3.193
14279WAT      O43078   2.514   5.852   5.615
14279WAT     H143079   2.445   5.846   5.687
14279WAT     H243080   2.600   5.812   5.649
14280WAT      O43081   1.692   6.576   1.408
14280WAT     H143082   1.593   6.574   1.394
14280WAT     H243083   1.713   6.563   1.505
14281WAT      O43084   9.451   6.473   4.207
14281WAT     H143085   9.437   6.426   4.294
14281WAT     H243086   9.477   6.568   4.225
14282WAT      O43087   9.382   2.562   3.079
14282WAT     H143088   9.388   2.497   3.154
14282WAT     H243089   9.453   2.632   3.089
14283WAT      O43090   1.126   4.502   0.683
14283WAT     H143091   1.077   4.480   0.767
14283WAT     H243092   1.071   4.475   0.604
14284WAT      O43093   8.094   3.954   9.377
14284WAT     H143094   8.009   3.969   9.426
14284WAT     H243095   8.171   3.980   9.435
14285WAT      O43096   2.054   9.790   3.711
14285WAT     H143097   2.048   9.717   3.643
14285WAT     H243098   1.962   9.819   3.737
14286WAT      O43099   8.563   7.476   2.292
14286WAT     H143100   8.471   7.498   2.261
14286WAT     H243101   8.629   7.516   2.228
14287WAT      O43102   9.200   5.739   4.514
14287WAT     H143103   9.246   5.772   4.432
14287WAT     H243104   9.123   5.681   4.488
14288WAT      O43105   2.194   8.961   0.241
14288WAT     H143106   2.284   8.941   0.280
14288WAT     H243107   2.163   8.883   0.187
14289WAT      O43108   4.648   2.061   5.499
14289WAT     H143109   4.601   2.132   5.447
14289WAT     H243110   4.679   2.099   5.587
14290WAT      O43111   2.628   7.417   6.540
14290WAT     H143112   2.673   7.366   6.613
14290WAT     H243113   2.557   7.360   6.499
14291WAT      O43114   7.470   7.497   1.949
14291WAT     H143115   7.422   7.424   1.900
14291WAT     H243116   7.526   7.458   2.022
14292WAT      O43117   7.562   4.529   7.231
14292WAT     H143118   7.562   4.513   7.132
14292WAT     H243119   7.621   4.607   7.252
14293WAT      O43120   4.854   1.400   0.638
14293WAT     H143121   4.901   1.459   0.573
14293WAT     H243122   4.782   1.451   0.684
14294WAT      O43123   0.379   4.269   0.151
14294WAT     H143124   0.362   4.304   0.059
14294WAT     H243125   0.459   4.316   0.190
14295WAT      O43126   7.150   5.038   0.355
14295WAT     H143127   7.247   5.060   0.354
14295WAT     H243128   7.102   5.094   0.288
14296WAT      O43129   8.868   2.917   8.876
14296WAT     H143130   8.867   3.006   8.831
14296WAT     H243131   8.911   2.850   8.815
14297WAT      O43132   2.611   4.550   3.381
14297WAT     H143133   2.672   4.508   3.447
14297WAT     H243134   2.623   4.650   3.382
14298WAT      O43135   4.423   0.565   6.099
14298WAT     H143136   4.482   0.620   6.158
14298WAT     H243137   4.343   0.619   6.072
14299WAT      O43138   9.185   3.923   9.673
14299WAT     H143139   9.254   3.869   9.624
14299WAT     H243140   9.218   3.942   9.765
14300WAT      O43141   4.971   0.796   8.712
14300WAT     H143142   4.884   0.839   8.691
14300WAT     H243143   5.027   0.791   8.629
14301WAT      O43144   7.217   7.448   5.685
14301WAT     H143145   7.215   7.537   5.640
14301WAT     H243146   7.123   7.414   5.697
14302WAT      O43147   1.252   1.670   6.185
14302WAT     H143148   1.285   1.746   6.242
14302WAT     H243149   1.152   1.666   6.190
14303WAT      O43150   1.533   5.471   8.221
14303WAT     H143151   1.605   5.449   8.155
14303WAT     H243152   1.504   5.566   8.210
14304WAT      O43153   7.288   4.195   7.461
14304WAT     H143154   7.251   4.245   7.539
14304WAT     H243155   7.369   4.144   7.489
14305WAT      O43156   0.429   0.638   5.088
14305WAT     H143157   0.371   0.663   5.165
14305WAT     H243158   0.478   0.719   5.055
14306WAT      O43159   1.059   4.689   8.329
14306WAT     H143160   1.063   4.625   8.252
14306WAT     H243161   0.972   4.737   8.328
14307WAT      O43162   4.415   4.335   8.386
14307WAT     H143163   4.335   4.343   8.327
14307WAT     H243164   4.496   4.317   8.331
14308WAT      O43165   1.483   8.757   3.003
14308WAT     H143166   1.461   8.770   3.100
14308WAT     H243167   1.399   8.749   2.951
14309WAT      O43168   2.574   5.519   9.407
14309WAT     H143169   2.596   5.597   9.466
14309WAT     H243170   2.659   5.474   9.379
14310WAT      O43171   1.293   1.482   4.886
14310WAT     H143172   1.370   1.418   4.882
14310WAT     H243173   1.326   1.572   4.913
14311WAT      O43174   1.442   6.007   0.816
14311WAT     H143175   1.415   5.968   0.904
14311WAT     H243176   1.410   5.947   0.742
14312WAT      O43177   7.225   2.144   9.027
14312WAT     H143178   7.137   2.112   9.063
14312WAT     H243179   7.241   2.238   9.057
14313WAT      O43180   4.256   4.716   9.205
14313WAT     H143181   4.214   4.647   9.146
14313WAT     H243182   4.202   4.800   9.202
14314WAT      O43183   3.973   1.787   0.483
14314WAT     H143184   3.926   1.865   0.443
14314WAT     H243185   4.039   1.750   0.417
14315WAT      O43186   8.142   6.067   7.654
14315WAT     H143187   8.063   6.116   7.693
14315WAT     H243188   8.161   5.986   7.710
14316WAT      O43189   1.930   1.434   7.158
14316WAT     H143190   1.857   1.402   7.218
14316WAT     H243191   1.929   1.381   7.073
14317WAT      O43192   5.329   9.496   1.100
14317WAT     H143193   5.268   9.554   1.046
14317WAT     H243194   5.276   9.443   1.166
14318WAT      O43195   5.538   8.403   9.309
14318WAT     H143196   5.463   8.398   9.244
14318WAT     H243197   5.596   8.322   9.300
14319WAT      O43198   8.774   7.650   3.741
14319WAT     H143199   8.697   7.687   3.690
14319WAT     H243200   8.834   7.599   3.679
14320WAT      O43201   6.543   2.571   5.185
14320WAT     H143202   6.604   2.649   5.173
14320WAT     H243203   6.453   2.592   5.147
14321WAT      O43204   2.924   0.705   1.222
14321WAT     H143205   2.846   0.703   1.159
14321WAT     H243206   2.936   0.613   1.261
14322WAT      O43207   9.626   7.151   2.233
14322WAT     H143208   9.561   7.091   2.281
14322WAT     H243209   9.711   7.102   2.217
14323WAT      O43210   8.761   4.993   0.622
14323WAT     H143211   8.759   4.993   0.522
14323WAT     H243212   8.687   4.935   0.656
14324WAT      O43213   2.124   0.042   1.529
14324WAT     H143214   2.054   0.107   1.558
14324WAT     H243215   2.089  -0.051   1.540
14325WAT      O43216   9.771   3.762   2.835
14325WAT     H143217   9.823   3.842   2.864
14325WAT     H243218   9.832   3.683   2.828
14326WAT      O43219   0.362   2.845   8.897
14326WAT     H143220   0.404   2.807   8.980
14326WAT     H243221   0.343   2.771   8.833
14327WAT      O43222   4.455   5.695   3.719
14327WAT     H143223   4.528   5.720   3.656
14327WAT     H243224   4.491   5.690   3.812
14328WAT      O43225   3.291   0.347   6.523
14328WAT     H143226   3.227   0.297   6.465
14328WAT     H243227   3.383   0.311   6.509
14329WAT      O43228   9.098   4.477   7.164
14329WAT     H143229   9.084   4.572   7.135
14329WAT     H243230   9.062   4.466   7.257
14330WAT      O43231   7.965   3.577   9.429
14330WAT     H143232   7.898   3.531   9.370
14330WAT     H243233   8.038   3.615   9.372
14331WAT      O43234   1.554   3.344   2.783
14331WAT     H143235   1.551   3.379   2.690
14331WAT     H243236   1.644   3.363   2.823
14332WAT      O43237   7.116   5.703   5.009
14332WAT     H143238   7.150   5.693   4.916
14332WAT     H243239   7.021   5.673   5.013
14333WAT      O43240   4.785   1.905   0.160
14333WAT     H143241   4.874   1.892   0.118
14333WAT     H243242   4.752   1.998   0.140
14334WAT      O43243   9.443   5.612   6.043
14334WAT     H143244   9.441   5.575   6.136
14334WAT     H243245   9.496   5.551   5.984
14335WAT      O43246   9.109   4.741   8.188
14335WAT     H143247   9.153   4.826   8.156
14335WAT     H243248   9.130   4.727   8.285
14336WAT      O43249   3.124   7.158   4.956
14336WAT     H143250   3.111   7.083   5.022
14336WAT     H243251   3.074   7.136   4.872
14337WAT      O43252   6.025   5.420   0.683
14337WAT     H143253   5.956   5.488   0.658
14337WAT     H243254   5.985   5.355   0.747
14338WAT      O43255   2.697   9.425   1.123
14338WAT     H143256   2.615   9.476   1.149
14338WAT     H243257   2.742   9.390   1.205
14339WAT      O43258   5.253   1.806   0.369
14339WAT     H143259   5.235   1.835   0.463
14339WAT     H243260   5.347   1.774   0.361
14340WAT      O43261   0.544   2.309   0.655
14340WAT     H143262   0.590   2.313   0.744
14340WAT     H243263   0.584   2.236   0.600
14341WAT      O43264   4.643   1.127   9.531
14341WAT     H143265   4.657   1.136   9.432
14341WAT     H243266   4.598   1.209   9.566
14342WAT      O43267   6.097   4.578   0.628
14342WAT     H143268   5.999   4.576   0.609
14342WAT     H243269   6.136   4.487   0.614
14343WAT      O43270   7.287   4.889   2.795
14343WAT     H143271   7.211   4.824   2.794
14343WAT     H243272   7.287   4.940   2.709
14344WAT      O43273   1.294   3.231   4.860
14344WAT     H143274   1.289   3.161   4.930
14344WAT     H243275   1.218   3.220   4.796
14345WAT      O43276   1.406   0.302   3.954
14345WAT     H143277   1.335   0.303   3.884
14345WAT     H243278   1.374   0.249   4.033
14346WAT      O43279   1.199   6.773   5.622
14346WAT     H143280   1.254   6.709   5.675
14346WAT     H243281   1.105   6.774   5.657
14347WAT      O43282   0.097   1.327   5.274
14347WAT     H143283   0.039   1.406   5.253
14347WAT     H243284   0.193   1.353   5.266
14348WAT      O43285   8.386   0.925   3.724
14348WAT     H143286   8.439   0.855   3.771
14348WAT     H243287   8.318   0.963   3.787
14349WAT      O43288   5.246   7.982   2.913
14349WAT     H143289   5.243   8.066   2.860
14349WAT     H243290   5.218   7.905   2.856
14350WAT      O43291   8.922   2.791   0.082
14350WAT     H143292   8.997   2.725   0.082
14350WAT     H243293   8.871   2.783   0.168
14351WAT      O43294   0.169   2.431   4.218
14351WAT     H143295   0.141   2.343   4.179
14351WAT     H243296   0.098   2.464   4.281
14352WAT      O43297   8.111   9.251   2.056
14352WAT     H143298   8.109   9.325   2.123
14352WAT     H243299   8.021   9.241   2.014
14353WAT      O43300   2.354   1.142   5.867
14353WAT     H143301   2.350   1.131   5.768
14353WAT     H243302   2.263   1.166   5.902
14354WAT      O43303   4.430   5.384   7.685
14354WAT     H143304   4.343   5.427   7.663
14354WAT     H243305   4.414   5.295   7.728
14355WAT      O43306   4.060   7.941   6.222
14355WAT     H143307   4.144   7.996   6.222
14355WAT     H243308   4.070   7.865   6.158
14356WAT      O43309   1.593   6.784   3.801
14356WAT     H143310   1.533   6.773   3.881
14356WAT     H243311   1.656   6.859   3.817
14357WAT      O43312   1.917   4.671   7.080
14357WAT     H143313   1.972   4.726   7.017
14357WAT     H243314   1.851   4.616   7.028
14358WAT      O43315   6.845   6.617   5.796
14358WAT     H143316   6.773   6.686   5.799
14358WAT     H243317   6.920   6.650   5.738
14359WAT      O43318   9.078   1.555   8.966
14359WAT     H143319   9.002   1.498   8.997
14359WAT     H243320   9.070   1.646   9.009
14360WAT      O43321   4.449   0.921   7.586
14360WAT     H143322   4.380   0.993   7.573
14360WAT     H243323   4.531   0.945   7.534
14361WAT      O43324   5.013   3.851   1.220
14361WAT     H143325   4.958   3.797   1.283
14361WAT     H243326   4.962   3.864   1.134
14362WAT      O43327   6.974   5.985   4.509
14362WAT     H143328   6.928   5.966   4.422
14362WAT     H243329   6.910   5.973   4.585
14363WAT      O43330   6.492   0.392   5.820
14363WAT     H143331   6.569   0.328   5.814
14363WAT     H243332   6.426   0.372   5.748
14364WAT      O43333   4.288   9.468   4.136
14364WAT     H143334   4.385   9.444   4.131
14364WAT     H243335   4.237   9.394   4.180
14365WAT      O43336   0.566   6.574   6.440
14365WAT     H143337   0.501   6.651   6.437
14365WAT     H243338   0.542   6.513   6.516
14366WAT      O43339   5.760   2.388   0.315
14366WAT     H143340   5.714   2.375   0.227
14366WAT     H243341   5.830   2.317   0.327
14367WAT      O43342   2.313   8.019   7.910
14367WAT     H143343   2.246   8.056   7.845
14367WAT     H243344   2.327   8.085   7.984
14368WAT      O43345   2.963   0.907   9.218
14368WAT     H143346   2.971   0.931   9.121
14368WAT     H243347   2.874   0.937   9.252
14369WAT      O43348   8.965   7.496   9.006
14369WAT     H143349   8.913   7.436   8.945
14369WAT     H243350   9.034   7.443   9.054
14370WAT      O43351   7.319   1.414   7.075
14370WAT     H143352   7.359   1.471   7.146
14370WAT     H243353   7.222   1.434   7.067
14371WAT      O43354   6.385   5.018   4.582
14371WAT     H143355   6.314   5.085   4.601
14371WAT     H243356   6.465   5.036   4.640
14372WAT      O43357   6.117   2.409   3.950
14372WAT     H143358   6.175   2.351   3.893
14372WAT     H243359   6.049   2.353   3.997
14373WAT      O43360   8.223   2.563   0.462
14373WAT     H143361   8.186   2.475   0.492
14373WAT     H243362   8.301   2.547   0.402
14374WAT      O43363   7.417   4.630   8.514
14374WAT     H143364   7.477   4.660   8.588
14374WAT     H243365   7.324   4.620   8.549
14375WAT      O43366   3.104   3.241   1.858
14375WAT     H143367   3.132   3.202   1.946
14375WAT     H243368   3.004   3.250   1.856
14376WAT      O43369   5.617   3.870   0.915
14376WAT     H143370   5.659   3.956   0.887
14376WAT     H243371   5.578   3.881   1.007
14377WAT      O43372   1.909   5.489   5.434
14377WAT     H143373   1.848   5.479   5.512
14377WAT     H243374   1.936   5.585   5.424
14378WAT      O43375   7.788   5.738   5.000
14378WAT     H143376   7.781   5.724   4.901
14378WAT     H243377   7.861   5.804   5.019
14379WAT      O43378   9.515   2.312   3.944
14379WAT     H143379   9.516   2.232   3.884
14379WAT     H243380   9.450   2.379   3.908
14380WAT      O43381   6.232   5.273   8.126
14380WAT     H143382   6.214   5.273   8.224
14380WAT     H243383   6.321   5.317   8.109
14381WAT      O43384   5.512   0.113   5.308
14381WAT     H143385   5.538   0.171   5.231
14381WAT     H243386   5.462   0.033   5.274
14382WAT      O43387   4.995   4.053   2.269
14382WAT     H143388   4.945   4.140   2.277
14382WAT     H243389   5.024   4.023   2.360
14383WAT      O43390   6.560   9.716   9.587
14383WAT     H143391   6.472   9.763   9.579
14383WAT     H243392   6.634   9.777   9.562
14384WAT      O43393   2.300   6.969   2.093
14384WAT     H143394   2.388   6.925   2.075
14384WAT     H243395   2.282   6.966   2.192
14385WAT      O43396   6.128   7.775   0.985
14385WAT     H143397   6.051   7.825   1.026
14385WAT     H243398   6.114   7.677   0.996
14386WAT      O43399   5.228   3.481   4.716
14386WAT     H143400   5.212   3.384   4.698
14386WAT     H243401   5.324   3.502   4.699
14387WAT      O43402   7.422   1.304   1.952
14387WAT     H143403   7.480   1.323   2.031
14387WAT     H243404   7.461   1.346   1.870
14388WAT      O43405   5.947   3.330   3.160
14388WAT     H143406   5.859   3.349   3.115
14388WAT     H243407   5.936   3.337   3.259
14389WAT      O43408   8.391   9.719   1.663
14389WAT     H143409   8.317   9.779   1.693
14389WAT     H243410   8.465   9.774   1.624
14390WAT      O43411   1.711   5.250   8.118
14390WAT     H143412   1.736   5.154   8.128
14390WAT     H243413   1.792   5.303   8.095
14391WAT      O43414   5.401   0.128   0.887
14391WAT     H143415   5.421   0.177   0.972
14391WAT     H243416   5.302   0.124   0.873
14392WAT      O43417   3.402   9.012   6.853
14392WAT     H143418   3.435   8.919   6.836
14392WAT     H243419   3.368   9.051   6.767
14393WAT      O43420   0.316   7.589   3.266
14393WAT     H143421   0.258   7.545   3.334
14393WAT     H243422   0.403   7.540   3.259
14394WAT      O43423   7.818   5.517   1.074
14394WAT     H143424   7.876   5.478   1.003
14394WAT     H243425   7.853   5.490   1.164
14395WAT      O43426   0.781   8.157   5.418
14395WAT     H143427   0.770   8.070   5.370
14395WAT     H243428   0.813   8.227   5.353
14396WAT      O43429   3.095   2.115   0.827
14396WAT     H143430   3.159   2.166   0.885
14396WAT     H243431   3.073   2.170   0.746
14397WAT      O43432   8.511   0.241   2.753
14397WAT     H143433   8.423   0.193   2.760
14397WAT     H243434   8.543   0.238   2.659
14398WAT      O43435   7.341   2.877   8.154
14398WAT     H143436   7.425   2.908   8.198
14398WAT     H243437   7.323   2.782   8.179
14399WAT      O43438   8.083   1.397   3.632
14399WAT     H143439   8.020   1.457   3.583
14399WAT     H243440   8.175   1.434   3.628
14400WAT      O43441   3.131   3.571   2.439
14400WAT     H143442   3.075   3.514   2.499
14400WAT     H243443   3.228   3.557   2.459
14401WAT      O43444   9.244   1.031   8.917
14401WAT     H143445   9.321   1.021   8.980
14401WAT     H243446   9.200   0.942   8.904
14402WAT      O43447   3.616   2.509   5.829
14402WAT     H143448   3.560   2.591   5.818
14402WAT     H243449   3.634   2.468   5.739
14403WAT      O43450   5.000   7.421   1.181
14403WAT     H143451   4.919   7.434   1.239
14403WAT     H243452   5.007   7.325   1.155
14404WAT      O43453   5.116   8.856   1.242
14404WAT     H143454   5.144   8.860   1.146
14404WAT     H243455   5.169   8.786   1.289
14405WAT      O43456   5.383   9.246   6.333
14405WAT     H143457   5.312   9.179   6.355
14405WAT     H243458   5.471   9.200   6.326
14406WAT      O43459   9.394   0.181   7.133
14406WAT     H143460   9.362   0.096   7.092
14406WAT     H243461   9.460   0.160   7.206
14407WAT      O43462   5.900   2.806   4.473
14407WAT     H143463   5.844   2.737   4.520
14407WAT     H243464   5.849   2.842   4.395
14408WAT      O43465   7.728   4.878   2.201
14408WAT     H143466   7.720   4.792   2.252
14408WAT     H243467   7.823   4.894   2.177
14409WAT      O43468   2.651   4.537   2.007
14409WAT     H143469   2.713   4.492   2.072
14409WAT     H243470   2.703   4.601   1.951
14410WAT      O43471   0.022   5.796   8.058
14410WAT     H143472   0.027   5.704   8.096
14410WAT     H243473   0.069   5.859   8.118
14411WAT      O43474   1.949   4.190   5.065
14411WAT     H143475   1.886   4.128   5.111
14411WAT     H243476   1.924   4.285   5.088
14412WAT      O43477   8.706   6.859   5.806
14412WAT     H143478   8.669   6.815   5.887
14412WAT     H243479   8.666   6.818   5.724
14413WAT      O43480   8.982   1.520   5.827
14413WAT     H143481   8.963   1.617   5.840
14413WAT     H243482   9.075   1.500   5.856
14414WAT      O43483   1.425   1.332   8.798
14414WAT     H143484   1.517   1.309   8.767
14414WAT     H243485   1.361   1.325   8.722
14415WAT      O43486   5.614   2.623   0.372
14415WAT     H143487   5.665   2.541   0.347
14415WAT     H243488   5.516   2.601   0.378
14416WAT      O43489   4.084   8.904   3.136
14416WAT     H143490   4.035   8.967   3.197
14416WAT     H243491   4.086   8.941   3.044
14417WAT      O43492   0.841   1.445   1.650
14417WAT     H143493   0.805   1.353   1.634
14417WAT     H243494   0.769   1.502   1.689
14418WAT      O43495   8.587   7.992   5.240
14418WAT     H143496   8.500   7.947   5.263
14418WAT     H243497   8.569   8.072   5.184
14419WAT      O43498   1.420   8.281   5.622
14419WAT     H143499   1.415   8.356   5.556
14419WAT     H243500   1.328   8.246   5.640
14420WAT      O43501   4.355   4.263   1.746
14420WAT     H143502   4.364   4.171   1.785
14420WAT     H243503   4.422   4.275   1.673
14421WAT      O43504   0.027   5.137   8.034
14421WAT     H143505   0.033   5.105   8.128
14421WAT     H243506  -0.051   5.093   7.989
14422WAT      O43507   8.180   4.607   4.362
14422WAT     H143508   8.175   4.513   4.395
14422WAT     H243509   8.094   4.654   4.383
14423WAT      O43510   6.665   8.871   2.837
14423WAT     H143511   6.693   8.939   2.904
14423WAT     H243512   6.670   8.910   2.745
14424WAT      O43513   3.025   2.210   0.502
14424WAT     H143514   3.046   2.285   0.440
14424WAT     H243515   3.089   2.135   0.487
14425WAT      O43516   7.513   8.843   1.453
14425WAT     H143517   7.497   8.744   1.455
14425WAT     H243518   7.571   8.866   1.374
14426WAT      O43519   9.259   3.042   3.502
14426WAT     H143520   9.231   3.109   3.571
14426WAT     H243521   9.188   2.973   3.491
14427WAT      O43522   8.366   2.935   8.751
14427WAT     H143523   8.419   2.893   8.678
14427WAT     H243524   8.332   3.024   8.721
14428WAT      O43525   8.233   2.601   5.127
14428WAT     H143526   8.199   2.557   5.210
14428WAT     H243527   8.311   2.549   5.091
14429WAT      O43528   8.777   9.372   3.074
14429WAT     H143529   8.789   9.325   2.987
14429WAT     H243530   8.832   9.328   3.144
14430WAT      O43531   4.308   8.623   5.689
14430WAT     H143532   4.322   8.625   5.788
14430WAT     H243533   4.396   8.608   5.643
14431WAT      O43534   2.122   0.669   8.262
14431WAT     H143535   2.174   0.742   8.217
14431WAT     H243536   2.029   0.700   8.279
14432WAT      O43537   3.239   3.106   8.257
14432WAT     H143538   3.266   3.175   8.323
14432WAT     H243539   3.216   3.021   8.304
14433WAT      O43540   8.630   8.467   9.187
14433WAT     H143541   8.590   8.412   9.113
14433WAT     H243542   8.677   8.407   9.251
14434WAT      O43543   5.268   3.880   3.821
14434WAT     H143544   5.364   3.903   3.832
14434WAT     H243545   5.251   3.846   3.729
14435WAT      O43546   7.245   9.318   8.418
14435WAT     H143547   7.154   9.278   8.407
14435WAT     H243548   7.269   9.319   8.515
14436WAT      O43549   9.333   5.815   4.313
14436WAT     H143550   9.305   5.847   4.223
14436WAT     H243551   9.416   5.761   4.305
14437WAT      O43552   3.912   9.502   5.030
14437WAT     H143553   3.870   9.516   5.120
14437WAT     H243554   3.939   9.406   5.021
14438WAT      O43555   3.257   6.117   6.656
14438WAT     H143556   3.233   6.075   6.568
14438WAT     H243557   3.265   6.216   6.644
14439WAT      O43558   0.240   6.296   2.291
14439WAT     H143559   0.185   6.212   2.293
14439WAT     H243560   0.262   6.324   2.384
14440WAT      O43561   5.182   3.327   6.585
14440WAT     H143562   5.276   3.358   6.571
14440WAT     H243563   5.174   3.282   6.674
14441WAT      O43564   4.790   0.770   9.877
14441WAT     H143565   4.699   0.750   9.912
14441WAT     H243566   4.783   0.809   9.785
14442WAT      O43567   2.659   0.025   9.068
14442WAT     H143568   2.646  -0.071   9.094
14442WAT     H243569   2.571   0.066   9.046
14443WAT      O43570   3.357   4.495   9.611
14443WAT     H143571   3.353   4.512   9.513
14443WAT     H243572   3.380   4.580   9.658
14444WAT      O43573   1.160   5.232   3.775
14444WAT     H143574   1.133   5.138   3.756
14444WAT     H243575   1.260   5.237   3.783
14445WAT      O43576   8.817   7.289   3.331
14445WAT     H143577   8.855   7.211   3.281
14445WAT     H243578   8.718   7.294   3.314
14446WAT      O43579   4.475   7.479   5.944
14446WAT     H143580   4.527   7.533   5.877
14446WAT     H243581   4.415   7.540   5.996
14447WAT      O43582   8.260   2.942   5.332
14447WAT     H143583   8.169   2.900   5.336
14447WAT     H243584   8.251   3.037   5.304
14448WAT      O43585   1.990   0.016   8.648
14448WAT     H143586   1.905   0.063   8.672
14448WAT     H243587   1.969  -0.074   8.609
14449WAT      O43588   9.405   4.553   1.850
14449WAT     H143589   9.443   4.597   1.932
14449WAT     H243590   9.440   4.600   1.768
14450WAT      O43591   7.903   7.559   0.722
14450WAT     H143592   7.818   7.591   0.763
14450WAT     H243593   7.940   7.483   0.776
14451WAT      O43594   8.956   3.390   0.017
14451WAT     H143595   8.973   3.455   0.091
14451WAT     H243596   8.998   3.302   0.039
14452WAT      O43597   6.328   1.114   2.738
14452WAT     H143598   6.361   1.159   2.655
14452WAT     H243599   6.230   1.097   2.730
14453WAT      O43600   6.023   7.316   9.658
14453WAT     H143601   6.085   7.265   9.599
14453WAT     H243602   6.019   7.411   9.627
14454WAT      O43603   3.650   8.428   3.284
14454WAT     H143604   3.555   8.460   3.280
14454WAT     H243605   3.686   8.419   3.192
14455WAT      O43606   8.260   6.399   6.676
14455WAT     H143607   8.195   6.474   6.662
14455WAT     H243608   8.220   6.314   6.641
14456WAT      O43609   9.318   4.615   6.252
14456WAT     H143610   9.347   4.536   6.305
14456WAT     H243611   9.312   4.695   6.312
14457WAT      O43612   1.995   7.438   2.445
14457WAT     H143613   2.063   7.413   2.375
14457WAT     H243614   1.971   7.534   2.434
14458WAT      O43615   6.777   8.336   8.669
14458WAT     H143616   6.870   8.374   8.664
14458WAT     H243617   6.720   8.394   8.726
14459WAT      O43618   2.021   3.265   7.519
14459WAT     H143619   1.994   3.359   7.539
14459WAT     H243620   2.110   3.265   7.474
14460WAT      O43621   1.619   9.354   0.883
14460WAT     H143622   1.599   9.267   0.838
14460WAT     H243623   1.718   9.368   0.885
14461WAT      O43624   3.234   5.709   1.417
14461WAT     H143625   3.242   5.805   1.390
14461WAT     H243626   3.319   5.661   1.397
14462WAT      O43627   8.380   2.846   3.578
14462WAT     H143628   8.361   2.815   3.671
14462WAT     H243629   8.359   2.943   3.571
14463WAT      O43630   3.530   8.466   4.173
14463WAT     H143631   3.458   8.505   4.115
14463WAT     H243632   3.593   8.538   4.201
14464WAT      O43633   5.962   3.190   6.693
14464WAT     H143634   6.027   3.245   6.745
14464WAT     H243635   5.938   3.238   6.608
14465WAT      O43636   5.872   8.748   9.595
14465WAT     H143637   5.844   8.700   9.679
14465WAT     H243638   5.809   8.824   9.577
14466WAT      O43639   2.711   3.026   5.696
14466WAT     H143640   2.629   3.055   5.744
14466WAT     H243641   2.770   3.105   5.679
14467WAT      O43642   3.443   3.018   0.806
14467WAT     H143643   3.465   2.975   0.719
14467WAT     H243644   3.494   2.974   0.880
14468WAT      O43645   3.194   8.950   0.703
14468WAT     H143646   3.115   8.963   0.763
14468WAT     H243647   3.171   8.980   0.610
14469WAT      O43648   3.239   1.198   7.525
14469WAT     H143649   3.307   1.173   7.455
14469WAT     H243650   3.282   1.192   7.616
14470WAT      O43651   3.604   5.309   7.864
14470WAT     H143652   3.700   5.284   7.880
14470WAT     H243653   3.592   5.407   7.882
14471WAT      O43654   8.973   1.827   1.968
14471WAT     H143655   8.931   1.903   1.920
14471WAT     H243656   8.910   1.749   1.970
14472WAT      O43657   7.359   4.811   1.430
14472WAT     H143658   7.395   4.876   1.363
14472WAT     H243659   7.260   4.806   1.422
14473WAT      O43660   7.373   9.538   2.817
14473WAT     H143661   7.470   9.563   2.818
14473WAT     H243662   7.320   9.613   2.858
14474WAT      O43663   3.657   7.058   5.763
14474WAT     H143664   3.689   7.034   5.854
14474WAT     H243665   3.599   6.985   5.727
14475WAT      O43666   0.380   0.078   7.051
14475WAT     H143667   0.282   0.071   7.035
14475WAT     H243668   0.430   0.048   6.970
14476WAT      O43669   9.261   0.393   8.226
14476WAT     H143670   9.346   0.446   8.219
14476WAT     H243671   9.242   0.372   8.322
14477WAT      O43672   4.881   1.644   3.026
14477WAT     H143673   4.925   1.654   3.115
14477WAT     H243674   4.808   1.712   3.017
14478WAT      O43675   5.623   7.438   8.375
14478WAT     H143676   5.530   7.469   8.393
14478WAT     H243677   5.622   7.369   8.303
14479WAT      O43678   0.686   5.825   9.750
14479WAT     H143679   0.631   5.823   9.666
14479WAT     H243680   0.647   5.893   9.812
14480WAT      O43681   1.881   6.429   8.992
14480WAT     H143682   1.786   6.429   8.958
14480WAT     H243683   1.919   6.521   8.985
14481WAT      O43684   2.099   0.682   0.127
14481WAT     H143685   2.164   0.612   0.157
14481WAT     H243686   2.109   0.763   0.184
14482WAT      O43687   0.972   3.779   2.767
14482WAT     H143688   1.060   3.794   2.722
14482WAT     H243689   0.987   3.771   2.866
14483WAT      O43690   4.635   1.573   7.872
14483WAT     H143691   4.565   1.629   7.916
14483WAT     H243692   4.614   1.561   7.775
14484WAT      O43693   6.806   4.415   8.379
14484WAT     H143694   6.727   4.365   8.413
14484WAT     H243695   6.776   4.502   8.339
14485WAT      O43696   1.042   6.672   8.170
14485WAT     H143697   1.043   6.621   8.084
14485WAT     H243698   1.015   6.611   8.245
14486WAT      O43699   0.865   8.172   7.045
14486WAT     H143700   0.790   8.236   7.031
14486WAT     H243701   0.951   8.222   7.055
14487WAT      O43702   7.188   1.629   5.860
14487WAT     H143703   7.282   1.643   5.827
14487WAT     H243704   7.190   1.611   5.959
14488WAT      O43705   3.748   2.050   6.173
14488WAT     H143706   3.708   2.132   6.131
14488WAT     H243707   3.845   2.066   6.190
14489WAT      O43708   0.289   6.598   0.084
14489WAT     H143709   0.195   6.630   0.099
14489WAT     H243710   0.352   6.675   0.092
14490WAT      O43711   1.509   6.911   2.168
14490WAT     H143712   1.589   6.877   2.118
14490WAT     H243713   1.512   6.877   2.262
14491WAT      O43714   4.243   2.617   3.579
14491WAT     H143715   4.235   2.671   3.495
14491WAT     H243716   4.295   2.670   3.647
14492WAT      O43717   0.093   8.757   7.118
14492WAT     H143718   0.032   8.835   7.102
14492WAT     H243719   0.124   8.758   7.213
14493WAT      O43720   3.362   5.341   2.815
14493WAT     H143721   3.449   5.388   2.807
14493WAT     H243722   3.353   5.274   2.741
14494WAT      O43723   9.865   7.701   4.212
14494WAT     H143724   9.833   7.701   4.117
14494WAT     H243725   9.952   7.653   4.218
14495WAT      O43726   9.536   3.704   2.979
14495WAT     H143727   9.607   3.695   2.909
14495WAT     H243728   9.544   3.794   3.022
14496WAT      O43729   8.931   3.780   4.830
14496WAT     H143730   8.936   3.831   4.744
14496WAT     H243731   8.868   3.826   4.893
14497WAT      O43732   2.253   5.468   3.775
14497WAT     H143733   2.305   5.471   3.690
14497WAT     H243734   2.156   5.458   3.754
14498WAT      O43735   1.088   9.685   3.634
14498WAT     H143736   1.094   9.769   3.689
14498WAT     H243737   0.993   9.672   3.605
14499WAT      O43738   7.764   2.968   2.142
14499WAT     H143739   7.667   2.962   2.168
14499WAT     H243740   7.778   2.919   2.056
14500WAT      O43741   9.655   9.218   6.242
14500WAT     H143742   9.584   9.159   6.281
14500WAT     H243743   9.654   9.209   6.143
14501WAT      O43744   6.377   5.295   3.922
14501WAT     H143745   6.461   5.278   3.871
14501WAT     H243746   6.331   5.376   3.886
14502WAT      O43747   8.789   8.776   0.294
14502WAT     H143748   8.814   8.723   0.375
14502WAT     H243749   8.708   8.735   0.252
14503WAT      O43750   5.986   1.145   1.710
14503WAT     H143751   5.989   1.045   1.704
14503WAT     H243752   5.955   1.172   1.802
14504WAT      O43753   1.906   0.281   2.223
14504WAT     H143754   1.837   0.292   2.295
14504WAT     H243755   1.961   0.200   2.243
14505WAT      O43756   3.988   5.406   2.223
14505WAT     H143757   4.049   5.468   2.272
14505WAT     H243758   4.016   5.311   2.238
14506WAT      O43759   0.405   4.622   8.382
14506WAT     H143760   0.406   4.713   8.341
14506WAT     H243761   0.406   4.553   8.310
14507WAT      O43762   0.389   0.742   7.328
14507WAT     H143763   0.296   0.779   7.327
14507WAT     H243764   0.389   0.647   7.296
14508WAT      O43765   6.981   0.897   9.616
14508WAT     H143766   7.044   0.874   9.542
14508WAT     H243767   7.002   0.989   9.650
14509WAT      O43768   2.671   4.884   6.837
14509WAT     H143769   2.625   4.831   6.908
14509WAT     H243770   2.714   4.965   6.879
14510WAT      O43771   2.648   6.064   5.029
14510WAT     H143772   2.718   6.096   4.965
14510WAT     H243773   2.602   6.142   5.071
14511WAT      O43774   7.233   1.955   1.783
14511WAT     H143775   7.312   1.967   1.843
14511WAT     H243776   7.194   2.044   1.761
14512WAT      O43777   5.887   2.224   7.535
14512WAT     H143778   5.864   2.240   7.439
14512WAT     H243779   5.873   2.308   7.587
14513WAT      O43780   2.016   8.493   4.830
14513WAT     H143781   2.016   8.521   4.734
14513WAT     H243782   2.104   8.514   4.872
14514WAT      O43783   1.762   0.599   0.307
14514WAT     H143784   1.800   0.548   0.230
14514WAT     H243785   1.828   0.669   0.336
14515WAT      O43786   5.542   0.420   6.059
14515WAT     H143787   5.555   0.361   6.138
14515WAT     H243788   5.445   0.438   6.046
14516WAT      O43789   8.410   5.642   0.282
14516WAT     H143790   8.356   5.725   0.297
14516WAT     H243791   8.500   5.653   0.323
14517WAT      O43792   1.769   8.374   3.715
14517WAT     H143793   1.722   8.413   3.636
14517WAT     H243794   1.725   8.288   3.742
14518WAT      O43795   8.297   0.847   5.639
14518WAT     H143796   8.224   0.784   5.666
14518WAT     H243797   8.256   0.928   5.595
14519WAT      O43798   2.723   8.373   1.651
14519WAT     H143799   2.708   8.401   1.746
14519WAT     H243800   2.683   8.283   1.636
14520WAT      O43801   5.268   1.906   8.445
14520WAT     H143802   5.183   1.957   8.459
14520WAT     H243803   5.273   1.876   8.350
14521WAT      O43804   7.271   0.251   9.433
14521WAT     H143805   7.241   0.301   9.351
14521WAT     H243806   7.344   0.187   9.409
14522WAT      O43807   9.852   3.640   9.558
14522WAT     H143808   9.903   3.594   9.630
14522WAT     H243809   9.876   3.737   9.556
14523WAT      O43810   9.246   3.015   8.106
14523WAT     H143811   9.176   3.062   8.052
14523WAT     H243812   9.323   2.990   8.047
14524WAT      O43813   0.638   8.587   4.814
14524WAT     H143814   0.646   8.673   4.763
14524WAT     H243815   0.590   8.604   4.900
14525WAT      O43816   2.496   0.557   7.244
14525WAT     H143817   2.518   0.498   7.166
14525WAT     H243818   2.449   0.504   7.314
14526WAT      O43819   7.243   7.720   3.393
14526WAT     H143820   7.208   7.778   3.467
14526WAT     H243821   7.339   7.700   3.409
14527WAT      O43822   7.894   4.392   1.473
14527WAT     H143823   7.795   4.399   1.487
14527WAT     H243824   7.928   4.309   1.517
14528WAT      O43825   6.382   2.906   5.792
14528WAT     H143826   6.335   2.905   5.704
14528WAT     H243827   6.439   2.989   5.798
14529WAT      O43828   5.824   4.061   3.624
14529WAT     H143829   5.844   4.087   3.718
14529WAT     H243830   5.846   4.136   3.563
14530WAT      O43831   2.357   2.682   7.399
14530WAT     H143832   2.343   2.732   7.484
14530WAT     H243833   2.395   2.743   7.330
14531WAT      O43834   3.989   3.368   8.460
14531WAT     H143835   3.977   3.344   8.557
14531WAT     H243836   3.954   3.294   8.403
14532WAT      O43837   2.822   3.682   6.765
14532WAT     H143838   2.780   3.600   6.723
14532WAT     H243839   2.779   3.700   6.853
14533WAT      O43840   5.669   9.339   7.297
14533WAT     H143841   5.586   9.395   7.308
14533WAT     H243842   5.723   9.344   7.381
14534WAT      O43843   1.783   7.170   5.287
14534WAT     H143844   1.780   7.188   5.189
14534WAT     H243845   1.690   7.155   5.321
14535WAT      O43846   9.271   8.487   4.279
14535WAT     H143847   9.227   8.483   4.369
14535WAT     H243848   9.321   8.573   4.270
14536WAT      O43849   0.189   4.029   8.382
14536WAT     H143850   0.130   3.948   8.385
14536WAT     H243851   0.280   4.005   8.417
14537WAT      O43852   4.354   9.332   6.348
14537WAT     H143853   4.346   9.285   6.435
14537WAT     H243854   4.304   9.282   6.278
14538WAT      O43855   6.699   9.505   6.283
14538WAT     H143856   6.674   9.503   6.186
14538WAT     H243857   6.663   9.589   6.325
14539WAT      O43858   5.941   6.896   4.301
14539WAT     H143859   5.895   6.857   4.221
14539WAT     H243860   6.038   6.909   4.280
14540WAT      O43861   7.159   1.336   3.836
14540WAT     H143862   7.069   1.328   3.793
14540WAT     H243863   7.150   1.387   3.922
14541WAT      O43864   6.036   7.936   7.809
14541WAT     H143865   6.044   7.894   7.899
14541WAT     H243866   6.027   7.865   7.740
14542WAT      O43867   0.047   6.705   0.227
14542WAT     H143868  -0.011   6.734   0.151
14542WAT     H243869   0.068   6.783   0.285
14543WAT      O43870   6.729   2.483   2.736
14543WAT     H143871   6.654   2.545   2.712
14543WAT     H243872   6.815   2.533   2.738
14544WAT      O43873   7.026   6.100   2.694
14544WAT     H143874   6.935   6.132   2.667
14544WAT     H243875   7.042   6.009   2.657
14545WAT      O43876   8.767   5.034   0.324
14545WAT     H143877   8.853   5.045   0.274
14545WAT     H243878   8.724   5.123   0.336
14546WAT      O43879   9.241   9.311   9.139
14546WAT     H143880   9.202   9.225   9.171
14546WAT     H243881   9.323   9.332   9.192
14547WAT      O43882   7.173   0.227   2.824
14547WAT     H143883   7.181   0.202   2.727
14547WAT     H243884   7.078   0.219   2.852
14548WAT      O43885   5.767   1.058   8.631
14548WAT     H143886   5.766   1.022   8.724
14548WAT     H243887   5.678   1.039   8.588
14549WAT      O43888   7.487   7.739   5.114
14549WAT     H143889   7.475   7.643   5.140
14549WAT     H243890   7.557   7.781   5.171
14550WAT      O43891   9.764   6.151   2.337
14550WAT     H143892   9.666   6.152   2.322
14550WAT     H243893   9.809   6.216   2.275
14551WAT      O43894   2.104   8.574   6.084
14551WAT     H143895   2.126   8.589   6.181
14551WAT     H243896   2.072   8.481   6.071
14552WAT      O43897   4.380   6.715   6.577
14552WAT     H143898   4.470   6.712   6.533
14552WAT     H243899   4.315   6.764   6.520
14553WAT      O43900   0.894   7.384   6.750
14553WAT     H143901   0.938   7.301   6.717
14553WAT     H243902   0.876   7.376   6.848
14554WAT      O43903   2.022   1.147   5.405
14554WAT     H143904   1.945   1.089   5.381
14554WAT     H243905   2.038   1.142   5.504
14555WAT      O43906   2.650   8.505   1.358
14555WAT     H143907   2.624   8.411   1.337
14555WAT     H243908   2.709   8.506   1.439
14556WAT      O43909   2.551   0.326   1.519
14556WAT     H143910   2.598   0.369   1.595
14556WAT     H243911   2.472   0.275   1.554
14557WAT      O43912   1.885   8.421   7.991
14557WAT     H143913   1.882   8.321   7.980
14557WAT     H243914   1.832   8.448   8.071
14558WAT      O43915   8.302   3.304   7.926
14558WAT     H143916   8.226   3.252   7.886
14558WAT     H243917   8.345   3.249   7.998
14559WAT      O43918   2.111   5.712   5.926
14559WAT     H143919   2.105   5.617   5.896
14559WAT     H243920   2.019   5.749   5.936
14560WAT      O43921   9.074   0.214   6.715
14560WAT     H143922   9.115   0.158   6.643
14560WAT     H243923   9.094   0.310   6.697
14561WAT      O43924   5.493   5.610   9.504
14561WAT     H143925   5.497   5.511   9.517
14561WAT     H243926   5.487   5.631   9.406
14562WAT      O43927   0.309   5.536   8.348
14562WAT     H143928   0.355   5.451   8.323
14562WAT     H243929   0.361   5.582   8.419
14563WAT      O43930   9.350   6.688   2.313
14563WAT     H143931   9.447   6.672   2.298
14563WAT     H243932   9.313   6.617   2.372
14564WAT      O43933   1.893   0.602   2.526
14564WAT     H143934   1.817   0.600   2.462
14564WAT     H243935   1.930   0.695   2.531
14565WAT      O43936   1.800   3.427   2.835
14565WAT     H143937   1.834   3.512   2.796
14565WAT     H243938   1.818   3.426   2.934
14566WAT      O43939   4.828   0.018   6.408
14566WAT     H143940   4.861  -0.022   6.493
14566WAT     H243941   4.882   0.099   6.386
14567WAT      O43942   9.747   4.060   6.342
14567WAT     H143943   9.680   4.015   6.282
14567WAT     H243944   9.729   4.035   6.437
14568WAT      O43945   7.418   3.197   6.113
14568WAT     H143946   7.499   3.146   6.141
14568WAT     H243947   7.393   3.261   6.185
14569WAT      O43948   5.766   4.076   8.780
14569WAT     H143949   5.680   4.058   8.828
14569WAT     H243950   5.835   4.106   8.846
14570WAT      O43951   5.962   8.349   5.702
14570WAT     H143952   6.012   8.284   5.645
14570WAT     H243953   5.921   8.419   5.644
14571WAT      O43954   2.091   7.363   2.703
14571WAT     H143955   2.058   7.397   2.615
14571WAT     H243956   2.139   7.436   2.752
14572WAT      O43957   6.431   2.020   1.048
14572WAT     H143958   6.520   1.978   1.032
14572WAT     H243959   6.423   2.048   1.143
14573WAT      O43960   9.470   5.705   5.414
14573WAT     H143961   9.497   5.801   5.409
14573WAT     H243962   9.374   5.697   5.387
14574WAT      O43963   5.903   6.709   6.477
14574WAT     H143964   5.957   6.642   6.426
14574WAT     H243965   5.875   6.783   6.416
14575WAT      O43966   7.434   9.674   1.902
14575WAT     H143967   7.445   9.735   1.980
14575WAT     H243968   7.337   9.666   1.879
14576WAT      O43969   0.852   0.641   3.873
14576WAT     H143970   0.909   0.708   3.921
14576WAT     H243971   0.824   0.678   3.784
14577WAT      O43972   5.854   0.627   7.089
14577WAT     H143973   5.794   0.676   7.152
14577WAT     H243974   5.904   0.693   7.033
14578WAT      O43975   3.275   1.129   5.326
14578WAT     H143976   3.366   1.088   5.341
14578WAT     H243977   3.214   1.060   5.288
14579WAT      O43978   2.152   7.925   0.979
14579WAT     H143979   2.057   7.956   0.975
14579WAT     H243980   2.197   7.945   0.891
14580WAT      O43981   6.575   5.907   9.575
14580WAT     H143982   6.552   5.814   9.604
14580WAT     H243983   6.668   5.908   9.537
14581WAT      O43984   3.460   2.115   8.283
14581WAT     H143985   3.371   2.098   8.242
14581WAT     H243986   3.448   2.164   8.370
14582WAT      O43987   2.587   7.839   1.445
14582WAT     H143988   2.635   7.906   1.389
14582WAT     H243989   2.489   7.843   1.425
14583WAT      O43990   0.927   2.560   3.247
14583WAT     H143991   0.865   2.635   3.271
14583WAT     H243992   0.876   2.486   3.204
14584WAT      O43993   6.245   9.282   5.575
14584WAT     H143994   6.220   9.199   5.625
14584WAT     H243995   6.292   9.257   5.491
14585WAT      O43996   3.527   3.246   0.680
14585WAT     H143997   3.466   3.186   0.733
14585WAT     H243998   3.499   3.341   0.692
14586WAT      O43999   8.704   6.772   1.058
14586WAT     H144000   8.661   6.684   1.034
14586WAT     H244001   8.653   6.813   1.134
14587WAT      O44002   7.561   8.981   4.050
14587WAT     H144003   7.632   9.051   4.060
14587WAT     H244004   7.563   8.944   3.957
14588WAT      O44005   1.175   5.987   6.059
14588WAT     H144006   1.186   6.086   6.065
14588WAT     H244007   1.201   5.945   6.146
14589WAT      O44008   7.161   9.622   8.533
14589WAT     H144009   7.154   9.567   8.450
14589WAT     H244010   7.155   9.719   8.509
14590WAT      O44011   4.004   6.759   3.086
14590WAT     H144012   4.056   6.720   3.161
14590WAT     H244013   3.936   6.693   3.054
14591WAT      O44014   6.659   3.727   8.186
14591WAT     H144015   6.636   3.757   8.278
14591WAT     H244016   6.758   3.719   8.177
14592WAT      O44017   6.454   4.868   5.953
14592WAT     H144018   6.478   4.779   5.991
14592WAT     H244019   6.449   4.935   6.027
14593WAT      O44020   8.394   4.678   5.709
14593WAT     H144021   8.348   4.659   5.797
14593WAT     H244022   8.329   4.720   5.646
14594WAT      O44023   7.523   6.881   5.229
14594WAT     H144024   7.536   6.936   5.312
14594WAT     H244025   7.601   6.820   5.217
14595WAT      O44026   5.382   3.002   2.419
14595WAT     H144027   5.353   2.984   2.513
14595WAT     H244028   5.302   3.028   2.364
14596WAT      O44029   5.383   1.892   3.583
14596WAT     H144030   5.451   1.882   3.510
14596WAT     H244031   5.294   1.915   3.544
14597WAT      O44032   2.134   6.189   8.725
14597WAT     H144033   2.138   6.091   8.744
14597WAT     H244034   2.222   6.220   8.688
14598WAT      O44035   3.420   2.756   5.525
14598WAT     H144036   3.484   2.704   5.469
14598WAT     H244037   3.368   2.692   5.583
14599WAT      O44038   1.535   0.182   3.394
14599WAT     H144039   1.560   0.097   3.439
14599WAT     H244040   1.455   0.222   3.439
14600WAT      O44041   9.227   7.984   1.663
14600WAT     H144042   9.210   7.924   1.585
14600WAT     H244043   9.321   8.017   1.661
14601WAT      O44044   3.200   8.881   1.107
14601WAT     H144045   3.260   8.847   1.179
14601WAT     H244046   3.158   8.804   1.059
14602WAT      O44047   0.312   9.079   1.504
14602WAT     H144048   0.292   8.984   1.528
14602WAT     H244049   0.309   9.089   1.404
14603WAT      O44050   9.865   0.926   5.622
14603WAT     H144051   9.791   0.964   5.565
14603WAT     H244052   9.855   0.827   5.628
14604WAT      O44053   3.876   4.503   8.917
14604WAT     H144054   3.936   4.426   8.892
14604WAT     H244055   3.781   4.477   8.900
14605WAT      O44056   0.094   5.560   8.191
14605WAT     H144057   0.175   5.550   8.249
14605WAT     H244058   0.030   5.485   8.210
14606WAT      O44059   7.721   5.322   3.237
14606WAT     H144060   7.784   5.278   3.301
14606WAT     H244061   7.629   5.322   3.275
14607WAT      O44062   0.181   3.703   4.318
14607WAT     H144063   0.117   3.660   4.253
14607WAT     H244064   0.272   3.705   4.278
14608WAT      O44065   9.015   7.490   9.397
14608WAT     H144066   9.108   7.481   9.361
14608WAT     H244067   8.991   7.586   9.403
14609WAT      O44068   0.349   1.562   7.200
14609WAT     H144069   0.268   1.610   7.232
14609WAT     H244070   0.430   1.616   7.219
14610WAT      O44071   4.021   9.615   1.234
14610WAT     H144072   4.114   9.597   1.201
14610WAT     H244073   4.013   9.712   1.257
14611WAT      O44074   4.676   5.101   6.155
14611WAT     H144075   4.722   5.025   6.108
14611WAT     H244076   4.662   5.077   6.251
14612WAT      O44077   8.929   9.524   0.870
14612WAT     H144078   8.860   9.458   0.839
14612WAT     H244079   9.020   9.487   0.854
14613WAT      O44080   0.397   1.110   4.608
14613WAT     H144081   0.433   1.017   4.600
14613WAT     H244082   0.433   1.166   4.533
14614WAT      O44083   2.257   6.646   7.323
14614WAT     H144084   2.206   6.673   7.242
14614WAT     H244085   2.223   6.695   7.403
14615WAT      O44086   1.149   7.489   8.471
14615WAT     H144087   1.150   7.390   8.460
14615WAT     H244088   1.169   7.513   8.566
14616WAT      O44089   2.856   0.099   3.918
14616WAT     H144090   2.768   0.145   3.906
14616WAT     H244091   2.874   0.042   3.838
14617WAT      O44092   3.139   7.816   8.105
14617WAT     H144093   3.057   7.779   8.061
14617WAT     H244094   3.215   7.812   8.040
14618WAT      O44095   7.455   0.463   7.470
14618WAT     H144096   7.540   0.515   7.461
14618WAT     H244097   7.377   0.524   7.459
14619WAT      O44098   4.690   5.153   9.653
14619WAT     H144099   4.757   5.081   9.673
14619WAT     H244100   4.616   5.149   9.720
14620WAT      O44101   4.106   1.036   7.051
14620WAT     H144102   4.014   1.056   7.016
14620WAT     H244103   4.109   1.057   7.149
14621WAT      O44104   4.452   2.791   0.272
14621WAT     H144105   4.369   2.762   0.319
14621WAT     H244106   4.437   2.789   0.173
14622WAT      O44107   1.393   4.359   2.128
14622WAT     H144108   1.317   4.308   2.169
14622WAT     H244109   1.476   4.303   2.129
14623WAT      O44110   7.276   9.741   9.397
14623WAT     H144111   7.302   9.657   9.349
14623WAT     H244112   7.207   9.720   9.466
14624WAT      O44113   4.993   4.411   4.834
14624WAT     H144114   5.003   4.330   4.892
14624WAT     H244115   4.896   4.422   4.810
14625WAT      O44116   8.544   0.042   7.510
14625WAT     H144117   8.628   0.039   7.564
14625WAT     H244118   8.487  -0.037   7.533
14626WAT      O44119   6.574   0.127   0.162
14626WAT     H144120   6.541   0.206   0.213
14626WAT     H244121   6.653   0.155   0.106
14627WAT      O44122   7.041   3.594   4.177
14627WAT     H144123   6.998   3.632   4.258
14627WAT     H244124   7.116   3.534   4.204
14628WAT      O44125   4.275   9.615   1.117
14628WAT     H144126   4.314   9.530   1.082
14628WAT     H244127   4.345   9.686   1.118
14629WAT      O44128   4.695   6.819   2.072
14629WAT     H144129   4.630   6.890   2.099
14629WAT     H244130   4.775   6.861   2.030
14630WAT      O44131   1.146   9.076   8.193
14630WAT     H144132   1.226   9.017   8.181
14630WAT     H244133   1.138   9.102   8.289
14631WAT      O44134   8.397   8.357   7.060
14631WAT     H144135   8.421   8.351   6.964
14631WAT     H244136   8.480   8.353   7.116
14632WAT      O44137   3.717   3.839   9.363
14632WAT     H144138   3.752   3.866   9.453
14632WAT     H244139   3.660   3.912   9.325
14633WAT      O44140   4.983   3.692   2.459
14633WAT     H144141   4.889   3.708   2.431
14633WAT     H244142   4.986   3.623   2.531
14634WAT      O44143   1.831   1.474   0.443
14634WAT     H144144   1.828   1.378   0.414
14634WAT     H244145   1.786   1.483   0.532
14635WAT      O44146   8.868   3.632   8.295
14635WAT     H144147   8.843   3.598   8.205
14635WAT     H244148   8.796   3.608   8.361
14636WAT      O44149   4.434   4.585   1.314
14636WAT     H144150   4.485   4.499   1.323
14636WAT     H244151   4.343   4.566   1.278
14637WAT      O44152   8.346   6.463   6.034
14637WAT     H144153   8.257   6.427   6.005
14637WAT     H244154   8.397   6.391   6.081
14638WAT      O44155   8.555   0.621   4.085
14638WAT     H144156   8.467   0.662   4.109
14638WAT     H244157   8.573   0.543   4.144
14639WAT      O44158   5.696   7.882   8.163
14639WAT     H144159   5.769   7.814   8.172
14639WAT     H244160   5.732   7.963   8.118
14640WAT      O44161   7.425   5.182   3.832
14640WAT     H144162   7.483   5.261   3.854
14640WAT     H244163   7.421   5.170   3.733
14641WAT      O44164   2.856   7.674   6.521
14641WAT     H144165   2.948   7.709   6.502
14641WAT     H244166   2.798   7.688   6.441
14642WAT      O44167   6.840   8.652   2.136
14642WAT     H144168   6.852   8.556   2.112
14642WAT     H244169   6.853   8.708   2.054
14643WAT      O44170   6.866   7.352   1.650
14643WAT     H144171   6.870   7.438   1.701
14643WAT     H244172   6.919   7.362   1.565
14644WAT      O44173   1.228   9.260   1.155
14644WAT     H144174   1.217   9.353   1.188
14644WAT     H244175   1.233   9.260   1.055
14645WAT      O44176   6.882   6.790   6.480
14645WAT     H144177   6.924   6.837   6.558
14645WAT     H244178   6.911   6.834   6.395
14646WAT      O44179   2.005   6.090   1.082
14646WAT     H144180   1.996   6.188   1.066
14646WAT     H244181   1.923   6.043   1.050
14647WAT      O44182   6.555   7.248   4.271
14647WAT     H144183   6.543   7.203   4.182
14647WAT     H244184   6.555   7.179   4.343
14648WAT      O44185   6.202   1.090   2.016
14648WAT     H144186   6.122   1.145   2.040
14648WAT     H244187   6.247   1.130   1.936
14649WAT      O44188   7.742   5.533   8.283
14649WAT     H144189   7.815   5.552   8.348
14649WAT     H244190   7.740   5.604   8.212
14650WAT      O44191   1.327   5.295   6.563
14650WAT     H144192   1.285   5.334   6.645
14650WAT     H244193   1.297   5.201   6.551
14651WAT      O44194   3.679   9.082   3.197
14651WAT     H144195   3.623   9.083   3.279
14651WAT     H244196   3.629   9.124   3.122
14652WAT      O44197   3.455   5.090   5.995
14652WAT     H144198   3.495   5.068   5.906
14652WAT     H244199   3.479   5.018   6.061
14653WAT      O44200   0.935   5.474   7.602
14653WAT     H144201   0.965   5.439   7.692
14653WAT     H244202   0.959   5.570   7.594
14654WAT      O44203   3.340   2.476   3.382
14654WAT     H144204   3.383   2.495   3.471
14654WAT     H244205   3.272   2.404   3.392
14655WAT      O44206   3.974   7.762   0.269
14655WAT     H144207   3.927   7.687   0.222
14655WAT     H244208   3.933   7.776   0.359
14656WAT      O44209   8.601   4.493   6.169
14656WAT     H144210   8.530   4.460   6.106
14656WAT     H244211   8.582   4.588   6.194
14657WAT      O44212   4.656   4.285   8.246
14657WAT     H144213   4.703   4.250   8.327
14657WAT     H244214   4.643   4.211   8.180
14658WAT      O44215   0.397   8.521   1.662
14658WAT     H144216   0.301   8.505   1.685
14658WAT     H244217   0.408   8.523   1.563
14659WAT      O44218   8.403   2.135   5.410
14659WAT     H144219   8.450   2.116   5.324
14659WAT     H244220   8.364   2.051   5.446
14660WAT      O44221   7.302   0.558   3.366
14660WAT     H144222   7.400   0.549   3.347
14660WAT     H244223   7.253   0.484   3.320
14661WAT      O44224   1.234   8.700   6.109
14661WAT     H144225   1.241   8.799   6.118
14661WAT     H244226   1.193   8.678   6.020
14662WAT      O44227   8.810   3.514   8.047
14662WAT     H144228   8.847   3.521   7.954
14662WAT     H244229   8.724   3.464   8.045
14663WAT      O44230   1.338   3.812   7.318
14663WAT     H144231   1.375   3.733   7.270
14663WAT     H244232   1.255   3.844   7.271
14664WAT      O44233   4.527   7.252   4.657
14664WAT     H144234   4.496   7.224   4.566
14664WAT     H244235   4.617   7.212   4.675
14665WAT      O44236   2.668   5.189   5.834
14665WAT     H144237   2.592   5.252   5.852
14665WAT     H244238   2.644   5.098   5.867
14666WAT      O44239   4.132   1.084   9.213
14666WAT     H144240   4.106   1.025   9.290
14666WAT     H244241   4.051   1.106   9.159
14667WAT      O44242   0.292   7.507   4.555
14667WAT     H144243   0.360   7.434   4.555
14667WAT     H244244   0.229   7.495   4.632
14668WAT      O44245   3.279   0.567   7.890
14668WAT     H144246   3.290   0.468   7.902
14668WAT     H244247   3.291   0.590   7.794
14669WAT      O44248   4.783   6.781   6.089
14669WAT     H144249   4.742   6.726   6.161
14669WAT     H244250   4.880   6.756   6.079
14670WAT      O44251   8.100   0.051   0.307
14670WAT     H144252   8.089  -0.046   0.327
14670WAT     H244253   8.140   0.062   0.216
14671WAT      O44254   1.510   6.707   0.472
14671WAT     H144255   1.508   6.799   0.512
14671WAT     H244256   1.485   6.713   0.375
14672WAT      O44257   2.319   2.413   0.586
14672WAT     H144258   2.372   2.336   0.622
14672WAT     H244259   2.379   2.492   0.573
14673WAT      O44260   7.291   7.213   5.764
14673WAT     H144261   7.374   7.202   5.820
14673WAT     H244262   7.279   7.310   5.742
14674WAT      O44263   1.246   0.633   6.116
14674WAT     H144264   1.151   0.622   6.085
14674WAT     H244265   1.308   0.593   6.048
14675WAT      O44266   0.305   6.929   9.361
14675WAT     H144267   0.223   6.985   9.370
14675WAT     H244268   0.295   6.845   9.415
14676WAT      O44269   4.747   1.431   9.516
14676WAT     H144270   4.781   1.439   9.422
14676WAT     H244271   4.796   1.359   9.564
14677WAT      O44272   1.668   8.179   0.237
14677WAT     H144273   1.686   8.253   0.303
14677WAT     H244274   1.574   8.185   0.205
14678WAT      O44275   4.394   9.448   7.398
14678WAT     H144276   4.362   9.540   7.373
14678WAT     H244277   4.371   9.430   7.494
14679WAT      O44278   1.381   1.242   2.450
14679WAT     H144279   1.363   1.165   2.511
14679WAT     H244280   1.396   1.324   2.505
14680WAT      O44281   9.154   3.276   3.711
14680WAT     H144282   9.079   3.211   3.696
14680WAT     H244283   9.178   3.320   3.625
14681WAT      O44284   0.042   9.693   6.637
14681WAT     H144285   0.129   9.698   6.686
14681WAT     H244286   0.049   9.743   6.551
14682WAT      O44287   9.362   4.783   5.531
14682WAT     H144288   9.426   4.720   5.488
14682WAT     H244289   9.321   4.740   5.612
14683WAT      O44290   5.872   9.553   6.016
14683WAT     H144291   5.896   9.529   6.110
14683WAT     H244292   5.774   9.572   6.010
14684WAT      O44293   3.627   5.958   4.824
14684WAT     H144294   3.579   5.883   4.780
14684WAT     H244295   3.667   5.926   4.910
14685WAT      O44296   3.874   9.466   9.634
14685WAT     H144297   3.872   9.448   9.732
14685WAT     H244298   3.963   9.503   9.609
14686WAT      O44299   2.830   4.475   5.969
14686WAT     H144300   2.893   4.524   6.029
14686WAT     H244301   2.797   4.393   6.015
14687WAT      O44302   5.442   4.045   8.005
14687WAT     H144303   5.405   4.097   8.082
14687WAT     H244304   5.490   4.106   7.943
14688WAT      O44305   9.476   0.401   6.125
14688WAT     H144306   9.389   0.422   6.079
14688WAT     H244307   9.481   0.452   6.210
14689WAT      O44308   5.433   3.678   1.323
14689WAT     H144309   5.392   3.743   1.386
14689WAT     H244310   5.471   3.601   1.374
14690WAT      O44311   8.732   3.444   2.915
14690WAT     H144312   8.740   3.356   2.961
14690WAT     H244313   8.709   3.515   2.982
14691WAT      O44314   4.472   6.480   7.176
14691WAT     H144315   4.410   6.451   7.103
14691WAT     H244316   4.504   6.400   7.226
14692WAT      O44317   7.300   4.890   4.738
14692WAT     H144318   7.349   4.834   4.805
14692WAT     H244319   7.202   4.887   4.758
14693WAT      O44320   6.971   0.441   8.667
14693WAT     H144321   6.892   0.470   8.720
14693WAT     H244322   6.957   0.464   8.570
14694WAT      O44323   4.090   8.369   1.164
14694WAT     H144324   4.172   8.412   1.125
14694WAT     H244325   4.065   8.416   1.248
14695WAT      O44326   3.996   5.765   5.454
14695WAT     H144327   3.968   5.670   5.438
14695WAT     H244328   4.075   5.766   5.516
14696WAT      O44329   3.199   1.390   1.986
14696WAT     H144330   3.244   1.301   1.979
14696WAT     H244331   3.207   1.438   1.899
14697WAT      O44332   1.876   5.735   1.980
14697WAT     H144333   1.859   5.638   1.996
14697WAT     H244334   1.797   5.788   2.009
14698WAT      O44335   2.499   5.121   6.696
14698WAT     H144336   2.585   5.165   6.721
14698WAT     H244337   2.460   5.168   6.617
14699WAT      O44338   7.990   6.624   2.117
14699WAT     H144339   7.963   6.716   2.146
14699WAT     H244340   7.959   6.609   2.023
14700WAT      O44341   5.621   0.317   6.289
14700WAT     H144342   5.642   0.222   6.309
14700WAT     H244343   5.688   0.376   6.333
14701WAT      O44344   9.406   8.811   1.660
14701WAT     H144345   9.454   8.879   1.716
14701WAT     H244346   9.459   8.726   1.661
14702WAT      O44347   8.309   8.064   4.920
14702WAT     H144348   8.400   8.042   4.956
14702WAT     H244349   8.296   8.017   4.833
14703WAT      O44350   4.493   7.926   8.187
14703WAT     H144351   4.589   7.933   8.162
14703WAT     H244352   4.483   7.946   8.285
14704WAT      O44353   0.484   5.959   2.263
14704WAT     H144354   0.535   6.045   2.273
14704WAT     H244355   0.407   5.972   2.201
14705WAT      O44356   3.658   0.761   5.354
14705WAT     H144357   3.701   0.684   5.402
14705WAT     H244358   3.572   0.731   5.314
14706WAT      O44359   5.917   1.688   0.801
14706WAT     H144360   5.896   1.674   0.705
14706WAT     H244361   5.846   1.745   0.843
14707WAT      O44362   7.950   7.508   4.641
14707WAT     H144363   7.935   7.488   4.544
14707WAT     H244364   7.871   7.558   4.678
14708WAT      O44365   0.207   4.559   1.782
14708WAT     H144366   0.254   4.509   1.855
14708WAT     H244367   0.271   4.625   1.742
14709WAT      O44368   9.474   1.393   1.818
14709WAT     H144369   9.552   1.339   1.789
14709WAT     H244370   9.505   1.470   1.875
14710WAT      O44371   3.203   1.440   1.700
14710WAT     H144372   3.279   1.422   1.638
14710WAT     H244373   3.165   1.531   1.682
14711WAT      O44374   7.953   4.288   6.720
14711WAT     H144375   7.889   4.211   6.710
14711WAT     H244376   7.981   4.296   6.816
14712WAT      O44377   2.361   1.504   9.431
14712WAT     H144378   2.430   1.432   9.430
14712WAT     H244379   2.400   1.587   9.472
14713WAT      O44380   3.625   9.558   4.248
14713WAT     H144381   3.698   9.573   4.182
14713WAT     H244382   3.661   9.565   4.341
14714WAT      O44383   4.669   4.591   0.528
14714WAT     H144384   4.636   4.508   0.483
14714WAT     H244385   4.691   4.661   0.460
14715WAT      O44386   8.781   0.313   7.696
14715WAT     H144387   8.719   0.323   7.774
14715WAT     H244388   8.782   0.217   7.666
14716WAT      O44389   0.440   4.408   1.588
14716WAT     H144390   0.439   4.322   1.536
14716WAT     H244391   0.355   4.415   1.640
14717WAT      O44392   2.198   5.254   2.344
14717WAT     H144393   2.255   5.263   2.262
14717WAT     H244394   2.204   5.161   2.379
14718WAT      O44395   8.954   5.430   4.379
14718WAT     H144396   8.911   5.456   4.466
14718WAT     H244397   9.008   5.347   4.393
14719WAT      O44398   4.348   3.576   1.177
14719WAT     H144399   4.249   3.561   1.188
14719WAT     H244400   4.386   3.501   1.123
14720WAT      O44401   8.494   9.656   8.545
14720WAT     H144402   8.422   9.725   8.547
14720WAT     H244403   8.581   9.697   8.571
14721WAT      O44404   3.805   7.471   5.572
14721WAT     H144405   3.715   7.513   5.581
14721WAT     H244406   3.795   7.374   5.549
14722WAT      O44407   5.750   3.810   5.646
14722WAT     H144408   5.653   3.802   5.668
14722WAT     H244409   5.804   3.816   5.730
14723WAT      O44410   1.531   7.162   5.421
14723WAT     H144411   1.440   7.120   5.428
14723WAT     H244412   1.520   7.262   5.418
14724WAT      O44413   8.274   8.224   9.816
14724WAT     H144414   8.262   8.211   9.914
14724WAT     H244415   8.200   8.179   9.767
14725WAT      O44416   4.680   5.689   3.142
14725WAT     H144417   4.770   5.700   3.184
14725WAT     H244418   4.618   5.647   3.207
14726WAT      O44419   9.729   2.521   1.866
14726WAT     H144420   9.795   2.450   1.890
14726WAT     H244421   9.641   2.479   1.845
14727WAT      O44422   0.701   8.548   3.780
14727WAT     H144423   0.699   8.482   3.705
14727WAT     H244424   0.622   8.534   3.839
14728WAT      O44425   3.929   6.739   0.753
14728WAT     H144426   4.016   6.754   0.800
14728WAT     H244427   3.908   6.818   0.697
14729WAT      O44428   1.356   2.008   8.141
14729WAT     H144429   1.278   2.013   8.079
14729WAT     H244430   1.390   1.915   8.144
14730WAT      O44431   7.379   9.208   0.148
14730WAT     H144432   7.384   9.109   0.135
14730WAT     H244433   7.399   9.230   0.244
14731WAT      O44434   5.320   3.972   5.832
14731WAT     H144435   5.262   4.029   5.774
14731WAT     H244436   5.272   3.888   5.857
14732WAT      O44437   8.670   2.203   7.088
14732WAT     H144438   8.664   2.291   7.136
14732WAT     H244439   8.743   2.207   7.019
14733WAT      O44440   2.708   8.916   2.800
14733WAT     H144441   2.794   8.867   2.814
14733WAT     H244442   2.726   9.013   2.788
14734WAT      O44443   0.224   4.976   7.902
14734WAT     H144444   0.219   4.883   7.936
14734WAT     H244445   0.157   5.033   7.950
14735WAT      O44446   5.668   7.687   3.584
14735WAT     H144447   5.676   7.781   3.550
14735WAT     H244448   5.751   7.661   3.632
14736WAT      O44449   0.565   1.534   0.127
14736WAT     H144450   0.622   1.613   0.106
14736WAT     H244451   0.470   1.556   0.105
14737WAT      O44452   6.643   1.897   5.433
14737WAT     H144453   6.667   1.975   5.375
14737WAT     H244454   6.603   1.825   5.377
14738WAT      O44455   9.696   7.928   7.922
14738WAT     H144456   9.691   8.012   7.867
14738WAT     H244457   9.714   7.952   8.017
14739WAT      O44458   9.219   2.327   2.751
14739WAT     H144459   9.149   2.350   2.684
14739WAT     H244460   9.190   2.248   2.805
14740WAT      O44461   6.574   0.283   7.987
14740WAT     H144462   6.603   0.335   8.067
14740WAT     H244463   6.651   0.226   7.955
14741WAT      O44464   0.282   6.796   3.748
14741WAT     H144465   0.198   6.849   3.738
14741WAT     H244466   0.266   6.719   3.810
14742WAT      O44467   3.850   6.885   7.848
14742WAT     H144468   3.928   6.824   7.860
14742WAT     H244469   3.867   6.948   7.772
14743WAT      O44470   6.127   0.078   5.292
14743WAT     H144471   6.225   0.062   5.295
14743WAT     H244472   6.102   0.123   5.207
14744WAT      O44473   7.670   2.556   5.824
14744WAT     H144474   7.602   2.505   5.771
14744WAT     H244475   7.645   2.653   5.826
14745WAT      O44476   3.745   5.752   0.934
14745WAT     H144477   3.839   5.783   0.917
14745WAT     H244478   3.681   5.821   0.900
14746WAT      O44479   0.013   7.674   0.475
14746WAT     H144480   0.033   7.770   0.497
14746WAT     H244481  -0.058   7.671   0.404
14747WAT      O44482   3.550   0.229   1.834
14747WAT     H144483   3.624   0.243   1.768
14747WAT     H244484   3.476   0.177   1.790
14748WAT      O44485   4.450   1.236   7.433
14748WAT     H144486   4.470   1.310   7.368
14748WAT     H244487   4.532   1.180   7.445
14749WAT      O44488   9.144   8.508   4.531
14749WAT     H144489   9.058   8.541   4.492
14749WAT     H244490   9.155   8.545   4.623
14750WAT      O44491   9.420   7.280   7.971
14750WAT     H144492   9.412   7.199   8.029
14750WAT     H244493   9.482   7.261   7.895
14751WAT      O44494   4.563   1.113   7.119
14751WAT     H144495   4.579   1.019   7.091
14751WAT     H244496   4.527   1.165   7.041
14752WAT      O44497   5.207   6.248   5.270
14752WAT     H144498   5.213   6.148   5.263
14752WAT     H244499   5.235   6.289   5.183
14753WAT      O44500   1.978   8.712   2.430
14753WAT     H144501   2.043   8.636   2.431
14753WAT     H244502   1.956   8.738   2.524
14754WAT      O44503   4.242   3.880   0.962
14754WAT     H144504   4.195   3.953   1.012
14754WAT     H244505   4.329   3.859   1.007
14755WAT      O44506   7.438   7.381   0.731
14755WAT     H144507   7.482   7.379   0.821
14755WAT     H244508   7.347   7.341   0.738
14756WAT      O44509   6.256   0.948   0.035
14756WAT     H144510   6.292   0.855   0.035
14756WAT     H244511   6.331   1.014   0.042
14757WAT      O44512   5.775   6.812   7.234
14757WAT     H144513   5.776   6.712   7.238
14757WAT     H244514   5.729   6.849   7.315
14758WAT      O44515   1.125   3.250   5.974
14758WAT     H144516   1.119   3.152   5.993
14758WAT     H244517   1.199   3.290   6.029
14759WAT      O44518   6.457   2.287   5.509
14759WAT     H144519   6.506   2.374   5.501
14759WAT     H244520   6.427   2.274   5.603
14760WAT      O44521   9.435   2.639   2.560
14760WAT     H144522   9.459   2.713   2.497
14760WAT     H244523   9.372   2.674   2.630
14761WAT      O44524   0.270   3.047   3.411
14761WAT     H144525   0.196   3.070   3.348
14761WAT     H244526   0.312   2.961   3.382
14762WAT      O44527   0.023   4.641   7.308
14762WAT     H144528   0.008   4.697   7.389
14762WAT     H244529  -0.016   4.687   7.228
14763WAT      O44530   8.453   3.598   6.786
14763WAT     H144531   8.422   3.510   6.822
14763WAT     H244532   8.416   3.610   6.693
14764WAT      O44533   0.891   0.794   1.129
14764WAT     H144534   0.961   0.784   1.200
14764WAT     H244535   0.844   0.707   1.117
14765WAT      O44536   9.795   2.501   0.215
14765WAT     H144537   9.832   2.573   0.274
14765WAT     H244538   9.745   2.435   0.272
14766WAT      O44539   2.586   8.481   5.662
14766WAT     H144540   2.515   8.433   5.609
14766WAT     H244541   2.673   8.475   5.613
14767WAT      O44542   1.152   5.281   2.038
14767WAT     H144543   1.179   5.217   1.965
14767WAT     H244544   1.147   5.373   2.001
14768WAT      O44545   6.619   3.364   4.449
14768WAT     H144546   6.699   3.353   4.508
14768WAT     H244547   6.634   3.313   4.364
14769WAT      O44548   8.898   1.171   5.227
14769WAT     H144549   8.833   1.175   5.151
14769WAT     H244550   8.991   1.171   5.192
14770WAT      O44551   3.982   1.637   8.854
14770WAT     H144552   3.883   1.644   8.844
14770WAT     H244553   4.005   1.570   8.924
14771WAT      O44554   6.872   2.441   6.562
14771WAT     H144555   6.829   2.385   6.491
14771WAT     H244556   6.878   2.536   6.531
14772WAT      O44557   2.824   8.239   6.820
14772WAT     H144558   2.914   8.269   6.788
14772WAT     H244559   2.826   8.230   6.920
14773WAT      O44560   6.905   5.000   7.517
14773WAT     H144561   6.892   5.058   7.598
14773WAT     H244562   6.985   5.032   7.466
14774WAT      O44563   0.284   2.203   3.338
14774WAT     H144564   0.335   2.272   3.389
14774WAT     H244565   0.233   2.247   3.264
14775WAT      O44566   4.963   8.167   8.109
14775WAT     H144567   4.978   8.264   8.128
14775WAT     H244568   4.944   8.119   8.194
14776WAT      O44569   1.208   6.651   8.932
14776WAT     H144570   1.208   6.704   8.847
14776WAT     H244571   1.149   6.695   8.999
14777WAT      O44572   1.564   8.798   8.668
14777WAT     H144573   1.641   8.846   8.709
14777WAT     H244574   1.530   8.728   8.731
14778WAT      O44575   5.723   9.118   8.361
14778WAT     H144576   5.763   9.065   8.436
14778WAT     H244577   5.789   9.125   8.286
14779WAT      O44578   0.424   3.398   3.264
14779WAT     H144579   0.473   3.350   3.191
14779WAT     H244580   0.473   3.481   3.289
14780WAT      O44581   3.512   5.011   2.716
14780WAT     H144582   3.574   5.042   2.788
14780WAT     H244583   3.489   5.088   2.656
14781WAT      O44584   2.051   9.171   0.130
14781WAT     H144585   2.059   9.140   0.035
14781WAT     H244586   2.114   9.118   0.187
14782WAT      O44587   6.772   4.716   1.086
14782WAT     H144588   6.835   4.651   1.129
14782WAT     H244589   6.780   4.710   0.987
14783WAT      O44590   3.877   8.294   4.245
14783WAT     H144591   3.827   8.287   4.159
14783WAT     H244592   3.813   8.290   4.322
14784WAT      O44593   8.486   9.618   2.002
14784WAT     H144594   8.487   9.576   2.093
14784WAT     H244595   8.496   9.546   1.933
14785WAT      O44596   8.361   1.723   0.168
14785WAT     H144597   8.429   1.762   0.106
14785WAT     H244598   8.369   1.623   0.167
14786WAT      O44599   6.137   9.785   6.335
14786WAT     H144600   6.163   9.786   6.431
14786WAT     H244601   6.058   9.845   6.320
14787WAT      O44602   4.957   9.542   6.898
14787WAT     H144603   4.991   9.482   6.826
14787WAT     H244604   4.899   9.489   6.960
14788WAT      O44605   4.462   2.263   9.669
14788WAT     H144606   4.550   2.281   9.713
14788WAT     H244607   4.431   2.346   9.623
14789WAT      O44608   8.823   5.942   1.213
14789WAT     H144609   8.770   5.946   1.298
14789WAT     H244610   8.831   6.034   1.174
14790WAT      O44611   0.760   7.411   1.463
14790WAT     H144612   0.738   7.446   1.554
14790WAT     H244613   0.689   7.438   1.398
14791WAT      O44614   1.883   3.453   0.039
14791WAT     H144615   1.844   3.363   0.017
14791WAT     H244616   1.809   3.515   0.066
14792WAT      O44617   4.800   8.280   6.485
14792WAT     H144618   4.828   8.340   6.560
14792WAT     H244619   4.711   8.311   6.450
14793WAT      O44620   1.083   9.659   6.330
14793WAT     H144621   1.031   9.585   6.373
14793WAT     H244622   1.097   9.733   6.395
14794WAT      O44623   5.983   4.518   9.255
14794WAT     H144624   6.036   4.595   9.219
14794WAT     H244625   6.041   4.437   9.261
14795WAT      O44626   0.428   4.965   9.492
14795WAT     H144627   0.444   5.030   9.417
14795WAT     H244628   0.500   4.976   9.560
14796WAT      O44629   2.947   4.654   2.129
14796WAT     H144630   3.035   4.702   2.124
14796WAT     H244631   2.913   4.637   2.037
14797WAT      O44632   8.180   4.380   7.806
14797WAT     H144633   8.133   4.438   7.873
14797WAT     H244634   8.241   4.317   7.853
14798WAT      O44635   2.660   5.962   2.880
14798WAT     H144636   2.582   5.948   2.940
14798WAT     H244637   2.745   5.955   2.932
14799WAT      O44638   8.845   5.350   3.588
14799WAT     H144639   8.892   5.295   3.518
14799WAT     H244640   8.746   5.343   3.575
14800WAT      O44641   0.271   2.317   5.263
14800WAT     H144642   0.319   2.237   5.226
14800WAT     H244643   0.213   2.356   5.192
14801WAT      O44644   3.289   7.515   7.631
14801WAT     H144645   3.284   7.610   7.600
14801WAT     H244646   3.223   7.500   7.705
14802WAT      O44647   2.947   8.991   3.411
14802WAT     H144648   3.007   8.922   3.451
14802WAT     H244649   2.999   9.051   3.351
14803WAT      O44650   6.301   0.350   1.614
14803WAT     H144651   6.374   0.389   1.557
14803WAT     H244652   6.216   0.349   1.562
14804WAT      O44653   9.270   1.511   0.913
14804WAT     H144654   9.221   1.509   0.826
14804WAT     H244655   9.347   1.447   0.909
14805WAT      O44656   0.817   1.494   2.818
14805WAT     H144657   0.861   1.529   2.901
14805WAT     H244658   0.836   1.557   2.743
14806WAT      O44659   6.957   8.971   9.889
14806WAT     H144660   6.985   8.977   9.985
14806WAT     H244661   6.962   9.061   9.846
14807WAT      O44662   2.840   8.455   9.687
14807WAT     H144663   2.875   8.368   9.723
14807WAT     H244664   2.743   8.446   9.667
14808WAT      O44665   3.580   9.812   7.287
14808WAT     H144666   3.675   9.811   7.255
14808WAT     H244667   3.550   9.719   7.305
14809WAT      O44668   3.311   5.544   6.459
14809WAT     H144669   3.313   5.462   6.401
14809WAT     H244670   3.391   5.544   6.519
14810WAT      O44671   0.859   6.476   9.438
14810WAT     H144672   0.775   6.424   9.423
14810WAT     H244673   0.901   6.448   9.524
14811WAT      O44674   2.269   3.914   6.168
14811WAT     H144675   2.249   3.817   6.183
14811WAT     H244676   2.352   3.939   6.218
14812WAT      O44677   4.103   6.673   6.123
14812WAT     H144678   4.198   6.704   6.115
14812WAT     H244679   4.102   6.577   6.152
14813WAT      O44680   4.894   5.536   6.965
14813WAT     H144681   4.902   5.510   7.061
14813WAT     H244682   4.974   5.590   6.939
14814WAT      O44683   0.505   5.598   4.867
14814WAT     H144684   0.567   5.533   4.823
14814WAT     H244685   0.411   5.564   4.858
14815WAT      O44686   1.595   8.115   2.711
14815WAT     H144687   1.590   8.109   2.810
14815WAT     H244688   1.657   8.044   2.676
14816WAT      O44689   4.557   8.396   6.434
14816WAT     H144690   4.561   8.425   6.338
14816WAT     H244691   4.546   8.476   6.492
14817WAT      O44692   1.265   7.980   2.790
14817WAT     H144693   1.278   7.991   2.691
14817WAT     H244694   1.334   7.918   2.826
14818WAT      O44695   8.380   8.537   6.627
14818WAT     H144696   8.305   8.599   6.648
14818WAT     H244697   8.388   8.526   6.528
14819WAT      O44698   6.117   5.505   1.741
14819WAT     H144699   6.124   5.421   1.795
14819WAT     H244700   6.045   5.563   1.777
14820WAT      O44701   6.616   5.005   1.507
14820WAT     H144702   6.630   5.098   1.474
14820WAT     H244703   6.678   4.943   1.459
14821WAT      O44704   1.266   6.124   4.908
14821WAT     H144705   1.206   6.184   4.961
14821WAT     H244706   1.306   6.055   4.968
14822WAT      O44707   9.801   0.668   4.123
14822WAT     H144708   9.840   0.676   4.215
14822WAT     H244709   9.808   0.573   4.092
14823WAT      O44710   6.276   1.202   7.898
14823WAT     H144711   6.355   1.263   7.895
14823WAT     H244712   6.307   1.107   7.896
14824WAT      O44713   1.844   2.699   2.716
14824WAT     H144714   1.936   2.692   2.679
14824WAT     H244715   1.779   2.706   2.640
14825WAT      O44716   4.508   7.827   9.763
14825WAT     H144717   4.434   7.879   9.807
14825WAT     H244718   4.557   7.774   9.833
14826WAT      O44719   1.107   1.831   1.739
14826WAT     H144720   1.022   1.825   1.792
14826WAT     H244721   1.097   1.901   1.668
14827WAT      O44722   5.813   9.202   6.060
14827WAT     H144723   5.898   9.172   6.105
14827WAT     H244724   5.793   9.296   6.088
14828WAT      O44725   6.720   8.731   3.089
14828WAT     H144726   6.668   8.792   3.028
14828WAT     H244727   6.658   8.664   3.129
14829WAT      O44728   6.889   6.938   2.554
14829WAT     H144729   6.893   6.904   2.648
14829WAT     H244730   6.949   6.882   2.496
14830WAT      O44731   1.147   5.970   7.046
14830WAT     H144732   1.211   5.894   7.043
14830WAT     H244733   1.119   5.987   7.140
14831WAT      O44734   9.515   9.560   0.328
14831WAT     H144735   9.417   9.572   0.318
14831WAT     H244736   9.549   9.496   0.259
14832WAT      O44737   9.648   0.738   6.982
14832WAT     H144738   9.585   0.753   7.058
14832WAT     H244739   9.597   0.707   6.902
14833WAT      O44740   6.497   3.292   8.575
14833WAT     H144741   6.564   3.260   8.509
14833WAT     H244742   6.528   3.378   8.615
14834WAT      O44743   6.508   3.287   4.730
14834WAT     H144744   6.557   3.373   4.744
14834WAT     H244745   6.453   3.292   4.646
14835WAT      O44746   4.226   3.971   3.975
14835WAT     H144747   4.157   3.998   3.908
14835WAT     H244748   4.187   3.974   4.067
14836WAT      O44749   5.353   0.319   5.784
14836WAT     H144750   5.362   0.234   5.834
14836WAT     H244751   5.321   0.392   5.846
14837WAT      O44752   4.736   5.716   7.750
14837WAT     H144753   4.760   5.803   7.792
14837WAT     H244754   4.637   5.712   7.735
14838WAT      O44755   9.429   8.021   9.023
14838WAT     H144756   9.435   8.112   9.063
14838WAT     H244757   9.335   8.004   8.992
14839WAT      O44758   8.353   2.775   2.264
14839WAT     H144759   8.379   2.864   2.302
14839WAT     H244760   8.394   2.702   2.320
14840WAT      O44761   0.883   1.245   8.909
14840WAT     H144762   0.792   1.286   8.918
14840WAT     H244763   0.874   1.147   8.893
14841WAT      O44764   5.944   6.106   3.565
14841WAT     H144765   5.973   6.037   3.631
14841WAT     H244766   5.848   6.092   3.542
14842WAT      O44767   2.537   6.853   1.997
14842WAT     H144768   2.501   6.772   1.952
14842WAT     H244769   2.634   6.864   1.973
14843WAT      O44770   9.422   0.175   0.172
14843WAT     H144771   9.494   0.213   0.230
14843WAT     H244772   9.395   0.243   0.104
14844WAT      O44773   4.591   4.959   4.542
14844WAT     H144774   4.670   4.967   4.603
14844WAT     H244775   4.611   4.891   4.471
14845WAT      O44776   2.518   5.865   2.648
14845WAT     H144777   2.526   5.942   2.584
14845WAT     H244778   2.558   5.891   2.736
14846WAT      O44779   5.747   5.126   4.225
14846WAT     H144780   5.715   5.031   4.227
14846WAT     H244781   5.668   5.187   4.216
14847WAT      O44782   5.341   7.429   6.931
14847WAT     H144783   5.418   7.367   6.944
14847WAT     H244784   5.271   7.411   7.000
14848WAT      O44785   1.095   5.945   8.372
14848WAT     H144786   1.136   5.855   8.358
14848WAT     H244787   1.066   5.982   8.284
14849WAT      O44788   0.971   3.252   5.058
14849WAT     H144789   0.920   3.296   5.132
14849WAT     H244790   0.922   3.170   5.028
14850WAT      O44791   4.296   1.004   1.528
14850WAT     H144792   4.256   0.933   1.586
14850WAT     H244793   4.229   1.078   1.515
14851WAT      O44794   2.661   3.827   3.618
14851WAT     H144795   2.743   3.770   3.621
14851WAT     H244796   2.678   3.912   3.667
14852WAT      O44797   0.985   2.173   3.901
14852WAT     H144798   1.000   2.135   3.809
14852WAT     H244799   1.073   2.197   3.941
14853WAT      O44800   6.741   7.433   7.010
14853WAT     H144801   6.775   7.361   6.950
14853WAT     H244802   6.803   7.512   7.007
14854WAT      O44803   2.543   9.484   4.441
14854WAT     H144804   2.463   9.536   4.472
14854WAT     H244805   2.598   9.540   4.379
14855WAT      O44806   4.313   4.104   3.427
14855WAT     H144807   4.346   4.020   3.384
14855WAT     H244808   4.214   4.097   3.443
14856WAT      O44809   9.402   8.242   8.631
14856WAT     H144810   9.408   8.267   8.728
14856WAT     H244811   9.439   8.316   8.575
14857WAT      O44812   5.720   7.299   4.612
14857WAT     H144813   5.730   7.378   4.551
14857WAT     H244814   5.740   7.215   4.561
14858WAT      O44815   1.134   7.888   5.349
14858WAT     H144816   1.130   7.874   5.250
14858WAT     H244817   1.220   7.852   5.385
14859WAT      O44818   7.435   5.748   4.710
14859WAT     H144819   7.446   5.828   4.769
14859WAT     H244820   7.390   5.776   4.625
14860WAT      O44821   7.480   9.317   0.391
14860WAT     H144822   7.577   9.296   0.402
14860WAT     H244823   7.470   9.414   0.369
14861WAT      O44824   1.375   9.279   6.878
14861WAT     H144825   1.461   9.270   6.827
14861WAT     H244826   1.324   9.358   6.844
14862WAT      O44827   8.902   4.270   3.106
14862WAT     H144828   8.988   4.266   3.158
14862WAT     H244829   8.910   4.338   3.034
14863WAT      O44830   2.573   4.410   1.139
14863WAT     H144831   2.569   4.474   1.063
14863WAT     H244832   2.602   4.458   1.222
14864WAT      O44833   5.044   6.012   1.929
14864WAT     H144834   5.121   6.029   1.989
14864WAT     H244835   4.967   5.976   1.982
14865WAT      O44836   0.764   1.064   3.432
14865WAT     H144837   0.763   0.987   3.369
14865WAT     H244838   0.756   1.149   3.381
14866WAT      O44839   3.871   9.162   1.941
14866WAT     H144840   3.890   9.085   2.002
14866WAT     H244841   3.900   9.137   1.848
14867WAT      O44842   3.674   1.973   2.011
14867WAT     H144843   3.738   2.048   2.024
14867WAT     H244844   3.723   1.892   1.978
14868WAT      O44845   1.044   8.154   0.775
14868WAT     H144846   1.025   8.078   0.712
14868WAT     H244847   1.066   8.117   0.866
14869WAT      O44848   2.085   0.926   4.148
14869WAT     H144849   2.130   1.009   4.179
14869WAT     H244850   2.008   0.905   4.208
14870WAT      O44851   0.648   9.709   6.475
14870WAT     H144852   0.570   9.660   6.435
14870WAT     H244853   0.702   9.645   6.530
14871WAT      O44854   6.194   5.463   1.483
14871WAT     H144855   6.250   5.381   1.492
14871WAT     H244856   6.155   5.486   1.573
14872WAT      O44857   4.742   2.622   5.496
14872WAT     H144858   4.687   2.663   5.423
14872WAT     H244859   4.683   2.564   5.553
14873WAT      O44860   3.977   0.145   4.807
14873WAT     H144861   3.936   0.081   4.872
14873WAT     H244862   3.939   0.129   4.716
14874WAT      O44863   4.048   4.012   9.604
14874WAT     H144864   4.032   3.915   9.585
14874WAT     H244865   4.127   4.021   9.665
14875WAT      O44866   0.314   1.182   0.401
14875WAT     H144867   0.223   1.159   0.367
14875WAT     H244868   0.366   1.098   0.418
14876WAT      O44869   1.764   9.355   3.119
14876WAT     H144870   1.793   9.451   3.113
14876WAT     H244871   1.845   9.296   3.125
14877WAT      O44872   0.666   7.116   7.280
14877WAT     H144873   0.645   7.097   7.184
14877WAT     H244874   0.765   7.122   7.292
14878WAT      O44875   4.104   4.379   3.541
14878WAT     H144876   4.159   4.372   3.624
14878WAT     H244877   4.109   4.472   3.505
14879WAT      O44878   6.085   4.050   1.420
14879WAT     H144879   6.019   4.064   1.346
14879WAT     H244880   6.037   4.033   1.506
14880WAT      O44881   1.982   8.368   4.112
14880WAT     H144882   1.994   8.344   4.208
14880WAT     H244883   1.989   8.285   4.056
14881WAT      O44884   4.025   8.224   9.889
14881WAT     H144885   3.952   8.215   9.956
14881WAT     H244886   4.022   8.316   9.849
14882WAT      O44887   8.495   6.999   0.369
14882WAT     H144888   8.512   7.015   0.467
14882WAT     H244889   8.455   7.082   0.329
14883WAT      O44890   8.911   9.287   7.597
14883WAT     H144891   8.996   9.279   7.546
14883WAT     H244892   8.889   9.200   7.640
14884WAT      O44893   9.765   7.498   1.961
14884WAT     H144894   9.839   7.432   1.947
14884WAT     H244895   9.722   7.481   2.050
14885WAT      O44896   1.212   3.787   1.637
14885WAT     H144897   1.280   3.857   1.615
14885WAT     H244898   1.212   3.716   1.566
14886WAT      O44899   3.521   3.643   8.699
14886WAT     H144900   3.543   3.712   8.630
14886WAT     H244901   3.437   3.596   8.672
14887WAT      O44902   9.805   9.118   0.874
14887WAT     H144903   9.751   9.068   0.942
14887WAT     H244904   9.901   9.120   0.902
14888WAT      O44905   0.506   4.424   0.501
14888WAT     H144906   0.469   4.333   0.481
14888WAT     H244907   0.439   4.493   0.474
14889WAT      O44908   9.211   2.410   8.379
14889WAT     H144909   9.223   2.419   8.280
14889WAT     H244910   9.150   2.333   8.398
14890WAT      O44911   9.106   6.568   0.976
14890WAT     H144912   9.067   6.634   1.040
14890WAT     H244913   9.034   6.532   0.917
14891WAT      O44914   8.017   1.875   2.571
14891WAT     H144915   7.990   1.929   2.651
14891WAT     H244916   7.942   1.874   2.505
14892WAT      O44917   9.088   4.609   9.804
14892WAT     H144918   9.058   4.524   9.761
14892WAT     H244919   9.035   4.625   9.887
14893WAT      O44920   4.879   2.594   4.560
14893WAT     H144921   4.834   2.519   4.512
14893WAT     H244922   4.948   2.557   4.623
14894WAT      O44923   9.282   7.901   2.574
14894WAT     H144924   9.245   7.979   2.524
14894WAT     H244925   9.235   7.817   2.545
14895WAT      O44926   6.321   4.393   1.991
14895WAT     H144927   6.379   4.323   2.033
14895WAT     H244928   6.376   4.473   1.969
14896WAT      O44929   5.164   8.681   2.054
14896WAT     H144930   5.244   8.723   2.011
14896WAT     H244931   5.081   8.717   2.011
14897WAT      O44932   8.490   6.025   3.454
14897WAT     H144933   8.572   6.039   3.398
14897WAT     H244934   8.422   5.974   3.400
14898WAT      O44935   3.361   0.828   9.277
14898WAT     H144936   3.276   0.779   9.257
14898WAT     H244937   3.385   0.814   9.373
14899WAT      O44938   7.111   0.136   4.097
14899WAT     H144939   7.163   0.219   4.076
14899WAT     H244940   7.159   0.056   4.060
14900WAT      O44941   6.535   9.441   5.825
14900WAT     H144942   6.548   9.366   5.760
14900WAT     H244943   6.446   9.484   5.809
14901WAT      O44944   3.794   6.713   5.774
14901WAT     H144945   3.854   6.758   5.840
14901WAT     H244946   3.837   6.628   5.742
14902WAT      O44947   9.722   3.044   4.469
14902WAT     H144948   9.691   3.116   4.407
14902WAT     H244949   9.675   3.053   4.557
14903WAT      O44950   8.249   1.501   6.495
14903WAT     H144951   8.280   1.594   6.478
14903WAT     H244952   8.149   1.497   6.490
14904WAT      O44953   3.146   6.154   6.209
14904WAT     H144954   3.150   6.106   6.121
14904WAT     H244955   3.178   6.248   6.197
14905WAT      O44956   7.144   3.239   8.045
14905WAT     H144957   7.189   3.150   8.041
14905WAT     H244958   7.205   3.309   8.007
14906WAT      O44959   0.509   7.798   3.310
14906WAT     H144960   0.548   7.824   3.221
14906WAT     H244961   0.444   7.723   3.296
14907WAT      O44962   9.374   6.454   3.709
14907WAT     H144963   9.356   6.363   3.746
14907WAT     H244964   9.364   6.522   3.781
14908WAT      O44965   8.073   4.592   5.652
14908WAT     H144966   8.032   4.634   5.733
14908WAT     H244967   8.089   4.494   5.670
14909WAT      O44968   2.787   0.538   9.754
14909WAT     H144969   2.709   0.555   9.694
14909WAT     H244970   2.774   0.451   9.802
14910WAT      O44971   7.595   1.507   6.395
14910WAT     H144972   7.651   1.581   6.434
14910WAT     H244973   7.643   1.420   6.407
14911WAT      O44974   2.919   5.398   8.656
14911WAT     H144975   2.881   5.323   8.709
14911WAT     H244976   2.988   5.446   8.710
14912WAT      O44977   1.710   1.156   5.900
14912WAT     H144978   1.759   1.235   5.935
14912WAT     H244979   1.620   1.184   5.867
14913WAT      O44980   5.065   5.262   8.237
14913WAT     H144981   5.050   5.323   8.159
14913WAT     H244982   5.161   5.262   8.262
14914WAT      O44983   4.088   6.640   5.001
14914WAT     H144984   4.063   6.544   5.008
14914WAT     H244985   4.054   6.677   4.915
14915WAT      O44986   7.184   1.018   5.132
14915WAT     H144987   7.166   1.116   5.116
14915WAT     H244988   7.199   1.003   5.230
14916WAT      O44989   3.903   4.199   5.392
14916WAT     H144990   3.937   4.293   5.393
14916WAT     H244991   3.803   4.200   5.391
14917WAT      O44992   8.722   6.978   3.495
14917WAT     H144993   8.627   7.001   3.472
14917WAT     H244994   8.768   6.945   3.412
14918WAT      O44995   2.692   2.530   8.347
14918WAT     H144996   2.709   2.464   8.420
14918WAT     H244997   2.603   2.512   8.306
14919WAT      O44998   2.000   1.385   8.431
14919WAT     H144999   1.993   1.292   8.466
14919WAT     H245000   1.984   1.450   8.505
14920WAT      O45001   0.203   0.100   2.559
14920WAT     H145002   0.255   0.055   2.632
14920WAT     H245003   0.127   0.151   2.599
14921WAT      O45004   5.488   1.237   4.646
14921WAT     H145005   5.442   1.201   4.565
14921WAT     H245006   5.560   1.174   4.675
14922WAT      O45007   6.637   5.993   3.641
14922WAT     H145008   6.670   6.022   3.551
14922WAT     H245009   6.630   6.072   3.702
14923WAT      O45010   6.836   3.214   5.599
14923WAT     H145011   6.873   3.252   5.514
14923WAT     H245012   6.863   3.271   5.676
14924WAT      O45013   1.649   0.098   8.305
14924WAT     H145014   1.646   0.198   8.304
14924WAT     H245015   1.742   0.067   8.289
14925WAT      O45016   5.144   2.455   9.532
14925WAT     H145017   5.055   2.485   9.564
14925WAT     H245018   5.186   2.394   9.599
14926WAT      O45019   5.229   1.366   0.156
14926WAT     H145020   5.262   1.297   0.092
14926WAT     H245021   5.202   1.321   0.241
14927WAT      O45022   6.266   7.620   8.246
14927WAT     H145023   6.351   7.660   8.214
14927WAT     H245024   6.285   7.553   8.318
14928WAT      O45025   7.671   5.308   6.111
14928WAT     H145026   7.718   5.339   6.194
14928WAT     H245027   7.587   5.260   6.136
14929WAT      O45028   8.246   8.525   4.618
14929WAT     H145029   8.192   8.532   4.703
14929WAT     H245030   8.308   8.447   4.625
14930WAT      O45031   5.317   8.007   8.003
14930WAT     H145032   5.398   8.012   7.943
14930WAT     H245033   5.234   8.005   7.947
14931WAT      O45034   9.155   6.305   4.445
14931WAT     H145035   9.134   6.210   4.422
14931WAT     H245036   9.254   6.316   4.457
14932WAT      O45037   0.604   0.238   1.920
14932WAT     H145038   0.509   0.254   1.948
14932WAT     H245039   0.613   0.145   1.884
14933WAT      O45040   4.119   0.767   6.730
14933WAT     H145041   4.128   0.707   6.650
14933WAT     H245042   4.141   0.861   6.704
14934WAT      O45043   5.710   1.576   8.965
14934WAT     H145044   5.665   1.509   9.024
14934WAT     H245045   5.797   1.604   9.006
14935WAT      O45046   7.923   2.343   0.343
14935WAT     H145047   7.890   2.263   0.394
14935WAT     H245048   7.917   2.424   0.402
14936WAT      O45049   2.810   7.254   6.151
14936WAT     H145050   2.861   7.272   6.066
14936WAT     H245051   2.744   7.328   6.166
14937WAT      O45052   1.471   6.169   9.747
14937WAT     H145053   1.460   6.078   9.706
14937WAT     H245054   1.455   6.163   9.845
14938WAT      O45055   6.899   1.776   9.281
14938WAT     H145056   6.880   1.733   9.370
14938WAT     H245057   6.994   1.759   9.255
14939WAT      O45058   2.911   7.130   6.568
14939WAT     H145059   2.882   7.177   6.651
14939WAT     H245060   2.947   7.198   6.503
14940WAT      O45061   7.300   5.740   7.460
14940WAT     H145062   7.277   5.829   7.497
14940WAT     H245063   7.251   5.669   7.509
14941WAT      O45064   5.975   0.294   6.399
14941WAT     H145065   5.886   0.337   6.413
14941WAT     H245066   6.046   0.364   6.397
14942WAT      O45067   6.318   3.630   0.464
14942WAT     H145068   6.240   3.652   0.521
14942WAT     H245069   6.292   3.561   0.396
14943WAT      O45070   9.172   7.708   7.303
14943WAT     H145071   9.169   7.628   7.364
14943WAT     H245072   9.232   7.688   7.226
14944WAT      O45073   6.391   5.370   2.616
14944WAT     H145074   6.396   5.433   2.538
14944WAT     H245075   6.408   5.277   2.585
14945WAT      O45076   4.237   5.272   0.153
14945WAT     H145077   4.259   5.337   0.225
14945WAT     H245078   4.147   5.232   0.171
14946WAT      O45079   2.505   6.053   0.983
14946WAT     H145080   2.514   6.130   1.047
14946WAT     H245081   2.411   6.018   0.987
14947WAT      O45082   4.558   8.735   7.629
14947WAT     H145083   4.576   8.650   7.579
14947WAT     H245084   4.462   8.761   7.616
14948WAT      O45085   3.424   2.356   4.225
14948WAT     H145086   3.470   2.344   4.313
14948WAT     H245087   3.327   2.376   4.240
14949WAT      O45088   6.868   6.590   1.560
14949WAT     H145089   6.926   6.579   1.640
14949WAT     H245090   6.772   6.584   1.587
14950WAT      O45091   5.562   2.881   0.242
14950WAT     H145092   5.475   2.929   0.250
14950WAT     H245093   5.561   2.799   0.300
14951WAT      O45094   5.102   0.426   3.725
14951WAT     H145095   5.010   0.463   3.712
14951WAT     H245096   5.141   0.462   3.809
14952WAT      O45097   0.047   0.444   2.328
14952WAT     H145098  -0.038   0.445   2.382
14952WAT     H245099   0.098   0.528   2.345
14953WAT      O45100   5.765   8.935   1.954
14953WAT     H145101   5.828   8.964   2.026
14953WAT     H245102   5.727   8.845   1.978
14954WAT      O45103   7.574   0.559   3.369
14954WAT     H145104   7.583   0.529   3.464
14954WAT     H245105   7.597   0.656   3.363
14955WAT      O45106   0.582   6.083   1.011
14955WAT     H145107   0.610   6.161   1.067
14955WAT     H245108   0.599   5.998   1.061
14956WAT      O45109   7.284   2.244   0.794
14956WAT     H145110   7.209   2.279   0.738
14956WAT     H245111   7.255   2.159   0.839
14957WAT      O45112   0.276   9.191   9.348
14957WAT     H145113   0.217   9.245   9.408
14957WAT     H245114   0.266   9.223   9.254
14958WAT      O45115   3.282   0.076   9.496
14958WAT     H145116   3.257   0.172   9.491
14958WAT     H245117   3.251   0.028   9.414
14959WAT      O45118   2.766   8.397   8.981
14959WAT     H145119   2.771   8.385   9.080
14959WAT     H245120   2.691   8.342   8.944
14960WAT      O45121   9.529   7.402   0.788
14960WAT     H145122   9.444   7.442   0.754
14960WAT     H245123   9.515   7.305   0.806
14961WAT      O45124   9.087   7.308   4.539
14961WAT     H145125   9.142   7.388   4.514
14961WAT     H245126   8.990   7.332   4.535
14962WAT      O45127   6.088   8.926   9.744
14962WAT     H145128   6.064   9.021   9.723
14962WAT     H245129   6.021   8.865   9.702
14963WAT      O45130   2.246   2.346   8.600
14963WAT     H145131   2.341   2.312   8.599
14963WAT     H245132   2.237   2.416   8.671
14964WAT      O45133   7.174   1.642   6.811
14964WAT     H145134   7.267   1.639   6.848
14964WAT     H245135   7.165   1.578   6.735
14965WAT      O45136   5.274   0.035   3.762
14965WAT     H145137   5.351   0.098   3.775
14965WAT     H245138   5.197   0.084   3.722
14966WAT      O45139   5.635   5.218   1.926
14966WAT     H145140   5.581   5.301   1.938
14966WAT     H245141   5.610   5.174   1.840
14967WAT      O45142   7.903   1.122   2.810
14967WAT     H145143   7.913   1.089   2.904
14967WAT     H245144   7.968   1.196   2.794
14968WAT      O45145   9.540   6.586   9.187
14968WAT     H145146   9.556   6.596   9.088
14968WAT     H245147   9.578   6.665   9.234
14969WAT      O45148   2.084   2.875   5.001
14969WAT     H145149   2.076   2.973   5.018
14969WAT     H245150   2.096   2.827   5.088
14970WAT      O45151   3.737   8.009   0.891
14970WAT     H145152   3.747   8.094   0.944
14970WAT     H245153   3.710   7.935   0.953
14971WAT      O45154   3.107   2.333   3.464
14971WAT     H145155   3.131   2.333   3.561
14971WAT     H245156   3.054   2.415   3.443
14972WAT      O45157   4.564   6.702   3.679
14972WAT     H145158   4.496   6.767   3.714
14972WAT     H245159   4.650   6.750   3.663
14973WAT      O45160   9.651   7.824   2.899
14973WAT     H145161   9.720   7.782   2.838
14973WAT     H245162   9.560   7.802   2.865
14974WAT      O45163   9.020   9.493   5.506
14974WAT     H145164   9.026   9.590   5.530
14974WAT     H245165   8.971   9.483   5.420
14975WAT      O45166   6.048   9.032   0.155
14975WAT     H145167   6.046   9.132   0.149
14975WAT     H245168   6.003   8.993   0.075
14976WAT      O45169   0.591   7.636   0.739
14976WAT     H145170   0.652   7.703   0.779
14976WAT     H245171   0.501   7.677   0.724
14977WAT      O45172   4.979   8.420   6.987
14977WAT     H145173   4.955   8.455   6.896
14977WAT     H245174   4.898   8.379   7.029
14978WAT      O45175   6.354   7.248   7.994
14978WAT     H145176   6.255   7.254   7.983
14978WAT     H245177   6.391   7.176   7.936
14979WAT      O45178   0.650   4.920   5.207
14979WAT     H145179   0.595   4.985   5.156
14979WAT     H245180   0.616   4.912   5.300
14980WAT      O45181   9.821   2.858   6.764
14980WAT     H145182   9.827   2.819   6.672
14980WAT     H245183   9.780   2.949   6.758
14981WAT      O45184   4.567   4.143   8.029
14981WAT     H145185   4.582   4.183   7.938
14981WAT     H245186   4.614   4.055   8.034
14982WAT      O45187   5.782   3.634   3.088
14982WAT     H145188   5.829   3.723   3.080
14982WAT     H245189   5.804   3.578   3.009
14983WAT      O45190   9.388   5.027   2.436
14983WAT     H145191   9.383   4.962   2.511
14983WAT     H245192   9.461   5.093   2.454
14984WAT      O45193   5.115   1.609   0.230
14984WAT     H145194   5.184   1.664   0.279
14984WAT     H245195   5.154   1.520   0.207
14985WAT      O45196   1.502   0.428   1.482
14985WAT     H145197   1.531   0.402   1.574
14985WAT     H245198   1.566   0.497   1.446
14986WAT      O45199   9.470   4.214   7.847
14986WAT     H145200   9.511   4.226   7.756
14986WAT     H245201   9.449   4.304   7.885
14987WAT      O45202   4.289   0.434   0.468
14987WAT     H145203   4.257   0.523   0.438
14987WAT     H245204   4.389   0.436   0.477
14988WAT      O45205   7.016   6.853   1.481
14988WAT     H145206   6.948   6.780   1.480
14988WAT     H245207   6.993   6.920   1.411
14989WAT      O45208   7.231   2.543   2.066
14989WAT     H145209   7.176   2.477   2.015
14989WAT     H245210   7.208   2.539   2.163
14990WAT      O45211   9.551   7.132   0.824
14990WAT     H145212   9.565   7.059   0.890
14990WAT     H245213   9.631   7.140   0.765
14991WAT      O45214   8.235   1.449   0.381
14991WAT     H145215   8.312   1.446   0.316
14991WAT     H245216   8.222   1.359   0.421
14992WAT      O45217   2.214   3.654   7.395
14992WAT     H145218   2.283   3.611   7.454
14992WAT     H245219   2.235   3.635   7.299
14993WAT      O45220   5.661   9.619   0.172
14993WAT     H145221   5.606   9.671   0.238
14993WAT     H245222   5.611   9.610   0.086
14994WAT      O45223   3.535   7.827   0.270
14994WAT     H145224   3.448   7.799   0.310
14994WAT     H245225   3.566   7.756   0.206
14995WAT      O45226   8.010   8.894   4.414
14995WAT     H145227   7.959   8.906   4.499
14995WAT     H245228   8.078   8.967   4.406
14996WAT      O45229   6.613   0.405   0.703
14996WAT     H145230   6.644   0.364   0.617
14996WAT     H245231   6.691   0.417   0.764
14997WAT      O45232   0.460   5.258   9.683
14997WAT     H145233   0.546   5.268   9.633
14997WAT     H245234   0.396   5.328   9.652
14998WAT      O45235   4.950   1.698   7.278
14998WAT     H145236   5.050   1.690   7.288
14998WAT     H245237   4.928   1.724   7.185
14999WAT      O45238   1.632   2.034   7.851
14999WAT     H145239   1.622   1.934   7.853
14999WAT     H245240   1.715   2.059   7.900
15000WAT      O45241   4.010   6.882   5.516
15000WAT     H145242   4.046   6.898   5.608
15000WAT     H245243   3.913   6.856   5.521
15001WAT      O45244   3.946   6.276   0.874
15001WAT     H145245   3.890   6.349   0.834
15001WAT     H245246   3.922   6.264   0.970
15002WAT      O45247   2.443   5.350   9.648
15002WAT     H145248   2.395   5.391   9.571
15002WAT     H245249   2.377   5.318   9.716
15003WAT      O45250   6.412   1.852   2.957
15003WAT     H145251   6.450   1.942   2.980
15003WAT     H245252   6.315   1.862   2.934
15004WAT      O45253   4.745   1.306   8.492
15004WAT     H145254   4.702   1.225   8.452
15004WAT     H245255   4.838   1.284   8.519
15005WAT      O45256   1.448   5.843   4.332
15005WAT     H145257   1.474   5.822   4.426
15005WAT     H245258   1.350   5.859   4.327
15006WAT      O45259   5.548   6.095   6.404
15006WAT     H145260   5.584   6.015   6.356
15006WAT     H245261   5.501   6.066   6.487
15007WAT      O45262   8.149   8.118   0.801
15007WAT     H145263   8.222   8.184   0.818
15007WAT     H245264   8.189   8.031   0.774
15008WAT      O45265   2.298   4.072   0.633
15008WAT     H145266   2.378   4.107   0.585
15008WAT     H245267   2.324   3.993   0.688
15009WAT      O45268   3.046   1.623   7.152
15009WAT     H145269   3.042   1.534   7.198
15009WAT     H245270   3.068   1.609   7.055
15010WAT      O45271   2.642   7.149   1.540
15010WAT     H145272   2.579   7.072   1.536
15010WAT     H245273   2.660   7.182   1.448
15011WAT      O45274   1.426   2.053   8.600
15011WAT     H145275   1.512   2.003   8.590
15011WAT     H245276   1.372   2.011   8.674
15012WAT      O45277   5.360   9.829   4.436
15012WAT     H145278   5.437   9.772   4.409
15012WAT     H245279   5.394   9.913   4.479
15013WAT      O45280   2.155   5.825   4.370
15013WAT     H145281   2.127   5.910   4.414
15013WAT     H245282   2.232   5.843   4.309
15014WAT      O45283   9.867   8.631   1.976
15014WAT     H145284   9.880   8.578   2.059
15014WAT     H245285   9.817   8.715   1.997
15015WAT      O45286   6.293   1.227   8.275
15015WAT     H145287   6.221   1.157   8.271
15015WAT     H245288   6.294   1.268   8.366
15016WAT      O45289   4.766   5.568   5.999
15016WAT     H145290   4.838   5.579   5.931
15016WAT     H245291   4.771   5.641   6.066
15017WAT      O45292   6.463   9.024   0.538
15017WAT     H145293   6.467   9.116   0.578
15017WAT     H245294   6.556   8.994   0.515
15018WAT      O45295   5.632   2.614   6.909
15018WAT     H145296   5.695   2.670   6.963
15018WAT     H245297   5.658   2.518   6.919
15019WAT      O45298   4.525   0.437   5.864
15019WAT     H145299   4.512   0.435   5.963
15019WAT     H245300   4.557   0.347   5.833
15020WAT      O45301   4.628   1.101   8.351
15020WAT     H145302   4.589   1.022   8.399
15020WAT     H245303   4.575   1.120   8.268
15021WAT      O45304   6.146   3.873   5.964
15021WAT     H145305   6.168   3.919   5.878
15021WAT     H245306   6.219   3.808   5.987
15022WAT      O45307   4.928   8.812   6.780
15022WAT     H145308   4.942   8.836   6.876
15022WAT     H245309   4.924   8.712   6.771
15023WAT      O45310   2.971   6.865   0.238
15023WAT     H145311   3.020   6.940   0.192
15023WAT     H245312   2.998   6.862   0.334
15024WAT      O45313   2.585   6.258   4.458
15024WAT     H145314   2.611   6.215   4.371
15024WAT     H245315   2.642   6.339   4.473
15025WAT      O45316   8.836   6.460   0.374
15025WAT     H145317   8.913   6.396   0.378
15025WAT     H245318   8.752   6.414   0.403
15026WAT      O45319   7.273   4.219   2.885
15026WAT     H145320   7.207   4.256   2.950
15026WAT     H245321   7.360   4.266   2.896
15027WAT      O45322   8.842   4.271   0.378
15027WAT     H145323   8.755   4.250   0.422
15027WAT     H245324   8.862   4.369   0.388
15028WAT      O45325   4.743   8.076   1.116
15028WAT     H145326   4.835   8.114   1.108
15028WAT     H245327   4.740   7.986   1.073
15029WAT      O45328   4.107   9.020   5.898
15029WAT     H145329   4.109   9.097   5.962
15029WAT     H245330   4.012   9.002   5.870
15030WAT      O45331   7.883   5.207   7.095
15030WAT     H145332   7.964   5.265   7.080
15030WAT     H245333   7.812   5.260   7.140
15031WAT      O45334   8.404   1.949   3.671
15031WAT     H145335   8.376   1.894   3.592
15031WAT     H245336   8.439   1.888   3.743
15032WAT      O45337   7.412   0.019   0.411
15032WAT     H145338   7.511   0.032   0.411
15032WAT     H245339   7.371   0.080   0.343
15033WAT      O45340   0.615   2.594   4.028
15033WAT     H145341   0.516   2.610   4.037
15033WAT     H245342   0.662   2.682   4.026
15034WAT      O45343   3.280   9.395   5.063
15034WAT     H145344   3.189   9.423   5.094
15034WAT     H245345   3.323   9.338   5.132
15035WAT      O45346   2.310   7.166   1.397
15035WAT     H145347   2.322   7.195   1.302
15035WAT     H245348   2.268   7.240   1.450
15036WAT      O45349   0.437   0.243   9.802
15036WAT     H145350   0.496   0.285   9.871
15036WAT     H245351   0.493   0.188   9.740
15037WAT      O45352   6.118   2.441   5.632
15037WAT     H145353   6.159   2.352   5.650
15037WAT     H245354   6.144   2.506   5.704
15038WAT      O45355   2.629   4.429   4.436
15038WAT     H145356   2.712   4.431   4.491
15038WAT     H245357   2.574   4.510   4.454
15039WAT      O45358   7.960   9.440   7.590
15039WAT     H145359   7.898   9.403   7.521
15039WAT     H245360   7.929   9.531   7.617
15040WAT      O45361   0.187   1.328   3.208
15040WAT     H145362   0.152   1.260   3.273
15040WAT     H245363   0.110   1.382   3.172
15041WAT      O45364   0.115   9.436   7.822
15041WAT     H145365   0.056   9.372   7.773
15041WAT     H245366   0.114   9.414   7.920
15042WAT      O45367   9.551   5.351   5.607
15042WAT     H145368   9.466   5.366   5.656
15042WAT     H245369   9.600   5.274   5.648
15043WAT      O45370   8.070   1.884   5.868
15043WAT     H145371   8.036   1.952   5.803
15043WAT     H245372   8.097   1.929   5.953
15044WAT      O45373   6.660   4.909   5.558
15044WAT     H145374   6.644   5.003   5.527
15044WAT     H245375   6.575   4.872   5.596
15045WAT      O45376   6.096   4.830   0.030
15045WAT     H145377   6.123   4.828  -0.066
15045WAT     H245378   6.083   4.925   0.059
15046WAT      O45379   5.189   8.322   3.972
15046WAT     H145380   5.178   8.231   4.014
15046WAT     H245381   5.099   8.364   3.960
15047WAT      O45382   0.600   9.800   1.302
15047WAT     H145383   0.690   9.759   1.314
15047WAT     H245384   0.582   9.811   1.204
15048WAT      O45385   1.909   3.210   1.856
15048WAT     H145386   1.849   3.139   1.892
15048WAT     H245387   1.989   3.220   1.915
15049WAT      O45388   2.484   6.218   3.143
15049WAT     H145389   2.547   6.281   3.098
15049WAT     H245390   2.443   6.158   3.075
15050WAT      O45391   7.852   2.626   5.109
15050WAT     H145392   7.762   2.636   5.150
15050WAT     H245393   7.860   2.535   5.066
15051WAT      O45394   7.149   0.913   5.741
15051WAT     H145395   7.200   0.850   5.799
15051WAT     H245396   7.058   0.928   5.779
15052WAT      O45397   9.041   1.158   1.944
15052WAT     H145398   9.087   1.178   1.858
15052WAT     H245399   8.998   1.068   1.939
15053WAT      O45400   1.494   7.294   7.867
15053WAT     H145401   1.435   7.351   7.809
15053WAT     H245402   1.462   7.300   7.962
15054WAT      O45403   4.734   3.559   6.716
15054WAT     H145404   4.651   3.609   6.743
15054WAT     H245405   4.708   3.475   6.668
15055WAT      O45406   3.563   5.324   0.781
15055WAT     H145407   3.629   5.399   0.782
15055WAT     H245408   3.507   5.330   0.698
15056WAT      O45409   3.910   1.110   1.421
15056WAT     H145410   3.991   1.169   1.410
15056WAT     H245411   3.924   1.025   1.370
15057WAT      O45412   5.571   1.664   9.246
15057WAT     H145413   5.498   1.691   9.182
15057WAT     H245414   5.611   1.578   9.215
15058WAT      O45415   0.885   0.359   9.232
15058WAT     H145416   0.847   0.267   9.221
15058WAT     H245417   0.899   0.400   9.142
15059WAT      O45418   8.502   5.642   2.613
15059WAT     H145419   8.537   5.731   2.585
15059WAT     H245420   8.456   5.650   2.702
15060WAT      O45421   9.417   5.139   7.486
15060WAT     H145422   9.387   5.069   7.551
15060WAT     H245423   9.502   5.180   7.519
15061WAT      O45424   2.783   7.979   5.916
15061WAT     H145425   2.880   8.003   5.919
15061WAT     H245426   2.734   8.048   5.863
15062WAT      O45427   8.454   7.166   7.023
15062WAT     H145428   8.488   7.075   6.998
15062WAT     H245429   8.356   7.170   7.008
15063WAT      O45430   7.434   7.685   0.870
15063WAT     H145431   7.407   7.772   0.911
15063WAT     H245432   7.358   7.647   0.818
15064WAT      O45433   5.604   2.198   8.827
15064WAT     H145434   5.689   2.251   8.824
15064WAT     H245435   5.603   2.140   8.909
15065WAT      O45436   1.366   8.103   0.976
15065WAT     H145437   1.393   8.036   0.907
15065WAT     H245438   1.417   8.086   1.060
15066WAT      O45439   6.347   4.807   5.350
15066WAT     H145440   6.371   4.850   5.437
15066WAT     H245441   6.263   4.849   5.314
15067WAT      O45442   0.529   1.785   5.127
15067WAT     H145443   0.459   1.804   5.058
15067WAT     H245444   0.605   1.736   5.084
15068WAT      O45445   4.923   4.187   1.436
15068WAT     H145446   4.955   4.108   1.489
15068WAT     H245447   4.837   4.163   1.390
15069WAT      O45448   6.241   0.343   6.615
15069WAT     H145449   6.171   0.372   6.680
15069WAT     H245450   6.225   0.387   6.527
15070WAT      O45451   8.039   6.880   8.313
15070WAT     H145452   7.948   6.862   8.277
15070WAT     H245453   8.089   6.938   8.249
15071WAT      O45454   4.011   0.875   6.148
15071WAT     H145455   4.071   0.821   6.207
15071WAT     H245456   3.916   0.849   6.164
15072WAT      O45457   3.279   6.342   5.757
15072WAT     H145458   3.202   6.356   5.818
15072WAT     H245459   3.364   6.365   5.804
15073WAT      O45460   4.585   7.749   1.526
15073WAT     H145461   4.559   7.687   1.452
15073WAT     H245462   4.528   7.831   1.523
15074WAT      O45463   6.217   3.970   5.721
15074WAT     H145464   6.178   4.056   5.688
15074WAT     H245465   6.314   3.964   5.695
15075WAT      O45466   1.522   3.350   5.586
15075WAT     H145467   1.461   3.304   5.650
15075WAT     H245468   1.471   3.376   5.504
15076WAT      O45469   5.426   5.457   1.217
15076WAT     H145470   5.344   5.512   1.200
15076WAT     H245471   5.423   5.374   1.161
15077WAT      O45472   1.187   7.086   9.761
15077WAT     H145473   1.131   7.140   9.698
15077WAT     H245474   1.244   7.024   9.708
15078WAT      O45475   0.901   2.809   4.101
15078WAT     H145476   0.940   2.731   4.149
15078WAT     H245477   0.804   2.816   4.121
15079WAT      O45478   0.485   4.821   6.179
15079WAT     H145479   0.443   4.746   6.230
15079WAT     H245480   0.441   4.907   6.205
15080WAT      O45481   0.440   9.434   6.179
15080WAT     H145482   0.437   9.481   6.268
15080WAT     H245483   0.352   9.443   6.133
15081WAT      O45484   3.696   7.690   5.310
15081WAT     H145485   3.772   7.755   5.321
15081WAT     H245486   3.687   7.665   5.213
15082WAT      O45487   6.833   9.366   7.670
15082WAT     H145488   6.771   9.340   7.597
15082WAT     H245489   6.840   9.291   7.737
15083WAT      O45490   2.917   2.132   4.368
15083WAT     H145491   2.991   2.193   4.396
15083WAT     H245492   2.876   2.091   4.450
15084WAT      O45493   3.150   6.914   5.795
15084WAT     H145494   3.120   6.948   5.885
15084WAT     H245495   3.238   6.869   5.804
15085WAT      O45496   5.312   1.857   7.209
15085WAT     H145497   5.388   1.868   7.145
15085WAT     H245498   5.345   1.871   7.302
15086WAT      O45499   4.230   2.512   8.721
15086WAT     H145500   4.257   2.554   8.808
15086WAT     H245501   4.136   2.537   8.699
15087WAT      O45502   1.261   6.151   3.688
15087WAT     H145503   1.202   6.222   3.650
15087WAT     H245504   1.311   6.188   3.766
15088WAT      O45505   4.510   6.700   0.470
15088WAT     H145506   4.505   6.763   0.392
15088WAT     H245507   4.527   6.607   0.438
15089WAT      O45508   1.902   7.697   2.381
15089WAT     H145509   1.864   7.749   2.457
15089WAT     H245510   1.938   7.760   2.312
15090WAT      O45511   0.184   4.135   3.059
15090WAT     H145512   0.281   4.123   3.040
15090WAT     H245513   0.165   4.110   3.154
15091WAT      O45514   1.893   3.512   1.506
15091WAT     H145515   1.957   3.445   1.544
15091WAT     H245516   1.938   3.564   1.434
15092WAT      O45517   1.381   1.378   6.896
15092WAT     H145518   1.302   1.425   6.854
15092WAT     H245519   1.447   1.355   6.825
15093WAT      O45520   0.652   4.878   3.398
15093WAT     H145521   0.553   4.873   3.384
15093WAT     H245522   0.672   4.870   3.496
15094WAT      O45523   3.973   0.363   2.794
15094WAT     H145524   3.914   0.285   2.817
15094WAT     H245525   3.994   0.413   2.878
15095WAT      O45526   6.025   2.200   0.069
15095WAT     H145527   6.108   2.223   0.018
15095WAT     H245528   5.960   2.153   0.009
15096WAT      O45529   6.941   6.329   4.432
15096WAT     H145530   6.975   6.256   4.373
15096WAT     H245531   6.892   6.290   4.510
15097WAT      O45532   5.621   9.376   8.532
15097WAT     H145533   5.564   9.294   8.542
15097WAT     H245534   5.604   9.418   8.443
15098WAT      O45535   8.767   7.204   1.162
15098WAT     H145536   8.719   7.252   1.236
15098WAT     H245537   8.750   7.252   1.076
15099WAT      O45538   4.862   3.121   1.534
15099WAT     H145539   4.806   3.191   1.491
15099WAT     H245540   4.804   3.060   1.588
15100WAT      O45541   1.108   0.173   3.318
15100WAT     H145542   1.069   0.083   3.296
15100WAT     H245543   1.173   0.163   3.394
15101WAT      O45544   7.857   0.200   0.260
15101WAT     H145545   7.888   0.268   0.194
15101WAT     H245546   7.931   0.134   0.277
15102WAT      O45547   9.073   7.081   5.919
15102WAT     H145548   9.010   7.145   5.876
15102WAT     H245549   9.064   7.087   6.019
15103WAT      O45550   2.611   1.013   4.232
15103WAT     H145551   2.699   1.041   4.192
15103WAT     H245552   2.622   0.925   4.277
15104WAT      O45553   0.642   3.509   6.421
15104WAT     H145554   0.700   3.575   6.469
15104WAT     H245555   0.660   3.417   6.454
15105WAT      O45556   1.135   3.256   0.143
15105WAT     H145557   1.188   3.179   0.181
15105WAT     H245558   1.098   3.230   0.054
15106WAT      O45559   1.986   7.377   3.289
15106WAT     H145560   1.888   7.359   3.282
15106WAT     H245561   2.015   7.438   3.215
15107WAT      O45562   2.068   1.163   0.495
15107WAT     H145563   2.068   1.067   0.524
15107WAT     H245564   2.110   1.219   0.565
15108WAT      O45565   4.822   3.682   3.270
15108WAT     H145566   4.892   3.745   3.235
15108WAT     H245567   4.865   3.598   3.300
15109WAT      O45568   9.747   8.620   0.362
15109WAT     H145569   9.733   8.719   0.360
15109WAT     H245570   9.671   8.575   0.315
15110WAT      O45571   9.736   4.007   6.615
15110WAT     H145572   9.658   4.059   6.650
15110WAT     H245573   9.716   3.909   6.620
15111WAT      O45574   0.245   6.055   4.989
15111WAT     H145575   0.318   5.988   4.998
15111WAT     H245576   0.283   6.142   4.957
15112WAT      O45577   3.853   6.197   7.466
15112WAT     H145578   3.951   6.181   7.476
15112WAT     H245579   3.815   6.128   7.404
15113WAT      O45580   3.053   4.192   3.771
15113WAT     H145581   3.008   4.144   3.696
15113WAT     H245582   3.047   4.291   3.755
15114WAT      O45583   0.129   0.289   5.329
15114WAT     H145584   0.129   0.292   5.429
15114WAT     H245585   0.050   0.340   5.295
15115WAT      O45586   8.374   2.201   9.525
15115WAT     H145587   8.468   2.198   9.560
15115WAT     H245588   8.351   2.295   9.501
15116WAT      O45589   3.107   8.590   1.836
15116WAT     H145590   3.133   8.684   1.812
15116WAT     H245591   3.183   8.529   1.817
15117WAT      O45592   3.552   5.023   3.301
15117WAT     H145593   3.612   4.956   3.345
15117WAT     H245594   3.550   5.005   3.203
15118WAT      O45595   3.994   0.130   9.551
15118WAT     H145596   4.087   0.102   9.524
15118WAT     H245597   3.985   0.229   9.543
15119WAT      O45598   0.442   8.105   2.858
15119WAT     H145599   0.416   8.008   2.850
15119WAT     H245600   0.492   8.133   2.776
15120WAT      O45601   8.544   4.956   9.226
15120WAT     H145602   8.483   4.968   9.148
15120WAT     H245603   8.549   5.041   9.279
15121WAT      O45604   4.521   3.207   6.185
15121WAT     H145605   4.615   3.206   6.219
15121WAT     H245606   4.502   3.121   6.137
15122WAT      O45607   8.577   5.908   2.551
15122WAT     H145608   8.545   5.990   2.505
15122WAT     H245609   8.665   5.880   2.511
15123WAT      O45610   1.392   8.971   8.129
15123WAT     H145611   1.454   9.032   8.179
15123WAT     H245612   1.435   8.881   8.120
15124WAT      O45613   1.184   9.056   0.697
15124WAT     H145614   1.186   8.956   0.690
15124WAT     H245615   1.264   9.094   0.650
15125WAT      O45616   3.787   1.691   7.016
15125WAT     H145617   3.757   1.755   7.087
15125WAT     H245618   3.759   1.599   7.041
15126WAT      O45619   8.766   8.588   3.888
15126WAT     H145620   8.682   8.629   3.924
15126WAT     H245621   8.754   8.569   3.790
15127WAT      O45622   0.605   5.346   4.203
15127WAT     H145623   0.551   5.264   4.220
15127WAT     H245624   0.696   5.320   4.171
15128WAT      O45625   9.039   2.345   6.566
15128WAT     H145626   9.002   2.257   6.598
15128WAT     H245627   8.983   2.420   6.602
15129WAT      O45628   6.765   1.870   6.291
15129WAT     H145629   6.767   1.773   6.267
15129WAT     H245630   6.676   1.909   6.268
15130WAT      O45631   6.402   0.781   2.732
15130WAT     H145632   6.382   0.815   2.640
15130WAT     H245633   6.501   0.779   2.746
15131WAT      O45634   6.070   7.178   2.571
15131WAT     H145635   6.018   7.257   2.602
15131WAT     H245636   6.155   7.171   2.624
15132WAT      O45637   5.037   9.532   2.501
15132WAT     H145638   4.964   9.598   2.481
15132WAT     H245639   4.997   9.447   2.536
15133WAT      O45640   5.051   5.349   4.716
15133WAT     H145641   4.993   5.421   4.754
15133WAT     H245642   4.993   5.284   4.665
15134WAT      O45643   5.674   0.826   8.362
15134WAT     H145644   5.699   0.756   8.295
15134WAT     H245645   5.683   0.917   8.321
15135WAT      O45646   3.298   0.857   0.229
15135WAT     H145647   3.245   0.868   0.145
15135WAT     H245648   3.385   0.907   0.220
15136WAT      O45649   4.353   4.462   6.167
15136WAT     H145650   4.272   4.406   6.150
15136WAT     H245651   4.332   4.532   6.235
15137WAT      O45652   0.022   0.897   9.578
15137WAT     H145653  -0.042   0.873   9.651
15137WAT     H245654   0.116   0.889   9.611
15138WAT      O45655   0.713   3.398   1.349
15138WAT     H145656   0.764   3.412   1.434
15138WAT     H245657   0.769   3.425   1.271
15139WAT      O45658   4.924   0.855   3.017
15139WAT     H145659   4.993   0.795   2.977
15139WAT     H245660   4.911   0.831   3.113
15140WAT      O45661   2.257   2.300   9.410
15140WAT     H145662   2.175   2.288   9.466
15140WAT     H245663   2.287   2.211   9.376
15141WAT      O45664   9.544   8.550   1.575
15141WAT     H145665   9.620   8.486   1.571
15141WAT     H245666   9.459   8.500   1.592
15142WAT      O45667   3.401   0.015   7.059
15142WAT     H145668   3.406   0.088   6.991
15142WAT     H245669   3.474   0.025   7.126
15143WAT      O45670   0.819   7.181   3.439
15143WAT     H145671   0.745   7.127   3.400
15143WAT     H245672   0.823   7.270   3.393
15144WAT      O45673   0.456   2.362   0.960
15144WAT     H145674   0.441   2.460   0.975
15144WAT     H245675   0.554   2.343   0.959
15145WAT      O45676   2.000   2.318   3.546
15145WAT     H145677   1.948   2.390   3.498
15145WAT     H245678   1.938   2.246   3.575
15146WAT      O45679   4.972   4.338   6.665
15146WAT     H145680   4.900   4.273   6.691
15146WAT     H245681   5.043   4.340   6.735
15147WAT      O45682   0.591   6.215   2.303
15147WAT     H145683   0.590   6.307   2.265
15147WAT     H245684   0.539   6.213   2.388
15148WAT      O45685   4.818   2.740   6.442
15148WAT     H145686   4.767   2.806   6.386
15148WAT     H245687   4.828   2.776   6.535
15149WAT      O45688   8.427   1.356   9.856
15149WAT     H145689   8.337   1.388   9.827
15149WAT     H245690   8.470   1.304   9.783
15150WAT      O45691   5.962   9.076   4.812
15150WAT     H145692   6.051   9.078   4.859
15150WAT     H245693   5.916   8.990   4.831
15151WAT      O45694   8.402   3.284   3.226
15151WAT     H145695   8.467   3.337   3.281
15151WAT     H245696   8.398   3.190   3.260
15152WAT      O45697   7.163   4.153   5.632
15152WAT     H145698   7.168   4.063   5.588
15152WAT     H245699   7.107   4.146   5.715
15153WAT      O45700   8.285   0.881   4.847
15153WAT     H145701   8.351   0.947   4.883
15153WAT     H245702   8.334   0.805   4.805
15154WAT      O45703   3.399   1.648   5.103
15154WAT     H145704   3.422   1.715   5.032
15154WAT     H245705   3.406   1.555   5.066
15155WAT      O45706   8.435   7.902   1.885
15155WAT     H145707   8.425   7.944   1.794
15155WAT     H245708   8.463   7.973   1.950
15156WAT      O45709   0.881   8.089   9.166
15156WAT     H145710   0.791   8.105   9.125
15156WAT     H245711   0.877   8.106   9.264
15157WAT      O45712   2.644   3.257   6.038
15157WAT     H145713   2.665   3.162   6.062
15157WAT     H245714   2.712   3.318   6.079
15158WAT      O45715   8.524   2.182   3.759
15158WAT     H145716   8.617   2.165   3.794
15158WAT     H245717   8.487   2.098   3.720
15159WAT      O45718   1.222   7.700   6.972
15159WAT     H145719   1.233   7.643   6.891
15159WAT     H245720   1.312   7.718   7.012
15160WAT      O45721   2.900   7.447   8.503
15160WAT     H145722   2.884   7.544   8.521
15160WAT     H245723   2.981   7.437   8.445
15161WAT      O45724   5.098   5.146   8.977
15161WAT     H145725   5.005   5.175   9.000
15161WAT     H245726   5.150   5.224   8.943
15162WAT      O45727   3.517   4.476   0.734
15162WAT     H145728   3.523   4.399   0.671
15162WAT     H245729   3.534   4.561   0.685
15163WAT      O45730   7.719   9.104   8.396
15163WAT     H145731   7.778   9.173   8.353
15163WAT     H245732   7.744   9.013   8.363
15164WAT      O45733   2.903   5.041   9.759
15164WAT     H145734   2.928   5.054   9.855
15164WAT     H245735   2.986   5.023   9.705
15165WAT      O45736   9.791   9.372   0.532
15165WAT     H145737   9.848   9.454   0.540
15165WAT     H245738   9.695   9.396   0.548
15166WAT      O45739   6.222   1.645   5.783
15166WAT     H145740   6.215   1.639   5.883
15166WAT     H245741   6.305   1.695   5.758
15167WAT      O45742   6.004   5.511   0.378
15167WAT     H145743   6.070   5.570   0.424
15167WAT     H245744   5.982   5.549   0.288
15168WAT      O45745   2.450   3.182   4.618
15168WAT     H145746   2.506   3.106   4.651
15168WAT     H245747   2.365   3.146   4.579
15169WAT      O45748   2.565   4.736   3.998
15169WAT     H145749   2.588   4.655   4.052
15169WAT     H245750   2.622   4.813   4.026
15170WAT      O45751   3.701   9.121   1.664
15170WAT     H145752   3.636   9.075   1.604
15170WAT     H245753   3.669   9.115   1.759
15171WAT      O45754   8.250   3.397   2.098
15171WAT     H145755   8.171   3.341   2.123
15171WAT     H245756   8.325   3.379   2.161
15172WAT      O45757   5.490   4.760   9.437
15172WAT     H145758   5.412   4.707   9.404
15172WAT     H245759   5.564   4.756   9.370
15173WAT      O45760   7.001   8.584   3.702
15173WAT     H145761   6.971   8.664   3.754
15173WAT     H245762   7.055   8.614   3.623
15174WAT      O45763   8.961   7.101   0.935
15174WAT     H145764   8.982   7.161   0.858
15174WAT     H245765   8.990   7.145   1.021
15175WAT      O45766   4.384   1.927   5.176
15175WAT     H145767   4.362   1.931   5.274
15175WAT     H245768   4.311   1.971   5.124
15176WAT      O45769   3.798   7.444   5.130
15176WAT     H145770   3.767   7.527   5.083
15176WAT     H245771   3.722   7.407   5.184
15177WAT      O45772   9.104   6.109   7.561
15177WAT     H145773   9.112   6.208   7.571
15177WAT     H245774   9.025   6.088   7.503
15178WAT      O45775   6.132   4.393   5.296
15178WAT     H145776   6.078   4.329   5.351
15178WAT     H245777   6.124   4.485   5.335
15179WAT      O45778   4.684   1.707   9.460
15179WAT     H145779   4.775   1.745   9.447
15179WAT     H245780   4.691   1.620   9.509
15180WAT      O45781   5.703   3.211   9.745
15180WAT     H145782   5.646   3.158   9.808
15180WAT     H245783   5.660   3.212   9.654
15181WAT      O45784   6.646   3.752   3.287
15181WAT     H145785   6.613   3.657   3.292
15181WAT     H245786   6.656   3.789   3.379
15182WAT      O45787   6.115   7.544   3.106
15182WAT     H145788   6.033   7.520   3.054
15182WAT     H245789   6.119   7.643   3.118
15183WAT      O45790   2.950   3.590   8.308
15183WAT     H145791   3.019   3.638   8.254
15183WAT     H245792   2.861   3.597   8.261
15184WAT      O45793   7.765   7.041   8.731
15184WAT     H145794   7.735   7.078   8.819
15184WAT     H245795   7.702   7.070   8.659
15185WAT      O45796   7.989   9.620   0.254
15185WAT     H145797   7.896   9.604   0.287
15185WAT     H245798   8.038   9.533   0.249
15186WAT      O45799   0.177   3.365   2.607
15186WAT     H145800   0.132   3.341   2.694
15186WAT     H245801   0.211   3.282   2.563
15187WAT      O45802   0.794   4.637   5.113
15187WAT     H145803   0.783   4.565   5.181
15187WAT     H245804   0.706   4.654   5.069
15188WAT      O45805   6.736   8.630   4.059
15188WAT     H145806   6.692   8.647   3.970
15188WAT     H245807   6.665   8.621   4.130
15189WAT      O45808   6.845   4.701   0.467
15189WAT     H145809   6.779   4.691   0.393
15189WAT     H245810   6.902   4.619   0.472
15190WAT      O45811   5.513   8.244   3.505
15190WAT     H145812   5.497   8.323   3.563
15190WAT     H245813   5.483   8.161   3.552
15191WAT      O45814   4.368   7.528   2.671
15191WAT     H145815   4.449   7.555   2.619
15191WAT     H245816   4.366   7.577   2.758
15192WAT      O45817   3.467   4.767   0.943
15192WAT     H145818   3.475   4.766   0.844
15192WAT     H245819   3.439   4.677   0.975
15193WAT      O45820   6.204   4.321   0.610
15193WAT     H145821   6.225   4.293   0.704
15193WAT     H245822   6.148   4.251   0.566
15194WAT      O45823   5.708   0.995   0.012
15194WAT     H145824   5.695   1.060   0.087
15194WAT     H245825   5.806   0.977   0.001
15195WAT      O45826   0.109   3.125   5.306
15195WAT     H145827   0.193   3.098   5.354
15195WAT     H245828   0.110   3.224   5.292
15196WAT      O45829   9.705   1.023   9.263
15196WAT     H145830   9.776   0.958   9.291
15196WAT     H245831   9.741   1.084   9.193
15197WAT      O45832   2.786   2.195   1.065
15197WAT     H145833   2.705   2.218   1.119
15197WAT     H245834   2.866   2.238   1.106
15198WAT      O45835   7.006   4.472   3.952
15198WAT     H145836   6.974   4.422   4.032
15198WAT     H245837   7.080   4.533   3.978
15199WAT      O45838   0.570   8.660   4.275
15199WAT     H145839   0.667   8.660   4.250
15199WAT     H245840   0.552   8.735   4.339
15200WAT      O45841   9.200   1.390   0.200
15200WAT     H145842   9.113   1.383   0.150
15200WAT     H245843   9.206   1.315   0.266
15201WAT      O45844   4.950   1.213   8.881
15201WAT     H145845   4.952   1.142   8.951
15201WAT     H245846   4.930   1.171   8.792
15202WAT      O45847   2.705   2.533   7.349
15202WAT     H145848   2.623   2.484   7.321
15202WAT     H245849   2.770   2.470   7.392
15203WAT      O45850   1.802   4.145   6.929
15203WAT     H145851   1.756   4.066   6.887
15203WAT     H245852   1.898   4.147   6.900
15204WAT      O45853   6.305   7.068   5.650
15204WAT     H145854   6.301   7.009   5.731
15204WAT     H245855   6.216   7.067   5.604
15205WAT      O45856   0.520   1.253   3.933
15205WAT     H145857   0.601   1.247   3.991
15205WAT     H245858   0.470   1.166   3.938
15206WAT      O45859   0.135   7.311   5.968
15206WAT     H145860   0.067   7.249   6.006
15206WAT     H245861   0.224   7.295   6.010
15207WAT      O45862   5.808   6.308   2.283
15207WAT     H145863   5.822   6.223   2.333
15207WAT     H245864   5.731   6.298   2.221
15208WAT      O45865   0.132   2.333   5.879
15208WAT     H145866   0.109   2.263   5.947
15208WAT     H245867   0.211   2.302   5.826
15209WAT      O45868   2.705   4.666   9.565
15209WAT     H145869   2.615   4.684   9.527
15209WAT     H245870   2.748   4.591   9.514
15210WAT      O45871   4.764   5.270   7.888
15210WAT     H145872   4.823   5.350   7.896
15210WAT     H245873   4.714   5.274   7.801
15211WAT      O45874   6.686   0.562   5.315
15211WAT     H145875   6.738   0.646   5.301
15211WAT     H245876   6.636   0.566   5.401
15212WAT      O45877   2.568   4.786   3.163
15212WAT     H145878   2.473   4.757   3.177
15212WAT     H245879   2.626   4.705   3.151
15213WAT      O45880   2.685   5.393   1.324
15213WAT     H145881   2.741   5.377   1.242
15213WAT     H245882   2.729   5.351   1.403
15214WAT      O45883   2.844   6.318   0.492
15214WAT     H145884   2.888   6.255   0.427
15214WAT     H245885   2.893   6.405   0.492
15215WAT      O45886   4.255   1.418   2.959
15215WAT     H145887   4.175   1.476   2.973
15215WAT     H245888   4.240   1.357   2.882
15216WAT      O45889   8.615   8.210   2.235
15216WAT     H145890   8.538   8.157   2.271
15216WAT     H245891   8.698   8.154   2.239
15217WAT      O45892   4.176   7.560   2.404
15217WAT     H145893   4.234   7.534   2.482
15217WAT     H245894   4.221   7.535   2.319
15218WAT      O45895   4.565   7.062   1.355
15218WAT     H145896   4.484   7.032   1.305
15218WAT     H245897   4.588   6.995   1.425
15219WAT      O45898   4.573   1.410   3.955
15219WAT     H145899   4.662   1.445   3.987
15219WAT     H245900   4.568   1.418   3.856
15220WAT      O45901   5.315   9.821   1.172
15220WAT     H145902   5.400   9.769   1.178
15220WAT     H245903   5.249   9.769   1.118
15221WAT      O45904   1.275   2.340   9.658
15221WAT     H145905   1.223   2.352   9.574
15221WAT     H245906   1.216   2.356   9.737
15222WAT      O45907   1.903   3.366   9.260
15222WAT     H145908   1.987   3.369   9.205
15222WAT     H245909   1.892   3.453   9.309
15223WAT      O45910   2.253   7.525   8.059
15223WAT     H145911   2.217   7.618   8.046
15223WAT     H245912   2.226   7.491   8.149
15224WAT      O45913   2.849   8.725   3.945
15224WAT     H145914   2.834   8.822   3.926
15224WAT     H245915   2.917   8.688   3.882
15225WAT      O45916   7.305   2.621   8.256
15225WAT     H145917   7.372   2.549   8.273
15225WAT     H245918   7.218   2.597   8.299
15226WAT      O45919   4.552   1.085   1.608
15226WAT     H145920   4.556   1.066   1.706
15226WAT     H245921   4.479   1.031   1.566
15227WAT      O45922   1.551   8.082   7.537
15227WAT     H145923   1.478   8.021   7.507
15227WAT     H245924   1.603   8.113   7.457
15228WAT      O45925   8.174   0.433   2.763
15228WAT     H145926   8.140   0.502   2.827
15228WAT     H245927   8.256   0.468   2.718
15229WAT      O45928   8.894   1.320   8.972
15229WAT     H145929   8.831   1.376   8.918
15229WAT     H245930   8.849   1.234   8.996
15230WAT      O45931   9.276   0.660   4.482
15230WAT     H145932   9.341   0.589   4.454
15230WAT     H245933   9.201   0.664   4.415
15231WAT      O45934   8.791   8.824   4.749
15231WAT     H145935   8.847   8.798   4.828
15231WAT     H245936   8.848   8.876   4.685
15232WAT      O45937   9.830   5.646   9.192
15232WAT     H145938   9.757   5.710   9.218
15232WAT     H245939   9.819   5.560   9.241
15233WAT      O45940   9.613   5.170   2.505
15233WAT     H145941   9.572   5.144   2.592
15233WAT     H245942   9.698   5.119   2.490
15234WAT      O45943   8.086   8.102   9.670
15234WAT     H145944   8.155   8.036   9.641
15234WAT     H245945   8.069   8.167   9.595
15235WAT      O45946   4.736   8.372   4.700
15235WAT     H145947   4.755   8.407   4.609
15235WAT     H245948   4.637   8.360   4.711
15236WAT      O45949   8.275   6.217   4.755
15236WAT     H145950   8.351   6.270   4.792
15236WAT     H245951   8.310   6.144   4.696
15237WAT      O45952   4.518   7.818   3.318
15237WAT     H145953   4.490   7.911   3.343
15237WAT     H245954   4.590   7.787   3.381
15238WAT      O45955   7.128   2.454   7.498
15238WAT     H145956   7.037   2.488   7.524
15238WAT     H245957   7.119   2.389   7.423
15239WAT      O45958   0.532   2.575   0.662
15239WAT     H145959   0.452   2.589   0.721
15239WAT     H245960   0.537   2.479   0.634
15240WAT      O45961   8.871   8.973   1.315
15240WAT     H145962   8.969   8.989   1.318
15240WAT     H245963   8.833   9.013   1.231
15241WAT      O45964   6.585   2.724   0.046
15241WAT     H145965   6.603   2.777  -0.037
15241WAT     H245966   6.489   2.695   0.046
15242WAT      O45967   5.085   2.549   7.329
15242WAT     H145968   5.112   2.587   7.418
15242WAT     H245969   5.159   2.493   7.292
15243WAT      O45970   0.051   0.992   3.560
15243WAT     H145971   0.143   1.022   3.583
15243WAT     H245972   0.024   0.916   3.619
15244WAT      O45973   8.410   4.287   6.737
15244WAT     H145974   8.341   4.343   6.691
15244WAT     H245975   8.429   4.206   6.682
15245WAT      O45976   3.099   5.581   3.068
15245WAT     H145977   3.157   5.592   2.987
15245WAT     H245978   3.039   5.502   3.056
15246WAT      O45979   2.224   3.175   9.767
15246WAT     H145980   2.138   3.204   9.726
15246WAT     H245981   2.266   3.104   9.710
15247WAT      O45982   0.517   7.456   7.104
15247WAT     H145983   0.478   7.436   7.194
15247WAT     H245984   0.504   7.552   7.081
15248WAT      O45985   1.233   7.123   1.098
15248WAT     H145986   1.220   7.056   1.025
15248WAT     H245987   1.192   7.089   1.183
15249WAT      O45988   2.281   3.006   2.017
15249WAT     H145989   2.359   3.019   2.077
15249WAT     H245990   2.266   2.908   2.002
15250WAT      O45991   4.732   7.774   3.533
15250WAT     H145992   4.769   7.690   3.573
15250WAT     H245993   4.687   7.828   3.605
15251WAT      O45994   0.664   8.048   1.095
15251WAT     H145995   0.726   8.109   1.047
15251WAT     H245996   0.612   7.994   1.028
15252WAT      O45997   3.672   2.666   3.435
15252WAT     H145998   3.703   2.619   3.352
15252WAT     H245999   3.604   2.734   3.410
15253WAT      O46000   1.175   7.096   9.364
15253WAT     H146001   1.148   7.156   9.439
15253WAT     H246002   1.154   7.001   9.388
15254WAT      O46003   8.109   5.598   4.993
15254WAT     H146004   8.111   5.514   4.938
15254WAT     H246005   8.078   5.575   5.086
15255WAT      O46006   5.974   6.172   5.844
15255WAT     H146007   6.027   6.240   5.793
15255WAT     H246008   6.024   6.085   5.844
15256WAT      O46009   4.544   0.630   8.375
15256WAT     H146010   4.581   0.643   8.283
15256WAT     H246011   4.614   0.592   8.435
15257WAT      O46012   3.409   0.133   1.602
15257WAT     H146013   3.326   0.077   1.605
15257WAT     H246014   3.408   0.191   1.521
15258WAT      O46015   2.588   3.012   8.377
15258WAT     H146016   2.662   2.952   8.408
15258WAT     H246017   2.510   2.956   8.349
15259WAT      O46018   6.525   0.105   8.371
15259WAT     H146019   6.441   0.159   8.366
15259WAT     H246020   6.600   0.162   8.404
15260WAT      O46021   7.984   4.911   2.769
15260WAT     H146022   7.925   4.904   2.850
15260WAT     H246023   7.926   4.921   2.688
15261WAT      O46024   3.001   8.074   8.962
15261WAT     H146025   2.952   8.108   8.883
15261WAT     H246026   2.937   8.059   9.038
15262WAT      O46027   3.594   4.013   3.267
15262WAT     H146028   3.578   4.111   3.259
15262WAT     H246029   3.670   3.985   3.209
15263WAT      O46030   1.212   9.068   0.148
15263WAT     H146031   1.177   9.029   0.063
15263WAT     H246032   1.139   9.118   0.194
15264WAT      O46033   1.496   1.778   7.427
15264WAT     H146034   1.589   1.785   7.391
15264WAT     H246035   1.478   1.683   7.453
15265WAT      O46036   8.998   3.531   5.441
15265WAT     H146037   9.084   3.485   5.423
15265WAT     H246038   8.994   3.616   5.388
15266WAT      O46039   8.841   3.163   5.573
15266WAT     H146040   8.803   3.083   5.527
15266WAT     H246041   8.921   3.135   5.627
15267WAT      O46042   8.973   3.263   6.452
15267WAT     H146043   9.054   3.307   6.488
15267WAT     H246044   8.901   3.331   6.437
15268WAT      O46045   2.702   5.492   0.476
15268WAT     H146046   2.677   5.518   0.569
15268WAT     H246047   2.750   5.405   0.477
15269WAT      O46048   9.547   8.078   4.255
15269WAT     H146049   9.526   8.172   4.282
15269WAT     H246050   9.570   8.025   4.337
15270WAT      O46051   3.470   5.276   7.637
15270WAT     H146052   3.518   5.289   7.724
15270WAT     H246053   3.439   5.182   7.630
15271WAT      O46054   3.765   5.577   0.483
15271WAT     H146055   3.708   5.652   0.449
15271WAT     H246056   3.808   5.530   0.406
15272WAT      O46057   2.373   2.368   2.056
15272WAT     H146058   2.343   2.338   1.965
15272WAT     H246059   2.296   2.411   2.103
15273WAT      O46060   3.881   5.360   8.799
15273WAT     H146061   3.916   5.426   8.866
15273WAT     H246062   3.828   5.408   8.730
15274WAT      O46063   1.455   5.027   3.486
15274WAT     H146064   1.505   4.953   3.442
15274WAT     H246065   1.358   5.001   3.494
15275WAT      O46066   0.546   0.212   8.614
15275WAT     H146067   0.475   0.256   8.669
15275WAT     H246068   0.532   0.234   8.517
15276WAT      O46069   6.375   5.605   3.051
15276WAT     H146070   6.376   5.507   3.066
15276WAT     H246071   6.347   5.624   2.957
15277WAT      O46072   0.102   4.788   4.500
15277WAT     H146073   0.073   4.829   4.414
15277WAT     H246074   0.150   4.702   4.481
15278WAT      O46075   6.984   4.347   6.692
15278WAT     H146076   7.038   4.263   6.698
15278WAT     H246077   6.888   4.324   6.675
15279WAT      O46078   1.453   7.552   1.935
15279WAT     H146079   1.490   7.486   1.870
15279WAT     H246080   1.523   7.620   1.958
15280WAT      O46081   8.098   8.060   5.394
15280WAT     H146082   8.175   8.114   5.360
15280WAT     H246083   8.128   7.967   5.411
15281WAT      O46084   4.424   6.970   8.320
15281WAT     H146085   4.391   6.988   8.413
15281WAT     H246086   4.410   7.051   8.263
15282WAT      O46087   7.588   1.841   5.642
15282WAT     H146088   7.602   1.940   5.645
15282WAT     H246089   7.669   1.794   5.676
15283WAT      O46090   0.245   5.413   0.795
15283WAT     H146091   0.193   5.470   0.859
15283WAT     H246092   0.215   5.318   0.803
15284WAT      O46093   1.357   7.869   0.814
15284WAT     H146094   1.259   7.872   0.794
15284WAT     H246095   1.409   7.890   0.731
15285WAT      O46096   0.904   3.783   9.535
15285WAT     H146097   0.813   3.757   9.504
15285WAT     H246098   0.968   3.781   9.458
15286WAT      O46099   6.251   5.520   3.465
15286WAT     H146100   6.165   5.477   3.493
15286WAT     H246101   6.236   5.576   3.384
15287WAT      O46102   0.080   0.344   4.432
15287WAT     H146103   0.085   0.291   4.347
15287WAT     H246104   0.118   0.290   4.507
15288WAT      O46105   1.370   2.234   2.471
15288WAT     H146106   1.271   2.237   2.487
15288WAT     H246107   1.399   2.139   2.457
15289WAT      O46108   0.037   4.688   9.240
15289WAT     H146109  -0.020   4.608   9.222
15289WAT     H246110   0.081   4.718   9.155
15290WAT      O46111   2.601   4.207   4.622
15290WAT     H146112   2.637   4.300   4.620
15290WAT     H246113   2.666   4.144   4.580
15291WAT      O46114   3.752   2.640   7.875
15291WAT     H146115   3.831   2.688   7.836
15291WAT     H246116   3.771   2.616   7.970
15292WAT      O46117   8.698   9.416   1.053
15292WAT     H146118   8.759   9.441   1.129
15292WAT     H246119   8.670   9.499   1.004
15293WAT      O46120   9.276   2.239   7.410
15293WAT     H146121   9.348   2.307   7.395
15293WAT     H246122   9.311   2.167   7.470
15294WAT      O46123   3.616   2.427   4.895
15294WAT     H146124   3.694   2.410   4.955
15294WAT     H246125   3.618   2.522   4.864
15295WAT      O46126   2.294   1.755   6.377
15295WAT     H146127   2.296   1.817   6.456
15295WAT     H246128   2.322   1.663   6.406
15296WAT      O46129   5.657   3.486   7.362
15296WAT     H146130   5.735   3.533   7.403
15296WAT     H246131   5.680   3.459   7.269
15297WAT      O46132   8.846   0.750   7.386
15297WAT     H146133   8.786   0.675   7.415
15297WAT     H246134   8.831   0.769   7.289
15298WAT      O46135   7.584   5.445   8.510
15298WAT     H146136   7.581   5.346   8.509
15298WAT     H246137   7.640   5.478   8.434
15299WAT      O46138   2.496   7.637   7.299
15299WAT     H146139   2.567   7.701   7.271
15299WAT     H246140   2.417   7.645   7.238
15300WAT      O46141   8.045   4.494   0.934
15300WAT     H146142   7.976   4.435   0.892
15300WAT     H246143   8.028   4.500   1.032
15301WAT      O46144   8.972   8.986   5.537
15301WAT     H146145   8.952   9.079   5.568
15301WAT     H246146   9.007   8.989   5.443
15302WAT      O46147   3.701   9.383   1.541
15302WAT     H146148   3.679   9.292   1.576
15302WAT     H246149   3.617   9.431   1.515
15303WAT      O46150   8.279   8.503   2.124
15303WAT     H146151   8.211   8.430   2.117
15303WAT     H246152   8.322   8.517   2.035
15304WAT      O46153   4.669   6.350   4.936
15304WAT     H146154   4.758   6.330   4.897
15304WAT     H246155   4.608   6.385   4.864
15305WAT      O46156   5.194   3.461   0.718
15305WAT     H146157   5.113   3.411   0.687
15305WAT     H246158   5.257   3.396   0.761
15306WAT      O46159   8.206   5.056   7.377
15306WAT     H146160   8.249   5.145   7.363
15306WAT     H246161   8.275   4.983   7.368
15307WAT      O46162   0.349   9.174   1.255
15307WAT     H146163   0.354   9.273   1.241
15307WAT     H246164   0.391   9.128   1.177
15308WAT      O46165   5.503   4.687   8.755
15308WAT     H146166   5.433   4.667   8.823
15308WAT     H246167   5.568   4.611   8.751
15309WAT      O46168   6.902   3.386   2.258
15309WAT     H146169   6.954   3.330   2.194
15309WAT     H246170   6.944   3.476   2.266
15310WAT      O46171   5.194   1.337   5.484
15310WAT     H146172   5.113   1.338   5.425
15310WAT     H246173   5.195   1.253   5.537
15311WAT      O46174   9.270   2.336   1.249
15311WAT     H146175   9.313   2.294   1.169
15311WAT     H246176   9.187   2.383   1.221
15312WAT      O46177   1.202   7.183   7.762
15312WAT     H146178   1.142   7.184   7.842
15312WAT     H246179   1.266   7.107   7.770
15313WAT      O46180   2.948   0.349   4.765
15313WAT     H146181   2.873   0.412   4.746
15313WAT     H246182   3.025   0.371   4.706
15314WAT      O46183   0.991   1.686   4.609
15314WAT     H146184   0.929   1.765   4.603
15314WAT     H246185   1.050   1.685   4.529
15315WAT      O46186   0.410   0.929   0.413
15315WAT     H146187   0.509   0.912   0.415
15315WAT     H246188   0.368   0.870   0.344
15316WAT      O46189   3.533   1.055   0.124
15316WAT     H146190   3.480   1.106   0.057
15316WAT     H246191   3.508   1.083   0.216
15317WAT      O46192   6.037   3.230   5.380
15317WAT     H146193   5.965   3.293   5.352
15317WAT     H246194   5.997   3.145   5.414
15318WAT      O46195   9.159   7.596   3.980
15318WAT     H146196   9.174   7.689   3.947
15318WAT     H246197   9.184   7.531   3.909
15319WAT      O46198   9.797   3.220   7.578
15319WAT     H146199   9.754   3.301   7.618
15319WAT     H246200   9.731   3.145   7.575
15320WAT      O46201   4.841   2.443   5.343
15320WAT     H146202   4.773   2.423   5.272
15320WAT     H246203   4.799   2.498   5.415
15321WAT      O46204   3.631   6.907   0.036
15321WAT     H146205   3.716   6.871  -0.002
15321WAT     H246206   3.578   6.952  -0.036
15322WAT      O46207   7.227   6.874   9.102
15322WAT     H146208   7.156   6.850   9.036
15322WAT     H246209   7.234   6.973   9.109
15323WAT      O46210   5.160   9.329   7.718
15323WAT     H146211   5.194   9.413   7.762
15323WAT     H246212   5.179   9.332   7.620
15324WAT      O46213   0.953   1.578   9.868
15324WAT     H146214   0.951   1.562   9.769
15324WAT     H246215   1.045   1.560   9.903
15325WAT      O46216   3.206   4.590   4.828
15325WAT     H146217   3.242   4.535   4.753
15325WAT     H246218   3.248   4.562   4.914
15326WAT      O46219   3.950   5.843   3.786
15326WAT     H146220   3.921   5.923   3.838
15326WAT     H246221   3.975   5.870   3.693
15327WAT      O46222   2.741   1.023   3.372
15327WAT     H146223   2.724   0.935   3.418
15327WAT     H246224   2.774   1.089   3.439
15328WAT      O46225   0.010   5.801   6.950
15328WAT     H146226  -0.055   5.769   6.880
15328WAT     H246227   0.076   5.863   6.909
15329WAT      O46228   3.349   5.329   9.826
15329WAT     H146229   3.256   5.323   9.788
15329WAT     H246230   3.411   5.365   9.756
15330WAT      O46231   0.939   8.677   8.700
15330WAT     H146232   0.843   8.682   8.727
15330WAT     H246233   0.945   8.645   8.605
15331WAT      O46234   5.727   0.185   7.813
15331WAT     H146235   5.775   0.258   7.764
15331WAT     H246236   5.769   0.097   7.790
15332WAT      O46237   6.647   6.935   9.757
15332WAT     H146238   6.616   6.895   9.671
15332WAT     H246239   6.571   6.939   9.821
15333WAT      O46240   6.550   1.005   3.034
15333WAT     H146241   6.526   1.075   3.101
15333WAT     H246242   6.555   1.046   2.943
15334WAT      O46243   6.426   4.455   6.356
15334WAT     H146244   6.453   4.440   6.451
15334WAT     H246245   6.452   4.548   6.328
15335WAT      O46246   9.536   8.434   3.646
15335WAT     H146247   9.472   8.491   3.698
15335WAT     H246248   9.488   8.352   3.613
15336WAT      O46249   0.592   5.048   9.021
15336WAT     H146250   0.636   4.983   8.958
15336WAT     H246251   0.540   5.115   8.968
15337WAT      O46252   1.730   7.593   6.446
15337WAT     H146253   1.794   7.665   6.420
15337WAT     H246254   1.638   7.618   6.415
15338WAT      O46255   0.751   6.445   6.779
15338WAT     H146256   0.708   6.534   6.765
15338WAT     H246257   0.691   6.387   6.835
15339WAT      O46258   1.517   2.250   7.930
15339WAT     H146259   1.538   2.153   7.931
15339WAT     H246260   1.593   2.301   7.972
15340WAT      O46261   6.888   8.368   3.365
15340WAT     H146262   6.866   8.409   3.454
15340WAT     H246263   6.956   8.424   3.319
15341WAT      O46264   7.125   3.414   3.489
15341WAT     H146265   7.085   3.357   3.561
15341WAT     H246266   7.202   3.365   3.447
15342WAT      O46267   7.690   8.847   4.565
15342WAT     H146268   7.659   8.792   4.487
15342WAT     H246269   7.726   8.787   4.636
15343WAT      O46270   4.213   5.542   2.387
15343WAT     H146271   4.299   5.593   2.375
15343WAT     H246272   4.233   5.446   2.403
15344WAT      O46273   7.756   3.543   4.033
15344WAT     H146274   7.792   3.634   4.016
15344WAT     H246275   7.815   3.474   3.991
15345WAT      O46276   7.917   0.396   1.136
15345WAT     H146277   7.890   0.395   1.232
15345WAT     H246278   7.932   0.491   1.107
15346WAT      O46279   7.850   5.182   3.446
15346WAT     H146280   7.764   5.140   3.477
15346WAT     H246281   7.909   5.111   3.408
15347WAT      O46282   0.010   5.310   8.418
15347WAT     H146283   0.038   5.396   8.461
15347WAT     H246284   0.091   5.255   8.398
15348WAT      O46285   2.823   3.177   8.731
15348WAT     H146286   2.842   3.079   8.734
15348WAT     H246287   2.764   3.198   8.653
15349WAT      O46288   4.871   6.342   4.506
15349WAT     H146289   4.925   6.310   4.584
15349WAT     H246290   4.894   6.436   4.484
15350WAT      O46291   1.441   4.294   2.884
15350WAT     H146292   1.357   4.294   2.939
15350WAT     H246293   1.514   4.248   2.935
15351WAT      O46294   4.696   7.709   6.882
15351WAT     H146295   4.707   7.620   6.925
15351WAT     H246296   4.748   7.712   6.797
15352WAT      O46297   0.420   4.190   1.455
15352WAT     H146298   0.387   4.184   1.360
15352WAT     H246299   0.368   4.127   1.512
15353WAT      O46300   2.337   2.407   6.671
15353WAT     H146301   2.260   2.356   6.708
15353WAT     H246302   2.347   2.493   6.720
15354WAT      O46303   7.065   0.202   5.581
15354WAT     H146304   7.091   0.181   5.675
15354WAT     H246305   6.991   0.269   5.582
15355WAT      O46306   7.914   0.373   4.635
15355WAT     H146307   7.896   0.285   4.591
15355WAT     H246308   7.835   0.434   4.622
15356WAT      O46309   4.272   8.856   7.266
15356WAT     H146310   4.202   8.809   7.212
15356WAT     H246311   4.282   8.950   7.234
15357WAT      O46312   5.456   1.906   1.133
15357WAT     H146313   5.376   1.887   1.189
15357WAT     H246314   5.433   1.975   1.064
15358WAT      O46315   4.226   8.041   0.517
15358WAT     H146316   4.277   8.090   0.588
15358WAT     H246317   4.181   8.107   0.457
15359WAT      O46318   8.676   8.024   8.564
15359WAT     H146319   8.768   7.998   8.536
15359WAT     H246320   8.662   7.999   8.660
15360WAT      O46321   0.598   3.041   4.363
15360WAT     H146322   0.530   3.016   4.432
15360WAT     H246323   0.568   3.123   4.314
15361WAT      O46324   8.337   0.976   9.889
15361WAT     H146325   8.395   0.898   9.864
15361WAT     H246326   8.263   0.985   9.823
15362WAT      O46327   0.151   6.525   2.179
15362WAT     H146328   0.228   6.541   2.118
15362WAT     H246329   0.171   6.446   2.238
15363WAT      O46330   0.863   2.438   3.921
15363WAT     H146331   0.778   2.444   3.974
15363WAT     H246332   0.905   2.349   3.935
15364WAT      O46333   4.413   6.867   2.803
15364WAT     H146334   4.440   6.940   2.867
15364WAT     H246335   4.382   6.908   2.717
15365WAT      O46336   5.267   7.913   9.703
15365WAT     H146337   5.239   7.826   9.744
15365WAT     H246338   5.228   7.988   9.757
15366WAT      O46339   1.704   3.056   2.830
15366WAT     H146340   1.661   3.065   2.741
15366WAT     H246341   1.639   3.019   2.896
15367WAT      O46342   5.810   9.489   1.188
15367WAT     H146343   5.762   9.492   1.275
15367WAT     H246344   5.877   9.563   1.183
15368WAT      O46345   8.532   0.081   9.298
15368WAT     H146346   8.590   0.010   9.256
15368WAT     H246347   8.568   0.171   9.275
15369WAT      O46348   5.933   2.730   1.441
15369WAT     H146349   5.949   2.684   1.528
15369WAT     H246350   5.876   2.671   1.383
15370WAT      O46351   3.269   8.267   3.945
15370WAT     H146352   3.320   8.280   3.860
15370WAT     H246353   3.321   8.206   4.006
15371WAT      O46354   6.505   1.610   9.342
15371WAT     H146355   6.535   1.695   9.387
15371WAT     H246356   6.558   1.597   9.258
15372WAT      O46357   2.753   5.933   6.111
15372WAT     H146358   2.780   6.008   6.050
15372WAT     H246359   2.653   5.924   6.112
15373WAT      O46360   7.514   2.929   6.910
15373WAT     H146361   7.563   2.842   6.921
15373WAT     H246362   7.425   2.912   6.869
15374WAT      O46363   0.501   5.243   0.173
15374WAT     H146364   0.448   5.209   0.096
15374WAT     H246365   0.560   5.171   0.209
15375WAT      O46366   0.185   5.296   3.255
15375WAT     H146367   0.203   5.345   3.170
15375WAT     H246368   0.133   5.213   3.236
15376WAT      O46369   5.525   6.601   1.336
15376WAT     H146370   5.596   6.532   1.349
15376WAT     H246371   5.553   6.664   1.263
15377WAT      O46372   3.928   9.127   2.959
15377WAT     H146373   3.950   9.040   2.915
15377WAT     H246374   3.834   9.152   2.938
15378WAT      O46375   5.003   1.735   8.449
15378WAT     H146376   4.979   1.673   8.375
15378WAT     H246377   4.933   1.807   8.457
15379WAT      O46378   5.331   2.987   5.741
15379WAT     H146379   5.417   3.034   5.722
15379WAT     H246380   5.350   2.896   5.778
15380WAT      O46381   7.724   2.406   8.489
15380WAT     H146382   7.760   2.322   8.449
15380WAT     H246383   7.774   2.427   8.573
15381WAT      O46384   4.919   0.936   3.845
15381WAT     H146385   4.872   0.871   3.904
15381WAT     H246386   4.985   0.887   3.787
15382WAT      O46387   2.055   5.370   2.520
15382WAT     H146388   1.962   5.381   2.484
15382WAT     H246389   2.108   5.311   2.458
15383WAT      O46390   2.042   5.388   1.847
15383WAT     H146391   1.963   5.330   1.826
15383WAT     H246392   2.034   5.422   1.941
15384WAT      O46393   4.252   6.298   9.543
15384WAT     H146394   4.334   6.289   9.487
15384WAT     H246395   4.202   6.380   9.516
15385WAT      O46396   9.683   0.593   2.397
15385WAT     H146397   9.661   0.675   2.344
15385WAT     H246398   9.614   0.523   2.381
15386WAT      O46399   2.103   5.544   1.633
15386WAT     H146400   2.092   5.482   1.711
15386WAT     H246401   2.066   5.633   1.656
15387WAT      O46402   7.918   5.923   4.492
15387WAT     H146403   7.891   5.837   4.536
15387WAT     H246404   8.018   5.926   4.484
15388WAT      O46405   9.635   6.170   8.301
15388WAT     H146406   9.641   6.231   8.380
15388WAT     H246407   9.571   6.209   8.234
15389WAT      O46408   0.794   9.094   8.655
15389WAT     H146409   0.840   9.130   8.737
15389WAT     H246410   0.827   9.143   8.574
15390WAT      O46411   7.657   7.615   0.494
15390WAT     H146412   7.720   7.542   0.466
15390WAT     H246413   7.670   7.635   0.591
15391WAT      O46414   3.390   7.515   6.417
15391WAT     H146415   3.371   7.509   6.515
15391WAT     H246416   3.410   7.609   6.392
15392WAT      O46417   9.791   8.147   6.065
15392WAT     H146418   9.748   8.058   6.057
15392WAT     H246419   9.868   8.142   6.129
15393WAT      O46420   7.090   2.019   0.175
15393WAT     H146421   7.112   2.116   0.185
15393WAT     H246422   7.173   1.970   0.146
15394WAT      O46423   3.810   1.790   4.360
15394WAT     H146424   3.870   1.820   4.286
15394WAT     H246425   3.864   1.776   4.443
15395WAT      O46426   3.440   8.532   6.146
15395WAT     H146427   3.506   8.520   6.220
15395WAT     H246428   3.412   8.628   6.141
15396WAT      O46429   8.791   8.313   6.433
15396WAT     H146430   8.737   8.256   6.495
15396WAT     H246431   8.791   8.272   6.341
15397WAT      O46432   0.447   5.974   7.357
15397WAT     H146433   0.450   6.007   7.451
15397WAT     H246434   0.401   5.885   7.354
15398WAT      O46435   3.809   0.866   0.344
15398WAT     H146436   3.710   0.868   0.361
15398WAT     H246437   3.854   0.930   0.406
15399WAT      O46438   4.929   9.156   6.807
15399WAT     H146439   4.896   9.122   6.895
15399WAT     H246440   5.017   9.114   6.787
15400WAT      O46441   4.788   3.336   0.136
15400WAT     H146442   4.769   3.434   0.143
15400WAT     H246443   4.886   3.321   0.152
15401WAT      O46444   8.828   4.645   6.323
15401WAT     H146445   8.829   4.741   6.297
15401WAT     H246446   8.808   4.636   6.420
15402WAT      O46447   1.011   4.792   5.980
15402WAT     H146448   0.984   4.866   6.042
15402WAT     H246449   1.044   4.714   6.034
15403WAT      O46450   7.812   1.579   2.643
15403WAT     H146451   7.797   1.483   2.667
15403WAT     H246452   7.854   1.585   2.553
15404WAT      O46453   8.711   8.159   8.193
15404WAT     H146454   8.764   8.239   8.164
15404WAT     H246455   8.685   8.105   8.112
15405WAT      O46456   6.570   5.319   2.170
15405WAT     H146457   6.517   5.401   2.148
15405WAT     H246458   6.638   5.303   2.099
15406WAT      O46459   0.094   6.293   1.452
15406WAT     H146460   0.130   6.228   1.384
15406WAT     H246461  -0.002   6.311   1.433
15407WAT      O46462   9.537   7.730   1.452
15407WAT     H146463   9.472   7.699   1.521
15407WAT     H246464   9.564   7.652   1.395
15408WAT      O46465   2.540   6.283   8.055
15408WAT     H146466   2.547   6.263   7.957
15408WAT     H246467   2.580   6.373   8.073
15409WAT      O46468   9.459   7.192   2.024
15409WAT     H146469   9.408   7.107   2.010
15409WAT     H246470   9.538   7.175   2.081
15410WAT      O46471   0.851   2.977   5.396
15410WAT     H146472   0.840   2.891   5.347
15410WAT     H246473   0.933   3.024   5.363
15411WAT      O46474   8.155   0.801   2.991
15411WAT     H146475   8.112   0.872   3.047
15411WAT     H246476   8.231   0.761   3.041
15412WAT      O46477   8.294   1.803   3.475
15412WAT     H146478   8.344   1.835   3.395
15412WAT     H246479   8.202   1.776   3.448
15413WAT      O46480   1.217   8.022   3.816
15413WAT     H146481   1.160   7.980   3.887
15413WAT     H246482   1.310   7.986   3.823
15414WAT      O46483   5.682   8.873   8.216
15414WAT     H146484   5.681   8.943   8.288
15414WAT     H246485   5.776   8.858   8.185
15415WAT      O46486   6.231   3.381   3.157
15415WAT     H146487   6.281   3.353   3.075
15415WAT     H246488   6.132   3.372   3.141
15416WAT      O46489   8.437   2.438   4.206
15416WAT     H146490   8.441   2.384   4.290
15416WAT     H246491   8.472   2.384   4.129
15417WAT      O46492   9.028   8.753   5.302
15417WAT     H146493   8.999   8.845   5.274
15417WAT     H246494   8.949   8.705   5.342
15418WAT      O46495   1.901   5.348   9.773
15418WAT     H146496   1.972   5.370   9.706
15418WAT     H246497   1.853   5.431   9.799
15419WAT      O46498   9.555   7.835   9.513
15419WAT     H146499   9.609   7.774   9.571
15419WAT     H246500   9.589   7.831   9.419
15420WAT      O46501   5.693   1.137   0.244
15420WAT     H146502   5.789   1.125   0.265
15420WAT     H246503   5.640   1.138   0.329
15421WAT      O46504   8.448   4.722   3.924
15421WAT     H146505   8.473   4.802   3.977
15421WAT     H246506   8.457   4.742   3.826
15422WAT      O46507   3.174   0.077   8.221
15422WAT     H146508   3.187   0.032   8.309
15422WAT     H246509   3.258   0.069   8.167
15423WAT      O46510   9.441   6.211   1.041
15423WAT     H146511   9.349   6.177   1.023
15423WAT     H246512   9.459   6.290   0.983
15424WAT      O46513   3.721   8.199   8.828
15424WAT     H146514   3.770   8.286   8.832
15424WAT     H246515   3.707   8.164   8.920
15425WAT      O46516   2.131   2.962   6.218
15425WAT     H146517   2.097   3.048   6.257
15425WAT     H246518   2.105   2.957   6.121
15426WAT      O46519   6.040   9.285   0.066
15426WAT     H146520   5.983   9.345   0.121
15426WAT     H246521   6.127   9.330   0.046
15427WAT      O46522   9.417   9.335   9.402
15427WAT     H146523   9.367   9.249   9.398
15427WAT     H246524   9.427   9.363   9.498
15428WAT      O46525   2.908   0.836   1.853
15428WAT     H146526   2.891   0.786   1.768
15428WAT     H246527   2.832   0.820   1.916
15429WAT      O46528   0.983   5.079   7.446
15429WAT     H146529   0.939   5.004   7.495
15429WAT     H246530   0.925   5.160   7.450
15430WAT      O46531   4.437   1.887   1.917
15430WAT     H146532   4.393   1.917   2.001
15430WAT     H246533   4.482   1.966   1.874
15431WAT      O46534   8.252   3.522   6.263
15431WAT     H146535   8.268   3.442   6.320
15431WAT     H246536   8.319   3.523   6.188
15432WAT      O46537   7.011   2.839   9.650
15432WAT     H146538   7.017   2.939   9.649
15432WAT     H246539   7.087   2.802   9.704
15433WAT      O46540   1.019   8.296   4.343
15433WAT     H146541   0.942   8.297   4.406
15433WAT     H246542   1.103   8.274   4.393
15434WAT      O46543   1.921   3.495   1.131
15434WAT     H146544   1.926   3.520   1.034
15434WAT     H246545   1.982   3.418   1.149
15435WAT      O46546   0.159   9.176   2.123
15435WAT     H146547   0.258   9.181   2.109
15435WAT     H246548   0.139   9.112   2.197
15436WAT      O46549   3.515   9.338   0.056
15436WAT     H146550   3.581   9.322  -0.018
15436WAT     H246551   3.502   9.253   0.108
15437WAT      O46552   7.319   4.038   4.857
15437WAT     H146553   7.394   4.031   4.922
15437WAT     H246554   7.237   3.997   4.897
15438WAT      O46555   1.936   6.817   7.250
15438WAT     H146556   1.966   6.829   7.344
15438WAT     H246557   2.015   6.794   7.192
15439WAT      O46558   6.031   4.636   7.932
15439WAT     H146559   6.081   4.708   7.883
15439WAT     H246560   5.981   4.676   8.009
15440WAT      O46561   6.355   2.216   2.115
15440WAT     H146562   6.397   2.166   2.190
15440WAT     H246563   6.422   2.278   2.074
15441WAT      O46564   3.072   4.026   0.049
15441WAT     H146565   3.047   4.007   0.144
15441WAT     H246566   3.161   3.986   0.029
15442WAT      O46567   7.423   7.484   2.547
15442WAT     H146568   7.454   7.422   2.619
15442WAT     H246569   7.395   7.431   2.467
15443WAT      O46570   2.713   8.563   3.122
15443WAT     H146571   2.747   8.533   3.033
15443WAT     H246572   2.768   8.639   3.155
15444WAT      O46573   9.511   1.047   4.164
15444WAT     H146574   9.569   1.076   4.088
15444WAT     H246575   9.525   0.949   4.180
15445WAT      O46576   8.796   2.002   7.496
15445WAT     H146577   8.859   1.924   7.502
15445WAT     H246578   8.840   2.075   7.444
15446WAT      O46579   6.581   3.976   8.457
15446WAT     H146580   6.530   4.043   8.403
15446WAT     H246581   6.523   3.943   8.532
15447WAT      O46582   1.516   1.035   4.419
15447WAT     H146583   1.586   1.067   4.484
15447WAT     H246584   1.436   1.095   4.423
15448WAT      O46585   0.401   5.946   2.550
15448WAT     H146586   0.410   5.929   2.452
15448WAT     H246587   0.421   6.042   2.569
15449WAT      O46588   0.987   7.391   1.789
15449WAT     H146589   0.898   7.346   1.786
15449WAT     H246590   0.985   7.474   1.734
15450WAT      O46591   4.343   8.276   3.750
15450WAT     H146592   4.438   8.251   3.771
15450WAT     H246593   4.317   8.236   3.662
15451WAT      O46594   5.707   2.354   6.949
15451WAT     H146595   5.628   2.330   7.005
15451WAT     H246596   5.692   2.321   6.856
15452WAT      O46597   4.359   4.679   2.503
15452WAT     H146598   4.267   4.666   2.466
15452WAT     H246599   4.421   4.704   2.429
15453WAT      O46600   5.701   3.207   2.798
15453WAT     H146601   5.737   3.119   2.830
15453WAT     H246602   5.705   3.273   2.873
15454WAT      O46603   4.604   9.447   7.829
15454WAT     H146604   4.636   9.380   7.896
15454WAT     H246605   4.623   9.539   7.862
15455WAT      O46606   1.662   5.698   3.059
15455WAT     H146607   1.758   5.699   3.088
15455WAT     H246608   1.625   5.791   3.064
15456WAT      O46609   7.816   4.224   9.036
15456WAT     H146610   7.805   4.206   9.134
15456WAT     H246611   7.914   4.224   9.014
15457WAT      O46612   5.702   7.402   5.893
15457WAT     H146613   5.676   7.351   5.811
15457WAT     H246614   5.797   7.381   5.917
15458WAT      O46615   5.825   3.406   1.832
15458WAT     H146616   5.842   3.485   1.891
15458WAT     H246617   5.735   3.416   1.789
15459WAT      O46618   2.964   2.603   2.466
15459WAT     H146619   2.951   2.599   2.367
15459WAT     H246620   2.959   2.698   2.497
15460WAT      O46621   8.706   9.743   3.794
15460WAT     H146622   8.773   9.726   3.722
15460WAT     H246623   8.721   9.834   3.832
15461WAT      O46624   4.963   3.842   2.070
15461WAT     H146625   4.976   3.912   2.139
15461WAT     H246626   4.993   3.753   2.106
15462WAT      O46627   2.843   0.615   6.409
15462WAT     H146628   2.766   0.678   6.404
15462WAT     H246629   2.884   0.619   6.500
15463WAT      O46630   1.196   8.726   9.354
15463WAT     H146631   1.240   8.653   9.301
15463WAT     H246632   1.132   8.776   9.296
15464WAT      O46633   5.767   6.748   3.164
15464WAT     H146634   5.777   6.828   3.223
15464WAT     H246635   5.801   6.770   3.073
15465WAT      O46636   2.139   6.765   7.093
15465WAT     H146637   2.208   6.836   7.097
15465WAT     H246638   2.108   6.752   6.999
15466WAT      O46639   4.517   4.774   2.300
15466WAT     H146640   4.565   4.826   2.228
15466WAT     H246641   4.478   4.691   2.260
15467WAT      O46642   1.428   0.858   3.360
15467WAT     H146643   1.411   0.770   3.404
15467WAT     H246644   1.524   0.884   3.373
15468WAT      O46645   8.458   2.693   9.148
15468WAT     H146646   8.395   2.744   9.089
15468WAT     H246647   8.509   2.626   9.093
15469WAT      O46648   2.194   2.849   7.539
15469WAT     H146649   2.139   2.916   7.488
15469WAT     H246650   2.134   2.798   7.601
15470WAT      O46651   6.729   3.018   8.676
15470WAT     H146652   6.781   3.094   8.715
15470WAT     H246653   6.775   2.932   8.697
15471WAT      O46654   8.205   3.193   5.144
15471WAT     H146655   8.136   3.229   5.081
15471WAT     H246656   8.289   3.174   5.095
15472WAT      O46657   6.915   1.734   8.260
15472WAT     H146658   6.825   1.772   8.239
15472WAT     H246659   6.943   1.671   8.188
15473WAT      O46660   0.961   8.020   9.764
15473WAT     H146661   0.925   8.043   9.673
15473WAT     H246662   0.984   7.922   9.766
15474WAT      O46663   7.855   9.405   3.689
15474WAT     H146664   7.847   9.378   3.594
15474WAT     H246665   7.789   9.355   3.744
15475WAT      O46666   5.359   2.780   6.256
15475WAT     H146667   5.346   2.876   6.232
15475WAT     H246668   5.370   2.772   6.355
15476WAT      O46669   1.794   2.068   7.305
15476WAT     H146670   1.753   2.105   7.221
15476WAT     H246671   1.893   2.060   7.292
15477WAT      O46672   5.285   4.415   8.871
15477WAT     H146673   5.381   4.406   8.844
15477WAT     H246674   5.254   4.329   8.912
15478WAT      O46675   6.016   3.071   0.696
15478WAT     H146676   5.921   3.098   0.715
15478WAT     H246677   6.040   3.100   0.603
15479WAT      O46678   6.171   4.726   9.279
15479WAT     H146679   6.106   4.799   9.299
15479WAT     H246680   6.259   4.747   9.321
15480WAT      O46681   9.669   0.546   4.505
15480WAT     H146682   9.706   0.498   4.585
15480WAT     H246683   9.744   0.591   4.456
15481WAT      O46684   8.043   8.438   3.596
15481WAT     H146685   8.051   8.415   3.499
15481WAT     H246686   8.004   8.529   3.606
15482WAT      O46687   3.556   8.242   9.592
15482WAT     H146688   3.600   8.223   9.504
15482WAT     H246689   3.457   8.239   9.581
15483WAT      O46690   9.421   1.181   9.813
15483WAT     H146691   9.479   1.101   9.828
15483WAT     H246692   9.454   1.257   9.869
15484WAT      O46693   4.065   9.312   5.416
15484WAT     H146694   3.966   9.327   5.419
15484WAT     H246695   4.108   9.362   5.492
15485WAT      O46696   8.444   2.438   6.771
15485WAT     H146697   8.417   2.348   6.736
15485WAT     H246698   8.528   2.429   6.824
15486WAT      O46699   8.459   8.168   2.004
15486WAT     H146700   8.520   8.192   2.078
15486WAT     H246701   8.366   8.157   2.039
15487WAT      O46702   3.081   3.074   2.316
15487WAT     H146703   3.178   3.054   2.335
15487WAT     H246704   3.035   3.097   2.402
15488WAT      O46705   4.352   9.724   7.370
15488WAT     H146706   4.319   9.813   7.402
15488WAT     H246707   4.437   9.736   7.319
15489WAT      O46708   0.255   2.151   2.180
15489WAT     H146709   0.329   2.130   2.243
15489WAT     H246710   0.170   2.110   2.215
15490WAT      O46711   7.152   8.782   4.627
15490WAT     H146712   7.229   8.757   4.568
15490WAT     H246713   7.184   8.795   4.721
15491WAT      O46714   1.645   8.654   0.664
15491WAT     H146715   1.741   8.632   0.648
15491WAT     H246716   1.587   8.595   0.608
15492WAT      O46717   1.009   8.346   7.343
15492WAT     H146718   1.093   8.300   7.371
15492WAT     H246719   0.941   8.278   7.315
15493WAT      O46720   7.485   9.444   4.780
15493WAT     H146721   7.389   9.460   4.759
15493WAT     H246722   7.502   9.464   4.877
15494WAT      O46723   2.697   6.323   6.135
15494WAT     H146724   2.731   6.265   6.061
15494WAT     H246725   2.623   6.275   6.183
15495WAT      O46726   6.063   1.335   8.008
15495WAT     H146727   5.999   1.278   8.060
15495WAT     H246728   6.131   1.277   7.963
15496WAT      O46729   5.614   3.345   6.434
15496WAT     H146730   5.584   3.407   6.506
15496WAT     H246731   5.561   3.260   6.439
15497WAT      O46732   1.532   0.119   4.324
15497WAT     H146733   1.616   0.173   4.326
15497WAT     H246734   1.453   0.179   4.339
15498WAT      O46735   2.970   9.033   5.755
15498WAT     H146736   2.940   8.967   5.687
15498WAT     H246737   2.977   9.124   5.713
15499WAT      O46738   9.677   8.303   1.882
15499WAT     H146739   9.654   8.392   1.920
15499WAT     H246740   9.599   8.241   1.893
15500WAT      O46741   6.113   4.566   6.131
15500WAT     H146742   6.058   4.642   6.166
15500WAT     H246743   6.101   4.486   6.190
15501WAT      O46744   0.209   2.776   1.919
15501WAT     H146745   0.205   2.810   1.825
15501WAT     H246746   0.268   2.696   1.924
15502WAT      O46747   8.922   6.209   0.884
15502WAT     H146748   9.015   6.189   0.913
15502WAT     H246749   8.888   6.135   0.826
15503WAT      O46750   3.596   9.103   7.014
15503WAT     H146751   3.606   9.019   7.068
15503WAT     H246752   3.519   9.093   6.951
15504WAT      O46753   2.932   7.625   2.237
15504WAT     H146754   2.859   7.678   2.279
15504WAT     H246755   2.924   7.630   2.138
15505WAT      O46756   8.103   5.025   6.147
15505WAT     H146757   8.030   5.052   6.084
15505WAT     H246758   8.123   5.101   6.209
15506WAT      O46759   4.067   6.988   0.138
15506WAT     H146760   4.126   7.041   0.077
15506WAT     H246761   4.083   7.016   0.232
15507WAT      O46762   9.079   8.036   4.102
15507WAT     H146763   9.132   8.120   4.113
15507WAT     H246764   8.982   8.059   4.093
15508WAT      O46765   9.862   6.651   6.570
15508WAT     H146766   9.893   6.729   6.626
15508WAT     H246767   9.940   6.612   6.523
15509WAT      O46768   4.966   0.169   5.543
15509WAT     H146769   5.014   0.253   5.566
15509WAT     H246770   4.954   0.162   5.444
15510WAT      O46771   0.587   6.967   6.435
15510WAT     H146772   0.517   6.897   6.443
15510WAT     H246773   0.569   7.040   6.502
15511WAT      O46774   7.013   2.697   4.772
15511WAT     H146775   7.080   2.692   4.846
15511WAT     H246776   7.059   2.685   4.684
15512WAT      O46777   0.014   4.788   1.394
15512WAT     H146778  -0.023   4.738   1.473
15512WAT     H246779  -0.062   4.829   1.344
15513WAT      O46780   3.042   7.997   5.939
15513WAT     H146781   3.090   7.910   5.921
15513WAT     H246782   3.107   8.072   5.932
15514WAT      O46783   8.061   6.071   7.394
15514WAT     H146784   8.047   6.170   7.384
15514WAT     H246785   8.107   6.053   7.481
15515WAT      O46786   5.402   6.335   8.689
15515WAT     H146787   5.489   6.290   8.710
15515WAT     H246788   5.331   6.301   8.751
15516WAT      O46789   6.124   2.455   3.530
15516WAT     H146790   6.071   2.474   3.612
15516WAT     H246791   6.091   2.370   3.487
15517WAT      O46792   4.941   0.243   6.351
15517WAT     H146793   4.864   0.299   6.322
15517WAT     H246794   4.958   0.257   6.449
15518WAT      O46795   6.902   1.539   3.897
15518WAT     H146796   6.833   1.507   3.833
15518WAT     H246797   6.931   1.632   3.872
15519WAT      O46798   6.273   1.410   0.251
15519WAT     H146799   6.335   1.488   0.251
15519WAT     H246800   6.325   1.325   0.263
15520WAT      O46801   2.446   6.181   2.517
15520WAT     H146802   2.426   6.165   2.614
15520WAT     H246803   2.535   6.140   2.494
15521WAT      O46804   8.890   8.263   6.132
15521WAT     H146805   8.978   8.307   6.153
15521WAT     H246806   8.906   8.171   6.096
15522WAT      O46807   8.551   3.788   6.955
15522WAT     H146808   8.589   3.845   6.882
15522WAT     H246809   8.505   3.709   6.914
15523WAT      O46810   8.498   4.234   1.074
15523WAT     H146811   8.452   4.320   1.051
15523WAT     H246812   8.471   4.205   1.165
15524WAT      O46813   7.675   2.144   2.243
15524WAT     H146814   7.773   2.143   2.225
15524WAT     H246815   7.633   2.223   2.197
15525WAT      O46816   5.363   6.568   9.609
15525WAT     H146817   5.271   6.533   9.592
15525WAT     H246818   5.422   6.494   9.639
15526WAT      O46819   6.634   2.120   7.543
15526WAT     H146820   6.537   2.144   7.541
15526WAT     H246821   6.689   2.199   7.516
15527WAT      O46822   7.807   3.956   1.130
15527WAT     H146823   7.739   3.911   1.073
15527WAT     H246824   7.810   4.054   1.108
15528WAT      O46825   7.649   1.808   0.874
15528WAT     H146826   7.677   1.716   0.845
15528WAT     H246827   7.727   1.853   0.918
15529WAT      O46828   5.412   6.835   8.335
15529WAT     H146829   5.341   6.785   8.286
15529WAT     H246830   5.479   6.870   8.269
15530WAT      O46831   6.494   3.261   7.353
15530WAT     H146832   6.500   3.345   7.406
15530WAT     H246833   6.586   3.229   7.332
15531WAT      O46834   1.620   4.011   8.156
15531WAT     H146835   1.594   3.935   8.215
15531WAT     H246836   1.719   4.011   8.144
15532WAT      O46837   2.358   7.704   9.058
15532WAT     H146838   2.399   7.767   8.992
15532WAT     H246839   2.265   7.732   9.077
15533WAT      O46840   3.978   9.329   2.345
15533WAT     H146841   4.036   9.311   2.265
15533WAT     H246842   3.884   9.345   2.315
15534WAT      O46843   6.392   9.022   1.185
15534WAT     H146844   6.375   9.098   1.247
15534WAT     H246845   6.465   9.046   1.121
15535WAT      O46846   3.519   8.216   1.166
15535WAT     H146847   3.534   8.245   1.261
15535WAT     H246848   3.430   8.250   1.135
15536WAT      O46849   0.257   1.852   1.306
15536WAT     H146850   0.300   1.898   1.384
15536WAT     H246851   0.273   1.906   1.223
15537WAT      O46852   3.697   1.662   7.442
15537WAT     H146853   3.716   1.694   7.535
15537WAT     H246854   3.742   1.721   7.376
15538WAT      O46855   5.981   6.511   1.803
15538WAT     H146856   6.038   6.542   1.880
15538WAT     H246857   5.959   6.588   1.744
15539WAT      O46858   2.982   1.124   3.891
15539WAT     H146859   2.890   1.129   3.852
15539WAT     H246860   3.036   1.058   3.839
15540WAT      O46861   4.204   3.340   2.647
15540WAT     H146862   4.218   3.254   2.696
15540WAT     H246863   4.137   3.327   2.574
15541WAT      O46864   8.191   9.121   9.257
15541WAT     H146865   8.227   9.029   9.272
15541WAT     H246866   8.161   9.159   9.345
15542WAT      O46867   3.633   7.809   5.954
15542WAT     H146868   3.620   7.865   6.035
15542WAT     H246869   3.570   7.731   5.957
15543WAT      O46870   4.474   5.295   2.255
15543WAT     H146871   4.402   5.293   2.324
15543WAT     H246872   4.467   5.379   2.201
15544WAT      O46873   4.511   8.173   5.243
15544WAT     H146874   4.474   8.173   5.151
15544WAT     H246875   4.437   8.161   5.309
15545WAT      O46876   9.594   4.156   6.044
15545WAT     H146877   9.542   4.096   6.106
15545WAT     H246878   9.689   4.128   6.042
15546WAT      O46879   2.287   6.287   3.324
15546WAT     H146880   2.213   6.237   3.278
15546WAT     H246881   2.375   6.258   3.285
15547WAT      O46882   8.981   2.817   3.923
15547WAT     H146883   9.035   2.894   3.889
15547WAT     H246884   9.023   2.780   4.006
15548WAT      O46885   2.419   5.057   4.622
15548WAT     H146886   2.442   4.983   4.686
15548WAT     H246887   2.328   5.093   4.645
15549WAT      O46888   3.827   2.512   1.430
15549WAT     H146889   3.874   2.434   1.470
15549WAT     H246890   3.793   2.487   1.339
15550WAT      O46891   4.401   6.622   0.912
15550WAT     H146892   4.327   6.568   0.873
15550WAT     H246893   4.367   6.713   0.935
15551WAT      O46894   0.892   1.125   3.014
15551WAT     H146895   0.974   1.113   2.958
15551WAT     H246896   0.812   1.093   2.964
15552WAT      O46897   5.748   8.802   9.305
15552WAT     H146898   5.698   8.745   9.371
15552WAT     H246899   5.806   8.743   9.249
15553WAT      O46900   4.044   7.024   5.294
15553WAT     H146901   4.120   7.087   5.309
15553WAT     H246902   4.025   6.973   5.378
15554WAT      O46903   5.565   0.710   4.962
15554WAT     H146904   5.491   0.654   4.997
15554WAT     H246905   5.638   0.715   5.031
15555WAT      O46906   8.125   5.845   8.406
15555WAT     H146907   8.128   5.843   8.306
15555WAT     H246908   8.030   5.848   8.437
15556WAT      O46909   5.329   7.568   6.221
15556WAT     H146910   5.271   7.605   6.149
15556WAT     H246911   5.386   7.495   6.183
15557WAT      O46912   3.572   6.889   1.440
15557WAT     H146913   3.550   6.967   1.499
15557WAT     H246914   3.635   6.828   1.488
15558WAT      O46915   5.499   8.515   3.916
15558WAT     H146916   5.409   8.543   3.949
15558WAT     H246917   5.499   8.514   3.816
15559WAT      O46918   1.790   3.071   6.242
15559WAT     H146919   1.773   3.073   6.144
15559WAT     H246920   1.882   3.106   6.261
15560WAT      O46921   1.255   8.137   8.197
15560WAT     H146922   1.161   8.167   8.216
15560WAT     H246923   1.269   8.132   8.098
15561WAT      O46924   0.043   5.588   0.404
15561WAT     H146925   0.028   5.582   0.306
15561WAT     H246926   0.089   5.506   0.437
15562WAT      O46927   0.503   3.319   8.329
15562WAT     H146928   0.420   3.337   8.382
15562WAT     H246929   0.482   3.259   8.252
15563WAT      O46930   4.949   6.515   4.825
15563WAT     H146931   4.904   6.583   4.768
15563WAT     H246932   5.039   6.549   4.852
15564WAT      O46933   5.032   3.175   9.061
15564WAT     H146934   5.012   3.158   9.158
15564WAT     H246935   5.065   3.269   9.050
15565WAT      O46936   1.383   7.820   0.335
15565WAT     H146937   1.447   7.826   0.259
15565WAT     H246938   1.424   7.861   0.417
15566WAT      O46939   1.651   4.172   3.112
15566WAT     H146940   1.615   4.179   3.205
15566WAT     H246941   1.690   4.260   3.085
15567WAT      O46942   2.891   0.417   0.976
15567WAT     H146943   2.818   0.413   0.908
15567WAT     H246944   2.960   0.483   0.947
15568WAT      O46945   7.678   8.781   0.212
15568WAT     H146946   7.613   8.809   0.282
15568WAT     H246947   7.664   8.836   0.130
15569WAT      O46948   0.020   0.059   1.861
15569WAT     H146949  -0.021   0.082   1.949
15569WAT     H246950   0.012   0.138   1.799
15570WAT      O46951   5.967   0.457   5.953
15570WAT     H146952   5.963   0.457   6.053
15570WAT     H246953   5.880   0.428   5.916
15571WAT      O46954   3.373   1.496   4.559
15571WAT     H146955   3.459   1.521   4.603
15571WAT     H246956   3.386   1.493   4.460
15572WAT      O46957   6.961   4.308   3.726
15572WAT     H146958   6.947   4.366   3.807
15572WAT     H246959   6.908   4.224   3.737
15573WAT      O46960   2.618   7.171   7.528
15573WAT     H146961   2.560   7.121   7.463
15573WAT     H246962   2.714   7.156   7.506
15574WAT      O46963   6.996   0.866   6.189
15574WAT     H146964   7.014   0.861   6.287
15574WAT     H246965   7.073   0.911   6.143
15575WAT      O46966   8.007   3.206   7.489
15575WAT     H146967   8.070   3.168   7.421
15575WAT     H246968   8.051   3.283   7.535
15576WAT      O46969   2.978   6.703   8.566
15576WAT     H146970   2.949   6.773   8.501
15576WAT     H246971   2.942   6.614   8.537
15577WAT      O46972   3.151   8.433   5.222
15577WAT     H146973   3.140   8.512   5.161
15577WAT     H246974   3.239   8.389   5.202
15578WAT      O46975   5.655   5.465   8.698
15578WAT     H146976   5.617   5.481   8.607
15578WAT     H246977   5.638   5.371   8.727
15579WAT      O46978   7.612   1.778   0.534
15579WAT     H146979   7.575   1.801   0.624
15579WAT     H246980   7.706   1.746   0.543
15580WAT      O46981   6.724   3.892   0.398
15580WAT     H146982   6.817   3.927   0.406
15580WAT     H246983   6.684   3.883   0.490
15581WAT      O46984   4.732   1.518   1.434
15581WAT     H146985   4.681   1.553   1.513
15581WAT     H246986   4.710   1.572   1.353
15582WAT      O46987   5.318   8.770   3.959
15582WAT     H146988   5.308   8.854   4.012
15582WAT     H246989   5.283   8.693   4.012
15583WAT      O46990   1.433   6.004   1.108
15583WAT     H146991   1.388   6.050   1.185
15583WAT     H246992   1.519   5.964   1.139
15584WAT      O46993   4.972   8.636   4.627
15584WAT     H146994   4.879   8.648   4.660
15584WAT     H246995   5.005   8.545   4.650
15585WAT      O46996   7.856   1.958   9.879
15585WAT     H146997   7.758   1.950   9.895
15585WAT     H246998   7.886   2.051   9.897
15586WAT      O46999   6.132   9.612   9.851
15586WAT     H147000   6.181   9.544   9.905
15586WAT     H247001   6.198   9.670   9.802
15587WAT      O47002   7.492   2.522   7.954
15587WAT     H147003   7.511   2.617   7.979
15587WAT     H247004   7.396   2.513   7.928
15588WAT      O47005   7.588   7.400   9.788
15588WAT     H147006   7.615   7.372   9.880
15588WAT     H247007   7.661   7.375   9.723
15589WAT      O47008   3.827   2.323   7.897
15589WAT     H147009   3.863   2.236   7.864
15589WAT     H247010   3.788   2.374   7.820
15590WAT      O47011   3.719   7.177   0.559
15590WAT     H147012   3.631   7.132   0.542
15590WAT     H247013   3.717   7.270   0.523
15591WAT      O47014   4.918   3.667   9.835
15591WAT     H147015   4.943   3.704   9.924
15591WAT     H247016   4.825   3.630   9.839
15592WAT      O47017   1.712   5.251   1.790
15592WAT     H147018   1.626   5.245   1.841
15592WAT     H247019   1.694   5.240   1.692
15593WAT      O47020   7.074   1.881   2.354
15593WAT     H147021   7.017   1.808   2.317
15593WAT     H247022   7.019   1.963   2.368
15594WAT      O47023   8.869   5.980   5.561
15594WAT     H147024   8.773   5.998   5.583
15594WAT     H247025   8.888   5.882   5.570
15595WAT      O47026   2.234   4.292   5.828
15595WAT     H147027   2.257   4.227   5.756
15595WAT     H247028   2.236   4.247   5.917
15596WAT      O47029   2.515   7.397   7.132
15596WAT     H147030   2.427   7.398   7.083
15596WAT     H247031   2.502   7.437   7.223
15597WAT      O47032   4.595   4.380   0.317
15597WAT     H147033   4.640   4.426   0.241
15597WAT     H247034   4.507   4.344   0.286
15598WAT      O47035   9.087   5.671   4.960
15598WAT     H147036   9.069   5.573   4.967
15598WAT     H247037   9.048   5.718   5.039
15599WAT      O47038   4.460   9.348   5.473
15599WAT     H147039   4.435   9.445   5.478
15599WAT     H247040   4.555   9.337   5.503
15600WAT      O47041   3.366   6.032   4.180
15600WAT     H147042   3.275   6.015   4.217
15600WAT     H247043   3.395   6.125   4.201
15601WAT      O47044   6.706   7.172   2.076
15601WAT     H147045   6.641   7.098   2.057
15601WAT     H247046   6.765   7.186   1.996
15602WAT      O47047   9.189   6.705   7.713
15602WAT     H147048   9.108   6.646   7.704
15602WAT     H247049   9.251   6.666   7.781
15603WAT      O47050   2.905   7.078   0.612
15603WAT     H147051   2.842   7.070   0.535
15603WAT     H247052   2.853   7.074   0.697
15604WAT      O47053   0.303   2.165   4.888
15604WAT     H147054   0.328   2.196   4.797
15604WAT     H247055   0.246   2.233   4.933
15605WAT      O47056   4.503   1.289   7.760
15605WAT     H147057   4.472   1.199   7.790
15605WAT     H247058   4.426   1.341   7.723
15606WAT      O47059   9.019   5.285   9.627
15606WAT     H147060   8.926   5.311   9.602
15606WAT     H247061   9.021   5.189   9.656
15607WAT      O47062   6.295   6.861   5.835
15607WAT     H147063   6.286   6.763   5.851
15607WAT     H247064   6.340   6.904   5.914
15608WAT      O47065   4.119   3.888   6.988
15608WAT     H147066   4.184   3.915   7.060
15608WAT     H247067   4.152   3.805   6.943
15609WAT      O47068   0.011   3.627   1.145
15609WAT     H147069   0.040   3.718   1.117
15609WAT     H247070  -0.088   3.618   1.136
15610WAT      O47071   2.820   5.995   0.028
15610WAT     H147072   2.821   6.079  -0.026
15610WAT     H247073   2.739   5.994   0.086
15611WAT      O47074   3.452   3.163   8.083
15611WAT     H147075   3.371   3.140   8.136
15611WAT     H247076   3.437   3.138   7.987
15612WAT      O47077   6.765   3.585   8.503
15612WAT     H147078   6.748   3.494   8.465
15612WAT     H247079   6.864   3.596   8.517
15613WAT      O47080   6.113   2.884   3.462
15613WAT     H147081   6.055   2.879   3.543
15613WAT     H247082   6.206   2.855   3.485
15614WAT      O47083   7.582   8.349   2.362
15614WAT     H147084   7.492   8.358   2.406
15614WAT     H247085   7.640   8.425   2.390
15615WAT      O47086   3.909   3.532   0.682
15615WAT     H147087   3.993   3.575   0.715
15615WAT     H247088   3.829   3.581   0.719
15616WAT      O47089   1.503   3.314   4.616
15616WAT     H147090   1.454   3.270   4.691
15616WAT     H247091   1.591   3.269   4.603
15617WAT      O47092   6.015   7.028   2.860
15617WAT     H147093   5.974   7.080   2.935
15617WAT     H247094   6.103   7.069   2.835
15618WAT      O47095   4.135   4.077   8.742
15618WAT     H147096   4.110   3.996   8.688
15618WAT     H247097   4.208   4.127   8.695
15619WAT      O47098   0.769   8.625   7.585
15619WAT     H147099   0.799   8.596   7.495
15619WAT     H247100   0.829   8.586   7.655
15620WAT      O47101   5.501   8.430   8.046
15620WAT     H147102   5.498   8.421   8.145
15620WAT     H247103   5.471   8.521   8.019
15621WAT      O47104   5.483   6.267   1.178
15621WAT     H147105   5.578   6.268   1.148
15621WAT     H247106   5.426   6.225   1.108
15622WAT      O47107   1.403   4.693   3.222
15622WAT     H147108   1.352   4.614   3.255
15622WAT     H247109   1.344   4.748   3.163
15623WAT      O47110   7.469   7.952   3.858
15623WAT     H147111   7.490   7.951   3.955
15623WAT     H247112   7.384   7.901   3.842
15624WAT      O47113   7.830   5.423   8.653
15624WAT     H147114   7.887   5.449   8.576
15624WAT     H247115   7.733   5.428   8.627
15625WAT      O47116   4.828   3.560   4.349
15625WAT     H147117   4.911   3.504   4.351
15625WAT     H247118   4.852   3.655   4.369
15626WAT      O47119   7.788   7.421   5.387
15626WAT     H147120   7.778   7.365   5.305
15626WAT     H247121   7.760   7.368   5.467
15627WAT      O47122   5.821   3.239   6.926
15627WAT     H147123   5.867   3.236   6.837
15627WAT     H247124   5.730   3.199   6.918
15628WAT      O47125   5.468   5.325   9.012
15628WAT     H147126   5.456   5.318   9.111
15628WAT     H247127   5.505   5.239   8.976
15629WAT      O47128   5.047   7.548   0.810
15629WAT     H147129   4.988   7.572   0.733
15629WAT     H247130   5.143   7.552   0.780
15630WAT      O47131   3.819   7.974   2.727
15630WAT     H147132   3.904   7.928   2.700
15630WAT     H247133   3.748   7.954   2.659
15631WAT      O47134   1.705   9.833   5.389
15631WAT     H147135   1.617   9.853   5.431
15631WAT     H247136   1.721   9.895   5.312
15632WAT      O47137   7.279   6.523   8.445
15632WAT     H147138   7.253   6.426   8.452
15632WAT     H247139   7.254   6.570   8.530
15633WAT      O47140   7.104   1.488   2.024
15633WAT     H147141   7.124   1.418   1.954
15633WAT     H247142   7.137   1.577   1.991
15634WAT      O47143   1.361   6.330   9.566
15634WAT     H147144   1.413   6.415   9.569
15634WAT     H247145   1.391   6.270   9.640
15635WAT      O47146   2.937   2.928   8.792
15635WAT     H147147   2.867   2.901   8.859
15635WAT     H247148   2.941   2.859   8.720
15636WAT      O47149   9.070   1.173   2.213
15636WAT     H147150   9.122   1.129   2.286
15636WAT     H247151   9.108   1.146   2.124
15637WAT      O47152   5.033   9.252   1.745
15637WAT     H147153   5.058   9.266   1.841
15637WAT     H247154   4.962   9.182   1.738
15638WAT      O47155   9.100   3.469   1.363
15638WAT     H147156   9.151   3.550   1.334
15638WAT     H247157   9.148   3.387   1.332
15639WAT      O47158   8.989   6.062   4.219
15639WAT     H147159   9.022   6.058   4.313
15639WAT     H247160   9.059   6.024   4.158
15640WAT      O47161   6.371   0.066   4.235
15640WAT     H147162   6.449   0.025   4.282
15640WAT     H247163   6.389   0.162   4.217
15641WAT      O47164   5.199   7.868   6.417
15641WAT     H147165   5.199   7.768   6.420
15641WAT     H247166   5.106   7.902   6.432
15642WAT      O47167   3.599   0.179   8.673
15642WAT     H147168   3.515   0.201   8.722
15642WAT     H247169   3.667   0.250   8.691
15643WAT      O47170   2.458   1.410   8.052
15643WAT     H147171   2.427   1.483   7.990
15643WAT     H247172   2.378   1.361   8.089
15644WAT      O47173   8.811   9.254   0.865
15644WAT     H147174   8.765   9.286   0.782
15644WAT     H247175   8.774   9.301   0.945
15645WAT      O47176   9.549   9.022   5.552
15645WAT     H147177   9.520   9.024   5.648
15645WAT     H247178   9.605   9.103   5.533
15646WAT      O47179   7.723   0.495   8.802
15646WAT     H147180   7.709   0.594   8.795
15646WAT     H247181   7.696   0.464   8.893
15647WAT      O47182   4.363   4.226   5.458
15647WAT     H147183   4.282   4.271   5.497
15647WAT     H247184   4.339   4.186   5.369
15648WAT      O47185   0.693   8.900   0.391
15648WAT     H147186   0.750   8.857   0.460
15648WAT     H247187   0.636   8.830   0.347
15649WAT      O47188   1.441   1.200   1.541
15649WAT     H147189   1.396   1.288   1.554
15649WAT     H247190   1.381   1.127   1.574
15650WAT      O47191   5.906   9.613   0.575
15650WAT     H147192   5.808   9.628   0.581
15650WAT     H247193   5.939   9.646   0.486
15651WAT      O47194   8.509   3.494   2.785
15651WAT     H147195   8.601   3.459   2.801
15651WAT     H247196   8.443   3.437   2.834
15652WAT      O47197   5.297   3.497   9.104
15652WAT     H147198   5.337   3.581   9.141
15652WAT     H247199   5.254   3.516   9.016
15653WAT      O47200   7.044   3.115   9.603
15653WAT     H147201   7.003   3.195   9.647
15653WAT     H247202   7.142   3.127   9.595
15654WAT      O47203   6.173   2.714   3.242
15654WAT     H147204   6.169   2.751   3.335
15654WAT     H247205   6.254   2.748   3.196
15655WAT      O47206   0.638   9.657   0.479
15655WAT     H147207   0.726   9.612   0.499
15655WAT     H247208   0.647   9.755   0.493
15656WAT      O47209   3.674   0.575   5.028
15656WAT     H147210   3.727   0.656   5.002
15656WAT     H247211   3.721   0.493   4.996
15657WAT      O47212   4.925   8.662   3.745
15657WAT     H147213   4.886   8.743   3.788
15657WAT     H247214   5.007   8.686   3.694
15658WAT      O47215   9.142   7.318   6.111
15658WAT     H147216   9.117   7.238   6.165
15658WAT     H247217   9.059   7.367   6.083
15659WAT      O47218   3.092   0.942   3.709
15659WAT     H147219   2.997   0.912   3.710
15659WAT     H247220   3.152   0.866   3.735
15660WAT      O47221   7.505   8.011   3.319
15660WAT     H147222   7.496   7.976   3.412
15660WAT     H247223   7.472   8.105   3.315
15661WAT      O47224   2.165   9.006   9.211
15661WAT     H147225   2.129   8.925   9.257
15661WAT     H247226   2.218   8.978   9.131
15662WAT      O47227   6.820   3.361   6.080
15662WAT     H147228   6.902   3.354   6.137
15662WAT     H247229   6.756   3.426   6.122
15663WAT      O47230   5.473   3.268   5.187
15663WAT     H147231   5.413   3.265   5.267
15663WAT     H247232   5.543   3.338   5.201
15664WAT      O47233   4.153   6.077   4.651
15664WAT     H147234   4.191   6.009   4.713
15664WAT     H247235   4.197   6.068   4.561
15665WAT      O47236   4.186   7.405   3.195
15665WAT     H147237   4.188   7.498   3.157
15665WAT     H247238   4.091   7.378   3.209
15666WAT      O47239   0.735   4.193   7.489
15666WAT     H147240   0.771   4.285   7.507
15666WAT     H247241   0.740   4.139   7.573
15667WAT      O47242   7.084   0.282   6.347
15667WAT     H147243   7.027   0.267   6.427
15667WAT     H247244   7.043   0.235   6.268
15668WAT      O47245   4.555   6.221   5.568
15668WAT     H147246   4.604   6.134   5.577
15668WAT     H247247   4.522   6.232   5.475
15669WAT      O47248   8.897   4.388   4.448
15669WAT     H147249   8.907   4.437   4.361
15669WAT     H247250   8.963   4.313   4.452
15670WAT      O47251   6.437   1.329   7.000
15670WAT     H147252   6.394   1.345   6.911
15670WAT     H247253   6.374   1.354   7.073
15671WAT      O47254   2.865   1.623   1.820
15671WAT     H147255   2.770   1.649   1.836
15671WAT     H247256   2.914   1.621   1.907
15672WAT      O47257   2.896   6.625   6.088
15672WAT     H147258   2.854   6.545   6.045
15672WAT     H247259   2.860   6.637   6.180
15673WAT      O47260   0.401   8.148   6.380
15673WAT     H147261   0.301   8.156   6.380
15673WAT     H247262   0.428   8.053   6.397
15674WAT      O47263   0.246   7.736   5.575
15674WAT     H147264   0.289   7.805   5.517
15674WAT     H247265   0.313   7.667   5.601
15675WAT      O47266   8.299   4.858   2.483
15675WAT     H147267   8.395   4.844   2.508
15675WAT     H247268   8.286   4.953   2.454
15676WAT      O47269   9.740   4.644   5.887
15676WAT     H147270   9.833   4.644   5.851
15676WAT     H247271   9.742   4.642   5.987
15677WAT      O47272   8.751   1.236   4.454
15677WAT     H147273   8.725   1.224   4.358
15677WAT     H247274   8.671   1.270   4.505
15678WAT      O47275   8.233   1.965   7.105
15678WAT     H147276   8.307   2.032   7.113
15678WAT     H247277   8.147   2.013   7.088
15679WAT      O47278   5.719   6.322   6.407
15679WAT     H147279   5.687   6.230   6.383
15679WAT     H247280   5.644   6.374   6.447
15680WAT      O47281   5.166   3.653   8.599
15680WAT     H147282   5.235   3.720   8.570
15680WAT     H247283   5.187   3.565   8.557
15681WAT      O47284   6.205   7.518   8.776
15681WAT     H147285   6.271   7.464   8.725
15681WAT     H247286   6.241   7.610   8.789
15682WAT      O47287   8.721   6.697   7.217
15682WAT     H147288   8.764   6.776   7.175
15682WAT     H247289   8.777   6.665   7.293
15683WAT      O47290   1.538   2.011   9.590
15683WAT     H147291   1.492   1.923   9.603
15683WAT     H247292   1.509   2.074   9.662
15684WAT      O47293   0.597   9.643   3.141
15684WAT     H147294   0.521   9.704   3.118
15684WAT     H247295   0.680   9.674   3.095
15685WAT      O47296   7.546   3.227   8.814
15685WAT     H147297   7.481   3.212   8.739
15685WAT     H247298   7.597   3.143   8.830
15686WAT      O47299   3.950   1.857   5.062
15686WAT     H147300   3.935   1.763   5.091
15686WAT     H247301   3.864   1.895   5.026
15687WAT      O47302   0.276   1.113   7.463
15687WAT     H147303   0.330   1.182   7.414
15687WAT     H247304   0.312   1.104   7.556
15688WAT      O47305   1.284   7.286   6.314
15688WAT     H147306   1.212   7.353   6.332
15688WAT     H247307   1.358   7.329   6.263
15689WAT      O47308   1.407   2.519   8.072
15689WAT     H147309   1.415   2.437   8.016
15689WAT     H247310   1.345   2.584   8.027
15690WAT      O47311   1.771   2.701   4.560
15690WAT     H147312   1.719   2.772   4.512
15690WAT     H247313   1.768   2.719   4.658
15691WAT      O47314   2.823   2.567   9.563
15691WAT     H147315   2.837   2.615   9.649
15691WAT     H247316   2.786   2.476   9.580
15692WAT      O47317   4.007   9.079   2.484
15692WAT     H147318   3.996   9.163   2.430
15692WAT     H247319   3.931   9.071   2.548
15693WAT      O47320   0.036   2.291   1.128
15693WAT     H147321   0.051   2.380   1.086
15693WAT     H247322  -0.055   2.257   1.102
15694WAT      O47323   5.386   2.421   3.417
15694WAT     H147324   5.296   2.397   3.379
15694WAT     H247325   5.402   2.370   3.501
15695WAT      O47326   6.386   0.879   2.487
15695WAT     H147327   6.385   0.979   2.480
15695WAT     H247328   6.462   0.843   2.432
15696WAT      O47329   3.424   7.146   2.311
15696WAT     H147330   3.380   7.056   2.310
15696WAT     H247331   3.485   7.154   2.232
15697WAT      O47332   4.213   1.788   2.353
15697WAT     H147333   4.243   1.731   2.276
15697WAT     H247334   4.235   1.883   2.335
15698WAT      O47335   7.057   8.943   7.130
15698WAT     H147336   7.073   8.981   7.039
15698WAT     H247337   7.011   9.011   7.187
15699WAT      O47338   3.277   6.561   1.931
15699WAT     H147339   3.327   6.564   1.844
15699WAT     H247340   3.332   6.606   2.002
15700WAT      O47341   0.591   9.382   3.184
15700WAT     H147342   0.536   9.344   3.259
15700WAT     H247343   0.562   9.476   3.167
15701WAT      O47344   8.161   3.996   6.556
15701WAT     H147345   8.161   4.091   6.525
15701WAT     H247346   8.125   3.991   6.649
15702WAT      O47347   8.251   9.194   7.208
15702WAT     H147348   8.309   9.130   7.159
15702WAT     H247349   8.194   9.144   7.273
15703WAT      O47350   8.771   3.411   2.158
15703WAT     H147351   8.798   3.487   2.216
15703WAT     H247352   8.820   3.328   2.185
15704WAT      O47353   6.667   4.033   9.174
15704WAT     H147354   6.634   4.126   9.163
15704WAT     H247355   6.721   4.026   9.258
15705WAT      O47356   6.222   0.879   3.387
15705WAT     H147357   6.173   0.823   3.454
15705WAT     H247358   6.189   0.858   3.295
15706WAT      O47359   6.884   3.906   6.506
15706WAT     H147360   6.835   3.992   6.488
15706WAT     H247361   6.818   3.835   6.531
15707WAT      O47362   0.499   6.742   1.755
15707WAT     H147363   0.475   6.744   1.852
15707WAT     H247364   0.446   6.811   1.706
15708WAT      O47365   3.094   6.005   0.252
15708WAT     H147366   3.166   5.963   0.196
15708WAT     H247367   3.017   6.031   0.194
15709WAT      O47368   5.883   8.594   6.084
15709WAT     H147369   5.888   8.503   6.043
15709WAT     H247370   5.819   8.651   6.032
15710WAT      O47371   4.358   1.640   7.391
15710WAT     H147372   4.421   1.655   7.468
15710WAT     H247373   4.394   1.568   7.332
15711WAT      O47374   8.378   7.268   3.125
15711WAT     H147375   8.354   7.323   3.046
15711WAT     H247376   8.474   7.239   3.117
15712WAT      O47377   9.847   4.111   5.322
15712WAT     H147378   9.881   4.049   5.393
15712WAT     H247379   9.747   4.115   5.326
15713WAT      O47380   6.059   3.860   1.012
15713WAT     H147381   6.018   3.916   1.084
15713WAT     H247382   5.989   3.804   0.969
15714WAT      O47383   4.875   6.301   0.806
15714WAT     H147384   4.813   6.329   0.733
15714WAT     H247385   4.870   6.202   0.818
15715WAT      O47386   9.670   1.914   3.936
15715WAT     H147387   9.769   1.911   3.948
15715WAT     H247388   9.626   1.871   4.015
15716WAT      O47389   1.639   6.139   4.924
15716WAT     H147390   1.692   6.185   4.853
15716WAT     H247391   1.649   6.189   5.010
15717WAT      O47392   2.562   0.552   9.581
15717WAT     H147393   2.501   0.476   9.604
15717WAT     H247394   2.632   0.519   9.517
15718WAT      O47395   2.292   0.789   9.703
15718WAT     H147396   2.331   0.725   9.769
15718WAT     H247397   2.278   0.743   9.615
15719WAT      O47398   3.950   9.078   3.299
15719WAT     H147399   3.895   9.073   3.382
15719WAT     H247400   3.889   9.089   3.220
15720WAT      O47401   2.935   0.431   2.698
15720WAT     H147402   2.952   0.362   2.627
15720WAT     H247403   2.838   0.432   2.721
15721WAT      O47404   1.350   5.922   9.640
15721WAT     H147405   1.391   5.861   9.572
15721WAT     H247406   1.260   5.951   9.610
15722WAT      O47407   0.776   3.384   8.274
15722WAT     H147408   0.686   3.343   8.289
15722WAT     H247409   0.770   3.483   8.285
15723WAT      O47410   2.771   5.212   6.194
15723WAT     H147411   2.866   5.188   6.174
15723WAT     H247412   2.740   5.284   6.131
15724WAT      O47413   1.569   0.441   0.581
15724WAT     H147414   1.529   0.492   0.505
15724WAT     H247415   1.497   0.390   0.629
15725WAT      O47416   4.327   8.908   8.396
15725WAT     H147417   4.356   8.848   8.321
15725WAT     H247418   4.404   8.964   8.425
15726WAT      O47419   1.788   7.905   2.644
15726WAT     H147420   1.794   7.812   2.683
15726WAT     H247421   1.879   7.935   2.615
15727WAT      O47422   2.843   2.359   0.668
15727WAT     H147423   2.899   2.313   0.599
15727WAT     H247424   2.832   2.455   0.643
15728WAT      O47425   2.600   0.623   6.138
15728WAT     H147426   2.521   0.672   6.101
15728WAT     H247427   2.628   0.666   6.224
15729WAT      O47428   6.432   2.577   2.961
15729WAT     H147429   6.464   2.643   3.029
15729WAT     H247430   6.371   2.511   3.006
15730WAT      O47431   1.729   5.502   6.947
15730WAT     H147432   1.716   5.431   6.878
15730WAT     H247433   1.716   5.463   7.038
15731WAT      O47434   1.427   8.652   5.047
15731WAT     H147435   1.466   8.614   4.963
15731WAT     H247436   1.410   8.579   5.113
15732WAT      O47437   6.388   7.604   7.851
15732WAT     H147438   6.299   7.558   7.846
15732WAT     H247439   6.423   7.599   7.945
15733WAT      O47440   0.443   6.982   5.504
15733WAT     H147441   0.529   7.033   5.504
15733WAT     H247442   0.458   6.891   5.464
15734WAT      O47443   4.615   0.940   4.579
15734WAT     H147444   4.577   1.017   4.631
15734WAT     H247445   4.630   0.863   4.641
15735WAT      O47446   2.541   0.795   2.703
15735WAT     H147447   2.472   0.758   2.766
15735WAT     H247448   2.587   0.720   2.657
15736WAT      O47449   6.301   2.979   4.608
15736WAT     H147450   6.218   2.980   4.664
15736WAT     H247451   6.315   3.070   4.568
15737WAT      O47452   6.172   3.178   6.973
15737WAT     H147453   6.224   3.213   7.052
15737WAT     H247454   6.085   3.141   7.005
15738WAT      O47455   4.042   2.016   9.621
15738WAT     H147456   3.962   2.036   9.565
15738WAT     H247457   4.120   1.996   9.562
15739WAT      O47458   9.679   0.238   6.366
15739WAT     H147459   9.642   0.179   6.295
15739WAT     H247460   9.613   0.247   6.440
15740WAT      O47461   3.089   2.513   7.531
15740WAT     H147462   2.989   2.508   7.526
15740WAT     H247463   3.119   2.481   7.621
15741WAT      O47464   7.728   2.358   7.214
15741WAT     H147465   7.644   2.399   7.250
15741WAT     H247466   7.806   2.387   7.270
15742WAT      O47467   6.679   5.533   1.941
15742WAT     H147468   6.724   5.443   1.942
15742WAT     H247469   6.672   5.566   1.847
15743WAT      O47470   6.953   5.787   1.766
15743WAT     H147471   7.021   5.722   1.799
15743WAT     H247472   6.985   5.830   1.682
15744WAT      O47473   2.887   0.067   5.770
15744WAT     H147474   2.912  -0.019   5.726
15744WAT     H247475   2.941   0.079   5.853
15745WAT      O47476   9.606   1.897   4.872
15745WAT     H147477   9.692   1.844   4.869
15745WAT     H247478   9.612   1.972   4.806
15746WAT      O47479   9.039   4.530   3.442
15746WAT     H147480   9.050   4.592   3.365
15746WAT     H247481   9.025   4.437   3.408
15747WAT      O47482   8.183   4.306   0.231
15747WAT     H147483   8.271   4.354   0.238
15747WAT     H247484   8.167   4.254   0.314
15748WAT      O47485   2.682   5.022   0.257
15748WAT     H147486   2.650   5.111   0.290
15748WAT     H247487   2.607   4.973   0.214
15749WAT      O47488   9.767   4.663   0.244
15749WAT     H147489   9.855   4.621   0.222
15749WAT     H247490   9.697   4.591   0.248
15750WAT      O47491   9.608   6.753   1.531
15750WAT     H147492   9.563   6.743   1.619
15750WAT     H247493   9.547   6.797   1.466
15751WAT      O47494   0.284   5.821   1.644
15751WAT     H147495   0.381   5.814   1.621
15751WAT     H247496   0.249   5.911   1.619
15752WAT      O47497   5.903   1.396   7.032
15752WAT     H147498   5.829   1.377   6.968
15752WAT     H247499   5.897   1.491   7.062
15753WAT      O47500   9.567   2.954   0.831
15753WAT     H147501   9.527   2.863   0.837
15753WAT     H247502   9.584   2.990   0.923
15754WAT      O47503   1.591   4.043   0.137
15754WAT     H147504   1.533   4.085   0.207
15754WAT     H247505   1.536   3.984   0.079
15755WAT      O47506   9.317   4.987   0.136
15755WAT     H147507   9.292   5.060   0.073
15755WAT     H247508   9.383   5.023   0.203
15756WAT      O47509   4.505   7.939   5.462
15756WAT     H147510   4.585   7.998   5.454
15756WAT     H247511   4.423   7.995   5.470
15757WAT      O47512   7.647   8.079   2.351
15757WAT     H147513   7.747   8.071   2.347
15757WAT     H247514   7.622   8.175   2.362
15758WAT      O47515   0.106   2.770   0.409
15758WAT     H147516   0.068   2.814   0.327
15758WAT     H247517   0.204   2.787   0.414
15759WAT      O47518   4.794   2.242   7.869
15759WAT     H147519   4.741   2.180   7.925
15759WAT     H247520   4.864   2.287   7.924
15760WAT      O47521   2.636   1.138   9.671
15760WAT     H147522   2.696   1.183   9.604
15760WAT     H247523   2.692   1.086   9.736
15761WAT      O47524   6.887   1.970   0.339
15761WAT     H147525   6.806   1.940   0.289
15761WAT     H247526   6.963   1.983   0.275
15762WAT      O47527   1.110   4.028   6.340
15762WAT     H147528   1.102   4.090   6.261
15762WAT     H247529   1.026   3.975   6.349
15763WAT      O47530   0.923   4.661   8.786
15763WAT     H147531   1.012   4.664   8.741
15763WAT     H247532   0.928   4.603   8.867
15764WAT      O47533   3.051   8.167   5.453
15764WAT     H147534   3.123   8.126   5.397
15764WAT     H247535   3.001   8.234   5.398
15765WAT      O47536   8.253   2.216   2.239
15765WAT     H147537   8.238   2.160   2.321
15765WAT     H247538   8.285   2.306   2.267
15766WAT      O47539   0.820   3.195   6.836
15766WAT     H147540   0.902   3.158   6.878
15766WAT     H247541   0.741   3.139   6.861
15767WAT      O47542   2.730   1.447   3.205
15767WAT     H147543   2.702   1.536   3.240
15767WAT     H247544   2.737   1.382   3.280
15768WAT      O47545   5.623   8.788   4.241
15768WAT     H147546   5.602   8.702   4.194
15768WAT     H247547   5.677   8.846   4.180
15769WAT      O47548   8.644   3.497   0.238
15769WAT     H147549   8.697   3.511   0.322
15769WAT     H247550   8.547   3.514   0.257
15770WAT      O47551   0.060   0.258   6.292
15770WAT     H147552   0.130   0.281   6.224
15770WAT     H247553  -0.030   0.261   6.248
15771WAT      O47554   0.887   4.599   6.870
15771WAT     H147555   0.800   4.635   6.903
15771WAT     H247556   0.961   4.657   6.904
15772WAT      O47557   4.488   0.323   6.450
15772WAT     H147558   4.464   0.355   6.542
15772WAT     H247559   4.421   0.358   6.384
15773WAT      O47560   1.544   6.375   5.573
15773WAT     H147561   1.460   6.354   5.522
15773WAT     H247562   1.565   6.472   5.563
15774WAT      O47563   1.238   6.559   5.177
15774WAT     H147564   1.209   6.652   5.198
15774WAT     H247565   1.248   6.549   5.078
15775WAT      O47566   6.793   3.780   4.666
15775WAT     H147567   6.703   3.799   4.625
15775WAT     H247568   6.864   3.787   4.596
15776WAT      O47569   9.440   6.391   2.289
15776WAT     H147570   9.515   6.441   2.332
15776WAT     H247571   9.353   6.416   2.333
15777WAT      O47572   8.334   6.096   2.106
15777WAT     H147573   8.288   6.027   2.161
15777WAT     H247574   8.311   6.187   2.140
15778WAT      O47575   4.796   7.928   7.369
15778WAT     H147576   4.704   7.961   7.393
15778WAT     H247577   4.801   7.918   7.269
15779WAT      O47578   9.597   2.342   9.701
15779WAT     H147579   9.505   2.381   9.701
15779WAT     H247580   9.599   2.261   9.759
15780WAT      O47581   9.168   6.406   9.637
15780WAT     H147582   9.217   6.358   9.564
15780WAT     H247583   9.132   6.492   9.601
15781WAT      O47584   2.667   6.270   8.897
15781WAT     H147585   2.755   6.227   8.916
15781WAT     H247586   2.649   6.339   8.968
15782WAT      O47587   3.010   2.696   1.066
15782WAT     H147588   3.104   2.730   1.076
15782WAT     H247589   3.008   2.625   0.995
15783WAT      O47590   2.612   5.506   9.793
15783WAT     H147591   2.546   5.472   9.725
15783WAT     H247592   2.613   5.445   9.872
15784WAT      O47593   2.860   3.509   4.672
15784WAT     H147594   2.892   3.449   4.599
15784WAT     H247595   2.939   3.550   4.717
15785WAT      O47596   4.844   3.837   0.724
15785WAT     H147597   4.937   3.823   0.691
15785WAT     H247598   4.796   3.899   0.662
15786WAT      O47599   0.406   1.304   7.699
15786WAT     H147600   0.382   1.212   7.728
15786WAT     H247601   0.323   1.355   7.677
15787WAT      O47602   9.062   5.432   5.779
15787WAT     H147603   9.080   5.444   5.876
15787WAT     H247604   8.963   5.425   5.764
15788WAT      O47605   6.100   4.122   6.090
15788WAT     H147606   6.180   4.162   6.135
15788WAT     H247607   6.129   4.049   6.028
15789WAT      O47608   6.919   9.114   7.765
15789WAT     H147609   6.897   9.048   7.837
15789WAT     H247610   7.014   9.144   7.775
15790WAT      O47611   5.253   0.847   6.937
15790WAT     H147612   5.250   0.796   7.022
15790WAT     H247613   5.163   0.884   6.916
15791WAT      O47614   1.130   4.641   8.593
15791WAT     H147615   1.228   4.622   8.601
15791WAT     H247616   1.110   4.671   8.499
15792WAT      O47617   7.955   7.627   8.405
15792WAT     H147618   8.006   7.572   8.471
15792WAT     H247619   7.968   7.591   8.313
15793WAT      O47620   9.207   8.529   9.297
15793WAT     H147621   9.239   8.475   9.219
15793WAT     H247622   9.129   8.483   9.339
15794WAT      O47623   6.465   6.761   5.642
15794WAT     H147624   6.443   6.805   5.555
15794WAT     H247625   6.393   6.783   5.709
15795WAT      O47626   4.529   0.861   0.103
15795WAT     H147627   4.449   0.830   0.051
15795WAT     H247628   4.515   0.955   0.133
15796WAT      O47629   4.969   8.440   8.817
15796WAT     H147630   4.944   8.357   8.867
15796WAT     H247631   4.973   8.421   8.719
15797WAT      O47632   4.338   7.995   1.114
15797WAT     H147633   4.411   7.989   1.183
15797WAT     H247634   4.250   8.004   1.160
15798WAT      O47635   0.996   7.859   5.773
15798WAT     H147636   0.944   7.901   5.848
15798WAT     H247637   1.013   7.928   5.702
15799WAT      O47638   9.786   3.972   3.900
15799WAT     H147639   9.701   3.920   3.895
15799WAT     H247640   9.855   3.919   3.949
15800WAT      O47641   1.746   6.596   6.941
15800WAT     H147642   1.654   6.581   6.905
15800WAT     H247643   1.774   6.691   6.923
15801WAT      O47644   7.941   7.029   0.620
15801WAT     H147645   7.859   6.997   0.572
15801WAT     H247646   8.018   7.034   0.555
15802WAT      O47647   7.970   6.647   7.153
15802WAT     H147648   8.006   6.713   7.217
15802WAT     H247649   7.887   6.605   7.190
15803WAT      O47650   0.934   8.571   5.032
15803WAT     H147651   0.999   8.525   4.972
15803WAT     H247652   0.859   8.608   4.978
15804WAT      O47653   2.312   6.730   5.674
15804WAT     H147654   2.400   6.759   5.636
15804WAT     H247655   2.324   6.704   5.770
15805WAT      O47656   2.164   2.807   7.070
15805WAT     H147657   2.259   2.816   7.099
15805WAT     H247658   2.119   2.897   7.076
15806WAT      O47659   2.274   0.716   1.497
15806WAT     H147660   2.258   0.617   1.497
15806WAT     H247661   2.373   0.734   1.501
15807WAT      O47662   4.050   6.075   4.033
15807WAT     H147663   3.954   6.067   4.008
15807WAT     H247664   4.106   6.082   3.950
15808WAT      O47665   9.244   4.284   6.515
15808WAT     H147666   9.186   4.290   6.434
15808WAT     H247667   9.337   4.311   6.491
15809WAT      O47668   0.046   6.827   4.850
15809WAT     H147669   0.053   6.740   4.900
15809WAT     H247670  -0.043   6.869   4.870
15810WAT      O47671   4.171   4.981   5.001
15810WAT     H147672   4.234   5.021   5.068
15810WAT     H247673   4.208   4.994   4.909
15811WAT      O47674   1.023   9.429   4.665
15811WAT     H147675   0.968   9.366   4.720
15811WAT     H247676   1.115   9.437   4.704
15812WAT      O47677   9.189   5.230   6.570
15812WAT     H147678   9.259   5.160   6.586
15812WAT     H247679   9.208   5.310   6.627
15813WAT      O47680   6.770   0.614   6.765
15813WAT     H147681   6.783   0.697   6.712
15813WAT     H247682   6.851   0.596   6.821
15814WAT      O47683   9.412   4.548   3.868
15814WAT     H147684   9.361   4.534   3.782
15814WAT     H247685   9.398   4.642   3.899
15815WAT      O47686   2.685   3.555   7.564
15815WAT     H147687   2.670   3.492   7.641
15815WAT     H247688   2.780   3.550   7.535
15816WAT      O47689   6.502   9.107   8.085
15816WAT     H147690   6.500   9.046   8.005
15816WAT     H247691   6.470   9.198   8.057
15817WAT      O47692   6.655   2.696   1.936
15817WAT     H147693   6.564   2.693   1.893
15817WAT     H247694   6.656   2.633   2.014
15818WAT      O47695   3.184   7.685   9.515
15818WAT     H147696   3.279   7.690   9.547
15818WAT     H247697   3.176   7.729   9.426
15819WAT      O47698   4.854   6.475   9.150
15819WAT     H147699   4.847   6.512   9.243
15819WAT     H247700   4.886   6.546   9.088
15820WAT      O47701   1.222   3.017   4.286
15820WAT     H147702   1.129   3.032   4.251
15820WAT     H247703   1.276   2.969   4.217
15821WAT      O47704   0.100   2.565   0.607
15821WAT     H147705   0.102   2.640   0.540
15821WAT     H247706   0.154   2.591   0.687
15822WAT      O47707   2.189   5.067   4.222
15822WAT     H147708   2.270   5.009   4.221
15822WAT     H247709   2.216   5.161   4.246
15823WAT      O47710   3.188   0.548   3.503
15823WAT     H147711   3.209   0.600   3.421
15823WAT     H247712   3.247   0.468   3.509
15824WAT      O47713   6.354   0.052   9.555
15824WAT     H147714   6.376   0.141   9.596
15824WAT     H247715   6.262   0.025   9.582
15825WAT      O47716   1.051   8.559   6.414
15825WAT     H147717   1.024   8.513   6.330
15825WAT     H247718   1.011   8.651   6.416
15826WAT      O47719   3.250   8.413   5.957
15826WAT     H147720   3.338   8.422   6.004
15826WAT     H247721   3.205   8.502   5.953
15827WAT      O47722   9.516   4.044   0.558
15827WAT     H147723   9.471   3.976   0.617
15827WAT     H247724   9.565   3.996   0.485
15828WAT      O47725   2.645   9.592   7.454
15828WAT     H147726   2.606   9.607   7.545
15828WAT     H247727   2.641   9.495   7.433
15829WAT      O47728   4.706   8.505   1.576
15829WAT     H147729   4.692   8.597   1.540
15829WAT     H247730   4.788   8.465   1.535
15830WAT      O47731   8.608   1.507   7.043
15830WAT     H147732   8.514   1.532   7.020
15830WAT     H247733   8.640   1.436   6.980
15831WAT      O47734   6.701   6.354   1.391
15831WAT     H147735   6.607   6.347   1.356
15831WAT     H247736   6.739   6.442   1.364
15832WAT      O47737   1.865   0.867   3.834
15832WAT     H147738   1.914   0.952   3.856
15832WAT     H247739   1.899   0.829   3.749
15833WAT      O47740   3.978   6.027   5.732
15833WAT     H147741   4.050   6.045   5.665
15833WAT     H247742   3.980   6.097   5.802
15834WAT      O47743   4.502   8.983   9.454
15834WAT     H147744   4.541   8.964   9.544
15834WAT     H247745   4.565   8.952   9.383
15835WAT      O47746   4.362   1.583   9.350
15835WAT     H147747   4.292   1.590   9.421
15835WAT     H247748   4.424   1.661   9.355
15836WAT      O47749   3.800   6.345   7.924
15836WAT     H147750   3.712   6.318   7.960
15836WAT     H247751   3.810   6.310   7.830
15837WAT      O47752   1.957   2.476   2.490
15837WAT     H147753   1.895   2.406   2.527
15837WAT     H247754   2.049   2.460   2.523
15838WAT      O47755   5.655   3.512   3.573
15838WAT     H147756   5.659   3.572   3.654
15838WAT     H247757   5.709   3.553   3.499
15839WAT      O47758   4.104   9.083   9.679
15839WAT     H147759   4.132   9.040   9.593
15839WAT     H247760   4.024   9.034   9.716
15840WAT      O47761   1.554   5.482   5.179
15840WAT     H147762   1.516   5.450   5.093
15840WAT     H247763   1.634   5.426   5.203
15841WAT      O47764   5.095   9.080   3.957
15841WAT     H147765   5.041   9.158   3.990
15841WAT     H247766   5.189   9.089   3.988
15842WAT      O47767   1.512   8.578   9.404
15842WAT     H147768   1.519   8.612   9.498
15842WAT     H247769   1.575   8.502   9.391
15843WAT      O47770   5.214   2.138   0.273
15843WAT     H147771   5.215   2.070   0.200
15843WAT     H247772   5.284   2.116   0.341
15844WAT      O47773   4.283   3.357   3.751
15844WAT     H147774   4.309   3.262   3.768
15844WAT     H247775   4.341   3.395   3.679
15845WAT      O47776   6.955   5.209   4.097
15845WAT     H147777   6.871   5.198   4.043
15845WAT     H247778   6.944   5.288   4.158
15846WAT      O47779   5.775   4.327   0.947
15846WAT     H147780   5.739   4.401   0.890
15846WAT     H247781   5.747   4.341   1.042
15847WAT      O47782   7.806   4.138   3.178
15847WAT     H147783   7.865   4.152   3.098
15847WAT     H247784   7.861   4.140   3.261
15848WAT      O47785   4.170   7.828   9.115
15848WAT     H147786   4.181   7.908   9.173
15848WAT     H247787   4.098   7.769   9.152
15849WAT      O47788   3.369   7.723   1.601
15849WAT     H147789   3.280   7.736   1.558
15849WAT     H247790   3.433   7.683   1.535
15850WAT      O47791   8.848   0.571   6.373
15850WAT     H147792   8.861   0.472   6.362
15850WAT     H247793   8.866   0.617   6.286
15851WAT      O47794   1.833   0.732   5.459
15851WAT     H147795   1.739   0.724   5.426
15851WAT     H247796   1.896   0.714   5.384
15852WAT      O47797   2.540   2.406   8.770
15852WAT     H147798   2.541   2.307   8.753
15852WAT     H247799   2.499   2.424   8.859
15853WAT      O47800   9.652   7.664   7.373
15853WAT     H147801   9.582   7.721   7.416
15853WAT     H247802   9.743   7.695   7.402
15854WAT      O47803   5.318   6.024   4.122
15854WAT     H147804   5.230   6.060   4.152
15854WAT     H247805   5.392   6.078   4.162
15855WAT      O47806   0.905   2.563   7.003
15855WAT     H147807   0.981   2.546   7.066
15855WAT     H247808   0.921   2.513   6.917
15856WAT      O47809   9.314   0.877   5.703
15856WAT     H147810   9.320   0.975   5.683
15856WAT     H247811   9.396   0.848   5.751
15857WAT      O47812   5.513   3.467   1.482
15857WAT     H147813   5.422   3.444   1.450
15857WAT     H247814   5.526   3.433   1.575
15858WAT      O47815   4.746   8.288   6.072
15858WAT     H147816   4.720   8.298   5.977
15858WAT     H247817   4.722   8.371   6.123
15859WAT      O47818   5.562   5.567   8.925
15859WAT     H147819   5.585   5.548   8.830
15859WAT     H247820   5.533   5.483   8.971
15860WAT      O47821   0.605   3.819   0.321
15860WAT     H147822   0.609   3.734   0.374
15860WAT     H247823   0.584   3.798   0.225
15861WAT      O47824   1.160   1.362   1.400
15861WAT     H147825   1.176   1.407   1.488
15861WAT     H247826   1.246   1.324   1.366
15862WAT      O47827   8.164   0.564   3.722
15862WAT     H147828   8.073   0.562   3.683
15862WAT     H247829   8.174   0.644   3.781
15863WAT      O47830   5.614   5.057   4.575
15863WAT     H147831   5.530   5.108   4.557
15863WAT     H247832   5.692   5.104   4.533
15864WAT      O47833   5.442   8.418   5.182
15864WAT     H147834   5.362   8.427   5.123
15864WAT     H247835   5.520   8.465   5.140
15865WAT      O47836   0.369   8.545   8.397
15865WAT     H147837   0.373   8.602   8.479
15865WAT     H247838   0.284   8.562   8.348
15866WAT      O47839   4.496   8.929   3.360
15866WAT     H147840   4.476   9.019   3.399
15866WAT     H247841   4.582   8.894   3.397
15867WAT      O47842   5.246   4.430   0.159
15867WAT     H147843   5.152   4.413   0.190
15867WAT     H247844   5.289   4.343   0.133
15868WAT      O47845   5.008   7.223   0.546
15868WAT     H147846   4.958   7.236   0.631
15868WAT     H247847   5.099   7.264   0.554
15869WAT      O47848   1.511   6.060   9.032
15869WAT     H147849   1.569   6.125   9.081
15869WAT     H247850   1.455   6.109   8.965
15870WAT      O47851   5.546   8.937   5.369
15870WAT     H147852   5.563   8.956   5.466
15870WAT     H247853   5.452   8.906   5.356
15871WAT      O47854   0.938   6.722   7.546
15871WAT     H147855   0.981   6.755   7.630
15871WAT     H247856   0.860   6.780   7.524
15872WAT      O47857   1.304   8.988   8.804
15872WAT     H147858   1.346   8.912   8.854
15872WAT     H247859   1.204   8.977   8.806
15873WAT      O47860   8.013   5.931   1.593
15873WAT     H147861   7.955   5.917   1.673
15873WAT     H247862   8.063   5.848   1.572
15874WAT      O47863   5.198   9.280   2.611
15874WAT     H147864   5.265   9.310   2.680
15874WAT     H247865   5.212   9.183   2.591
15875WAT      O47866   8.833   7.555   8.581
15875WAT     H147867   8.811   7.611   8.501
15875WAT     H247868   8.870   7.614   8.654
15876WAT      O47869   6.002   8.325   9.784
15876WAT     H147870   5.915   8.276   9.775
15876WAT     H247871   6.074   8.261   9.809
15877WAT      O47872   2.800   1.386   3.465
15877WAT     H147873   2.793   1.301   3.518
15877WAT     H247874   2.776   1.463   3.524
15878WAT      O47875   6.900   1.040   0.545
15878WAT     H147876   6.825   1.010   0.603
15878WAT     H247877   6.988   1.016   0.588
15879WAT      O47878   6.523   7.501   6.236
15879WAT     H147879   6.496   7.591   6.270
15879WAT     H247880   6.502   7.494   6.139
15880WAT      O47881   9.581   6.647   9.637
15880WAT     H147882   9.616   6.629   9.728
15880WAT     H247883   9.481   6.652   9.640
15881WAT      O47884   5.985   3.247   6.096
15881WAT     H147885   6.012   3.210   6.185
15881WAT     H247886   5.888   3.229   6.081
15882WAT      O47887   8.762   1.598   8.438
15882WAT     H147888   8.770   1.502   8.415
15882WAT     H247889   8.839   1.625   8.496
15883WAT      O47890   0.204   7.032   9.848
15883WAT     H147891   0.131   7.098   9.829
15883WAT     H247892   0.235   7.042   9.942
15884WAT      O47893   1.388   4.859   3.943
15884WAT     H147894   1.376   4.802   4.025
15884WAT     H247895   1.342   4.816   3.866
15885WAT      O47896   7.629   2.517   3.814
15885WAT     H147897   7.616   2.490   3.719
15885WAT     H247898   7.612   2.438   3.873
15886WAT      O47899   0.490   1.791   7.225
15886WAT     H147900   0.412   1.824   7.172
15886WAT     H247901   0.514   1.859   7.294
15887WAT      O47902   0.029   0.560   9.860
15887WAT     H147903   0.054   0.656   9.858
15887WAT     H247904  -0.070   0.551   9.845
15888WAT      O47905   2.459   6.723   6.973
15888WAT     H147906   2.414   6.636   6.953
15888WAT     H247907   2.401   6.777   7.035
15889WAT      O47908   1.788   2.717   2.131
15889WAT     H147909   1.710   2.657   2.118
15889WAT     H247910   1.773   2.803   2.081
15890WAT      O47911   4.818   6.769   9.833
15890WAT     H147912   4.719   6.767   9.823
15890WAT     H247913   4.844   6.726   9.919
15891WAT      O47914   4.047   2.921   3.364
15891WAT     H147915   3.976   2.881   3.421
15891WAT     H247916   4.005   2.976   3.291
15892WAT      O47917   6.665   1.156   3.338
15892WAT     H147918   6.585   1.177   3.284
15892WAT     H247919   6.745   1.201   3.299
15893WAT      O47920   1.851   3.674   5.731
15893WAT     H147921   1.889   3.606   5.668
15893WAT     H247922   1.763   3.642   5.766
15894WAT      O47923   1.136   0.237   4.114
15894WAT     H147924   1.057   0.191   4.072
15894WAT     H247925   1.208   0.170   4.131
15895WAT      O47926   4.965   9.370   6.671
15895WAT     H147927   4.894   9.416   6.618
15895WAT     H247928   4.926   9.289   6.715
15896WAT      O47929   3.685   8.031   1.841
15896WAT     H147930   3.780   8.064   1.837
15896WAT     H247931   3.628   8.089   1.783
15897WAT      O47932   4.699   7.313   1.324
15897WAT     H147933   4.770   7.306   1.394
15897WAT     H247934   4.642   7.230   1.326
15898WAT      O47935   7.781   0.032   2.981
15898WAT     H147936   7.858   0.013   3.042
15898WAT     H247937   7.815   0.056   2.890
15899WAT      O47938   5.412   6.984   1.356
15899WAT     H147939   5.461   6.946   1.278
15899WAT     H247940   5.345   7.051   1.324
15900WAT      O47941   5.920   7.409   8.558
15900WAT     H147942   5.907   7.453   8.469
15900WAT     H247943   5.893   7.473   8.630
15901WAT      O47944   1.967   9.724   2.508
15901WAT     H147945   1.912   9.650   2.468
15901WAT     H247946   1.922   9.757   2.591
15902WAT      O47947   1.384   4.341   5.343
15902WAT     H147948   1.442   4.261   5.360
15902WAT     H247949   1.293   4.311   5.317
15903WAT      O47950   3.119   5.999   8.811
15903WAT     H147951   3.055   6.075   8.797
15903WAT     H247952   3.105   5.929   8.741
15904WAT      O47953   0.088   1.511   8.627
15904WAT     H147954   0.036   1.522   8.711
15904WAT     H247955   0.026   1.495   8.550
15905WAT      O47956   2.806   3.100   7.739
15905WAT     H147957   2.844   3.191   7.758
15905WAT     H247958   2.825   3.039   7.816
15906WAT      O47959   7.990   8.143   6.741
15906WAT     H147960   7.892   8.149   6.763
15906WAT     H247961   8.024   8.233   6.716
15907WAT      O47962   7.438   8.815   7.282
15907WAT     H147963   7.453   8.899   7.229
15907WAT     H247964   7.345   8.783   7.267
15908WAT      O47965   2.238   5.407   6.348
15908WAT     H147966   2.197   5.377   6.262
15908WAT     H247967   2.191   5.489   6.381
15909WAT      O47968   7.364   3.658   8.518
15909WAT     H147969   7.461   3.638   8.516
15909WAT     H247970   7.348   3.751   8.485
15910WAT      O47971   0.818   4.275   4.703
15910WAT     H147972   0.721   4.257   4.686
15910WAT     H247973   0.836   4.267   4.801
15911WAT      O47974   2.261   1.535   3.587
15911WAT     H147975   2.177   1.527   3.533
15911WAT     H247976   2.245   1.595   3.665
15912WAT      O47977   2.044   7.361   2.160
15912WAT     H147978   1.957   7.395   2.123
15912WAT     H247979   2.038   7.262   2.172
15913WAT      O47980   1.470   3.170   7.503
15913WAT     H147981   1.453   3.208   7.594
15913WAT     H247982   1.553   3.113   7.506
15914WAT      O47983   0.171   3.096   7.268
15914WAT     H147984   0.183   3.162   7.194
15914WAT     H247985   0.176   3.142   7.356
15915WAT      O47986   1.268   0.873   7.360
15915WAT     H147987   1.257   0.854   7.262
15915WAT     H247988   1.209   0.811   7.412
15916WAT      O47989   4.212   8.486   2.098
15916WAT     H147990   4.186   8.519   2.189
15916WAT     H247991   4.190   8.556   2.030
15917WAT      O47992   9.488   2.059   4.593
15917WAT     H147993   9.486   2.157   4.574
15917WAT     H247994   9.583   2.030   4.607
15918WAT      O47995   0.923   0.393   4.267
15918WAT     H147996   0.899   0.365   4.175
15918WAT     H247997   1.003   0.342   4.299
15919WAT      O47998   4.171   6.789   7.115
15919WAT     H147999   4.151   6.720   7.045
15919WAT     H248000   4.249   6.845   7.085
15920WAT      O48001   6.284   2.041   1.920
15920WAT     H148002   6.308   2.104   1.994
15920WAT     H248003   6.365   1.989   1.892
15921WAT      O48004   4.602   6.422   4.484
15921WAT     H148005   4.689   6.375   4.500
15921WAT     H248006   4.550   6.374   4.414
15922WAT      O48007   9.086   2.964   3.238
15922WAT     H148008   9.159   3.032   3.240
15922WAT     H248009   9.099   2.899   3.313
15923WAT      O48010   8.823   0.929   3.523
15923WAT     H148011   8.734   0.960   3.488
15923WAT     H248012   8.811   0.843   3.573
15924WAT      O48013   5.039   9.286   0.241
15924WAT     H148014   5.027   9.335   0.327
15924WAT     H248015   4.973   9.319   0.173
15925WAT      O48016   1.437   2.830   0.677
15925WAT     H148017   1.505   2.763   0.706
15925WAT     H248018   1.345   2.791   0.687
15926WAT      O48019   9.100   9.099   8.494
15926WAT     H148020   9.187   9.133   8.458
15926WAT     H248021   9.093   9.123   8.591
15927WAT      O48022   0.707   7.129   9.782
15927WAT     H148023   0.724   7.109   9.685
15927WAT     H248024   0.779   7.087   9.837
15928WAT      O48025   0.334   2.168   6.502
15928WAT     H148026   0.351   2.266   6.501
15928WAT     H248027   0.422   2.119   6.503
15929WAT      O48028   7.724   6.167   7.691
15929WAT     H148029   7.757   6.132   7.779
15929WAT     H248030   7.769   6.119   7.616
15930WAT      O48031   3.880   5.264   2.586
15930WAT     H148032   3.899   5.359   2.607
15930WAT     H248033   3.889   5.209   2.669
15931WAT      O48034   4.634   3.085   9.135
15931WAT     H148035   4.628   3.141   9.217
15931WAT     H248036   4.681   2.999   9.157
15932WAT      O48037   4.253   3.555   4.122
15932WAT     H148038   4.298   3.639   4.092
15932WAT     H248039   4.216   3.506   4.043
15933WAT      O48040   9.374   4.719   5.251
15933WAT     H148041   9.440   4.674   5.310
15933WAT     H248042   9.417   4.744   5.164
15934WAT      O48043   0.128   5.149   0.845
15934WAT     H148044   0.191   5.072   0.835
15934WAT     H248045   0.056   5.143   0.776
15935WAT      O48046   3.497   3.896   8.418
15935WAT     H148047   3.492   3.993   8.443
15935WAT     H248048   3.552   3.886   8.335
15936WAT      O48049   3.462   0.159   4.415
15936WAT     H148050   3.556   0.192   4.416
15936WAT     H248051   3.404   0.223   4.365
15937WAT      O48052   9.478   0.906   0.059
15937WAT     H148053   9.451   0.954   0.142
15937WAT     H248054   9.455   0.809   0.067
15938WAT      O48055   1.770   3.902   2.129
15938WAT     H148056   1.704   3.845   2.177
15938WAT     H248057   1.795   3.859   2.043
15939WAT      O48058   0.868   7.067   6.445
15939WAT     H148059   0.778   7.029   6.426
15939WAT     H248060   0.916   7.083   6.359
15940WAT      O48061   3.281   0.750   6.606
15940WAT     H148062   3.270   0.675   6.671
15940WAT     H248063   3.299   0.835   6.656
15941WAT      O48064   1.202   5.967   3.931
15941WAT     H148065   1.240   6.057   3.909
15941WAT     H248066   1.269   5.914   3.983
15942WAT      O48067   7.160   0.959   3.173
15942WAT     H148068   7.196   0.906   3.250
15942WAT     H248069   7.202   0.925   3.088
15943WAT      O48070   1.668   5.112   6.461
15943WAT     H148071   1.765   5.098   6.440
15943WAT     H248072   1.621   5.023   6.459
15944WAT      O48073   2.719   4.266   5.634
15944WAT     H148074   2.683   4.226   5.550
15944WAT     H248075   2.758   4.194   5.691
15945WAT      O48076   9.229   3.493   1.088
15945WAT     H148077   9.243   3.395   1.104
15945WAT     H248078   9.165   3.506   1.012
15946WAT      O48079   4.111   1.893   5.857
15946WAT     H148080   4.066   1.815   5.814
15946WAT     H248081   4.187   1.924   5.799
15947WAT      O48082   6.500   3.145   5.775
15947WAT     H148083   6.497   3.234   5.728
15947WAT     H248084   6.553   3.154   5.859
15948WAT      O48085   1.547   6.242   2.173
15948WAT     H148086   1.574   6.166   2.231
15948WAT     H248087   1.458   6.278   2.203
15949WAT      O48088   7.874   1.665   0.164
15949WAT     H148089   7.786   1.671   0.212
15949WAT     H248090   7.858   1.641   0.069
15950WAT      O48091   4.182   8.773   8.606
15950WAT     H148092   4.160   8.709   8.532
15950WAT     H248093   4.234   8.850   8.569
15951WAT      O48094   7.343   0.914   9.824
15951WAT     H148095   7.252   0.891   9.858
15951WAT     H248096   7.369   1.005   9.856
15952WAT      O48097   0.029   3.569   9.301
15952WAT     H148098  -0.046   3.601   9.242
15952WAT     H248099   0.027   3.619   9.387
15953WAT      O48100   1.561   3.755   6.993
15953WAT     H148101   1.618   3.800   7.061
15953WAT     H248102   1.503   3.687   7.037
15954WAT      O48103   8.586   4.561   5.359
15954WAT     H148104   8.672   4.524   5.393
15954WAT     H248105   8.566   4.647   5.406
15955WAT      O48106   1.107   6.366   1.335
15955WAT     H148107   1.007   6.366   1.331
15955WAT     H248108   1.140   6.459   1.349
15956WAT      O48109   3.117   7.796   9.270
15956WAT     H148110   3.035   7.770   9.218
15956WAT     H248111   3.157   7.878   9.230
15957WAT      O48112   7.323   3.714   5.389
15957WAT     H148113   7.353   3.702   5.294
15957WAT     H248114   7.389   3.771   5.438
15958WAT      O48115   7.895   8.979   0.250
15958WAT     H148116   7.856   8.916   0.183
15958WAT     H248117   7.914   8.930   0.335
15959WAT      O48118   3.942   2.280   1.504
15959WAT     H148119   4.018   2.217   1.521
15959WAT     H248120   3.872   2.268   1.574
15960WAT      O48121   5.881   7.210   5.216
15960WAT     H148122   5.886   7.299   5.260
15960WAT     H248123   5.810   7.212   5.145
15961WAT      O48124   7.196   5.390   7.396
15961WAT     H148125   7.171   5.317   7.460
15961WAT     H248126   7.169   5.364   7.304
15962WAT      O48127   4.820   5.147   3.219
15962WAT     H148128   4.751   5.200   3.171
15962WAT     H248129   4.907   5.154   3.170
15963WAT      O48130   7.607   6.683   1.762
15963WAT     H148131   7.655   6.743   1.825
15963WAT     H248132   7.516   6.663   1.797
15964WAT      O48133   8.677   8.948   5.538
15964WAT     H148134   8.640   8.943   5.445
15964WAT     H248135   8.777   8.949   5.533
15965WAT      O48136   0.656   4.606   5.338
15965WAT     H148137   0.655   4.691   5.285
15965WAT     H248138   0.708   4.621   5.422
15966WAT      O48139   6.973   2.396   2.931
15966WAT     H148140   6.939   2.369   3.022
15966WAT     H248141   6.908   2.367   2.862
15967WAT      O48142   9.259   8.719   7.034
15967WAT     H148143   9.326   8.686   6.968
15967WAT     H248144   9.168   8.685   7.010
15968WAT      O48145   5.299   2.771   5.460
15968WAT     H148146   5.280   2.855   5.409
15968WAT     H248147   5.220   2.710   5.456
15969WAT      O48148   4.694   3.956   0.228
15969WAT     H148149   4.673   3.979   0.133
15969WAT     H248150   4.747   4.029   0.269
15970WAT      O48151   9.410   4.066   8.650
15970WAT     H148152   9.466   4.107   8.722
15970WAT     H248153   9.336   4.129   8.626
15971WAT      O48154   6.536   2.719   4.182
15971WAT     H148155   6.493   2.804   4.152
15971WAT     H248156   6.472   2.668   4.240
15972WAT      O48157   7.880   5.189   4.654
15972WAT     H148158   7.791   5.217   4.690
15972WAT     H248159   7.931   5.140   4.725
15973WAT      O48160   8.945   1.587   7.322
15973WAT     H148161   8.975   1.671   7.368
15973WAT     H248162   9.022   1.547   7.272
15974WAT      O48163   8.935   7.958   0.383
15974WAT     H148164   8.872   7.995   0.451
15974WAT     H248165   8.954   8.029   0.314
15975WAT      O48166   0.514   9.030   9.870
15975WAT     H148167   0.446   8.971   9.913
15975WAT     H248168   0.603   9.018   9.915
15976WAT      O48169   0.451   3.350   8.859
15976WAT     H148170   0.481   3.386   8.771
15976WAT     H248171   0.415   3.258   8.847
15977WAT      O48172   3.937   8.523   7.264
15977WAT     H148173   4.019   8.520   7.322
15977WAT     H248174   3.902   8.431   7.250
15978WAT      O48175   9.104   9.245   4.463
15978WAT     H148176   9.103   9.244   4.363
15978WAT     H248177   9.195   9.271   4.495
15979WAT      O48178   8.032   7.931   1.404
15979WAT     H148179   7.994   8.016   1.439
15979WAT     H248180   7.984   7.853   1.444
15980WAT      O48181   1.541   9.218   2.771
15980WAT     H148182   1.522   9.126   2.738
15980WAT     H248183   1.630   9.248   2.738
15981WAT      O48184   4.518   5.933   5.862
15981WAT     H148185   4.573   5.850   5.857
15981WAT     H248186   4.421   5.909   5.851
15982WAT      O48187   7.960   2.392   4.142
15982WAT     H148188   7.967   2.328   4.066
15982WAT     H248189   7.872   2.380   4.188
15983WAT      O48190   7.063   0.601   4.580
15983WAT     H148191   7.139   0.665   4.574
15983WAT     H248192   7.024   0.604   4.672
15984WAT      O48193   6.297   6.438   0.804
15984WAT     H148194   6.349   6.517   0.773
15984WAT     H248195   6.203   6.466   0.825
15985WAT      O48196   2.322   6.994   1.064
15985WAT     H148197   2.351   6.940   0.985
15985WAT     H248198   2.245   6.948   1.109
15986WAT      O48199   3.669   4.627   7.307
15986WAT     H148200   3.667   4.584   7.397
15986WAT     H248201   3.597   4.696   7.301
15987WAT      O48202   6.836   6.978   1.790
15987WAT     H148203   6.887   7.048   1.840
15987WAT     H248204   6.891   6.945   1.713
15988WAT      O48205   3.148   0.510   0.835
15988WAT     H148206   3.203   0.491   0.917
15988WAT     H248207   3.192   0.583   0.783
15989WAT      O48208   1.232   5.174   9.041
15989WAT     H148209   1.276   5.215   8.961
15989WAT     H248210   1.133   5.165   9.024
15990WAT      O48211   9.711   8.699   3.234
15990WAT     H148212   9.696   8.706   3.332
15990WAT     H248213   9.806   8.725   3.213
15991WAT      O48214   9.846   5.615   3.303
15991WAT     H148215   9.896   5.693   3.340
15991WAT     H248216   9.892   5.583   3.219
15992WAT      O48217   6.526   0.223   7.475
15992WAT     H148218   6.541   0.260   7.384
15992WAT     H248219   6.458   0.150   7.471
15993WAT      O48220   0.655   2.461   2.262
15993WAT     H148221   0.649   2.547   2.313
15993WAT     H248222   0.751   2.434   2.252
15994WAT      O48223   2.962   7.586   2.750
15994WAT     H148224   3.012   7.506   2.718
15994WAT     H248225   2.869   7.560   2.774
15995WAT      O48226   3.442   8.283   7.610
15995WAT     H148227   3.501   8.212   7.572
15995WAT     H248228   3.375   8.311   7.540
15996WAT      O48229   5.772   2.362   6.364
15996WAT     H148230   5.865   2.325   6.370
15996WAT     H248231   5.771   2.454   6.402
15997WAT      O48232   7.034   8.661   6.545
15997WAT     H148233   7.016   8.689   6.451
15997WAT     H248234   7.093   8.580   6.545
15998WAT      O48235   3.492   4.695   3.415
15998WAT     H148236   3.496   4.689   3.315
15998WAT     H248237   3.543   4.618   3.454
15999WAT      O48238   6.425   7.408   0.358
15999WAT     H148239   6.416   7.376   0.452
15999WAT     H248240   6.403   7.333   0.296
16000WAT      O48241   1.899   7.406   6.540
16000WAT     H148242   1.988   7.427   6.501
16000WAT     H248243   1.833   7.477   6.512
16001WAT      O48244   1.951   2.078   9.026
16001WAT     H148245   1.957   2.177   9.010
16001WAT     H248246   1.893   2.061   9.105
16002WAT      O48247   2.419   7.062   0.259
16002WAT     H148248   2.367   7.118   0.324
16002WAT     H248249   2.415   7.104   0.168
16003WAT      O48250   5.278   1.876   7.484
16003WAT     H148251   5.196   1.902   7.535
16003WAT     H248252   5.338   1.955   7.474
16004WAT      O48253   6.167   8.555   2.375
16004WAT     H148254   6.191   8.592   2.465
16004WAT     H248255   6.089   8.493   2.385
16005WAT      O48256   7.820   0.355   2.606
16005WAT     H148257   7.756   0.311   2.544
16005WAT     H248258   7.890   0.403   2.554
16006WAT      O48259   5.772   6.909   1.928
16006WAT     H148260   5.849   6.956   1.886
16006WAT     H248261   5.750   6.827   1.875
16007WAT      O48262   9.637   7.528   7.994
16007WAT     H148263   9.574   7.452   8.009
16007WAT     H248264   9.600   7.587   7.922
16008WAT      O48265   0.871   4.829   7.597
16008WAT     H148266   0.780   4.791   7.614
16008WAT     H248267   0.937   4.754   7.585
16009WAT      O48268   6.783   6.782   2.052
16009WAT     H148269   6.769   6.685   2.031
16009WAT     H248270   6.715   6.836   2.003
16010WAT      O48271   4.606   2.068   3.680
16010WAT     H148272   4.610   1.971   3.705
16010WAT     H248273   4.531   2.082   3.616
16011WAT      O48274   8.922   8.532   6.726
16011WAT     H148275   8.994   8.584   6.680
16011WAT     H248276   8.834   8.580   6.715
16012WAT      O48277   9.343   5.718   2.471
16012WAT     H148278   9.312   5.776   2.396
16012WAT     H248279   9.394   5.774   2.537
16013WAT      O48280   3.810   5.801   7.089
16013WAT     H148281   3.875   5.732   7.056
16013WAT     H248282   3.807   5.877   7.024
16014WAT      O48283   2.644   4.509   3.859
16014WAT     H148284   2.640   4.440   3.931
16014WAT     H248285   2.617   4.598   3.896
16015WAT      O48286   3.285   1.258   8.265
16015WAT     H148287   3.221   1.255   8.341
16015WAT     H248288   3.256   1.195   8.193
16016WAT      O48289   3.739   6.752   2.209
16016WAT     H148290   3.812   6.685   2.198
16016WAT     H248291   3.740   6.789   2.302
16017WAT      O48292   1.962   5.154   2.110
16017WAT     H148293   1.930   5.110   2.026
16017WAT     H248294   2.014   5.236   2.087
16018WAT      O48295   5.864   2.938   2.598
16018WAT     H148296   5.930   2.893   2.538
16018WAT     H248297   5.786   2.969   2.544
16019WAT      O48298   3.815   3.239   4.005
16019WAT     H148299   3.862   3.326   3.994
16019WAT     H248300   3.789   3.204   3.916
16020WAT      O48301   1.824   1.790   2.146
16020WAT     H148302   1.788   1.720   2.208
16020WAT     H248303   1.885   1.748   2.079
16021WAT      O48304   8.405   4.035   4.039
16021WAT     H148305   8.461   3.971   4.091
16021WAT     H248306   8.317   3.994   4.019
16022WAT      O48307   0.232   0.263   4.638
16022WAT     H148308   0.227   0.189   4.706
16022WAT     H248309   0.247   0.350   4.686
16023WAT      O48310   2.976   9.426   2.873
16023WAT     H148311   2.894   9.378   2.904
16023WAT     H248312   3.032   9.364   2.817
16024WAT      O48313   3.962   2.893   0.769
16024WAT     H148314   3.942   2.836   0.690
16024WAT     H248315   3.906   2.976   0.766
16025WAT      O48316   0.279   9.076   5.470
16025WAT     H148317   0.346   9.123   5.527
16025WAT     H248318   0.270   8.981   5.500
16026WAT      O48319   4.092   8.254   5.874
16026WAT     H148320   4.059   8.335   5.923
16026WAT     H248321   4.017   8.188   5.866
16027WAT      O48322   4.137   6.841   9.147
16027WAT     H148323   4.198   6.783   9.092
16027WAT     H248324   4.185   6.868   9.231
16028WAT      O48325   7.041   0.936   4.390
16028WAT     H148326   7.133   0.964   4.362
16028WAT     H248327   7.040   0.919   4.489
16029WAT      O48328   8.389   7.635   4.284
16029WAT     H148329   8.477   7.615   4.242
16029WAT     H248330   8.347   7.551   4.317
16030WAT      O48331   1.493   7.854   2.427
16030WAT     H148332   1.427   7.840   2.353
16030WAT     H248333   1.483   7.781   2.495
16031WAT      O48334   6.982   2.068   0.572
16031WAT     H148335   6.928   2.050   0.490
16031WAT     H248336   6.922   2.070   0.652
16032WAT      O48337   2.048   9.157   3.968
16032WAT     H148338   1.996   9.176   4.051
16032WAT     H248339   2.127   9.218   3.964
16033WAT      O48340   3.297   9.450   0.294
16033WAT     H148341   3.386   9.495   0.299
16033WAT     H248342   3.290   9.400   0.207
16034WAT      O48343   7.447   3.613   6.336
16034WAT     H148344   7.457   3.626   6.435
16034WAT     H248345   7.499   3.683   6.287
16035WAT      O48346   5.812   4.604   9.458
16035WAT     H148347   5.874   4.583   9.382
16035WAT     H248348   5.720   4.571   9.435
16036WAT      O48349   5.255   9.284   7.459
16036WAT     H148350   5.332   9.337   7.424
16036WAT     H248351   5.289   9.202   7.504
16037WAT      O48352   3.408   0.555   0.726
16037WAT     H148353   3.457   0.503   0.657
16037WAT     H248354   3.353   0.627   0.682
16038WAT      O48355   1.873   6.399   2.264
16038WAT     H148356   1.854   6.353   2.177
16038WAT     H248357   1.889   6.496   2.248
16039WAT      O48358   6.634   7.633   9.618
16039WAT     H148359   6.717   7.668   9.661
16039WAT     H248360   6.590   7.707   9.567
16040WAT      O48361   8.572   2.167   4.695
16040WAT     H148362   8.556   2.087   4.637
16040WAT     H248363   8.590   2.247   4.638
16041WAT      O48364   4.034   7.313   5.074
16041WAT     H148365   4.097   7.279   5.144
16041WAT     H248366   3.948   7.341   5.117
16042WAT      O48367   4.320   4.945   8.517
16042WAT     H148368   4.220   4.946   8.514
16042WAT     H248369   4.354   4.858   8.480
16043WAT      O48370   7.444   3.963   2.197
16043WAT     H148371   7.453   4.013   2.283
16043WAT     H248372   7.526   3.908   2.182
16044WAT      O48373   6.684   0.369   2.558
16044WAT     H148374   6.724   0.443   2.504
16044WAT     H248375   6.597   0.398   2.597
16045WAT      O48376   9.398   6.272   6.152
16045WAT     H148377   9.428   6.216   6.230
16045WAT     H248378   9.470   6.273   6.083
16046WAT      O48379   1.288   4.320   0.012
16046WAT     H148380   1.264   4.227  -0.013
16046WAT     H248381   1.249   4.384  -0.054
16047WAT      O48382   8.909   7.119   2.689
16047WAT     H148383   8.824   7.091   2.643
16047WAT     H248384   8.907   7.218   2.703
16048WAT      O48385   3.077   3.715   8.931
16048WAT     H148386   3.074   3.627   8.980
16048WAT     H248387   3.153   3.714   8.866
16049WAT      O48388   2.829   3.358   4.240
16049WAT     H148389   2.781   3.335   4.156
16049WAT     H248390   2.771   3.338   4.319
16050WAT      O48391   3.837   1.386   9.197
16050WAT     H148392   3.927   1.407   9.236
16050WAT     H248393   3.785   1.471   9.188
16051WAT      O48394   6.170   9.076   7.641
16051WAT     H148395   6.198   9.047   7.733
16051WAT     H248396   6.094   9.018   7.610
16052WAT      O48397   0.689   5.505   3.113
16052WAT     H148398   0.720   5.428   3.057
16052WAT     H248399   0.598   5.486   3.150
16053WAT      O48400   6.653   0.474   8.209
16053WAT     H148401   6.662   0.455   8.307
16053WAT     H248402   6.731   0.528   8.177
16054WAT      O48403   9.176   1.723   4.177
16054WAT     H148404   9.222   1.634   4.170
16054WAT     H248405   9.226   1.790   4.122
16055WAT      O48406   4.841   8.644   8.948
16055WAT     H148407   4.885   8.569   8.898
16055WAT     H248408   4.742   8.634   8.942
16056WAT      O48409   4.999   5.890   6.776
16056WAT     H148410   4.950   5.831   6.713
16056WAT     H248411   4.940   5.966   6.804
16057WAT      O48412   1.979   0.295   6.454
16057WAT     H148413   1.968   0.388   6.419
16057WAT     H248414   2.075   0.269   6.446
16058WAT      O48415   6.593   1.116   2.781
16058WAT     H148416   6.637   1.123   2.692
16058WAT     H248417   6.496   1.094   2.769
16059WAT      O48418   3.613   4.815   8.139
16059WAT     H148419   3.593   4.782   8.047
16059WAT     H248420   3.536   4.793   8.200
16060WAT      O48421   0.927   4.585   2.908
16060WAT     H148422   0.936   4.519   2.834
16060WAT     H248423   0.877   4.544   2.984
16061WAT      O48424   6.613   0.875   9.015
16061WAT     H148425   6.622   0.973   9.035
16061WAT     H248426   6.594   0.863   8.917
16062WAT      O48427   7.104   5.903   7.234
16062WAT     H148428   7.163   5.971   7.189
16062WAT     H248429   7.146   5.813   7.227
16063WAT      O48430   3.510   0.694   7.517
16063WAT     H148431   3.556   0.612   7.552
16063WAT     H248432   3.528   0.703   7.419
16064WAT      O48433   8.981   3.782   6.612
16064WAT     H148434   8.906   3.716   6.614
16064WAT     H248435   8.950   3.868   6.570
16065WAT      O48436   2.793   2.003   9.775
16065WAT     H148437   2.725   2.075   9.760
16065WAT     H248438   2.746   1.914   9.780
16066WAT      O48439   9.125   4.808   9.372
16066WAT     H148440   9.117   4.783   9.468
16066WAT     H248441   9.203   4.870   9.359
16067WAT      O48442   1.985   0.894   5.206
16067WAT     H148443   2.041   0.885   5.124
16067WAT     H248444   2.028   0.844   5.281
16068WAT      O48445   0.010   1.677   8.076
16068WAT     H148446   0.034   1.657   8.171
16068WAT     H248447  -0.088   1.693   8.069
16069WAT      O48448   2.394   6.085   5.688
16069WAT     H148449   2.425   5.995   5.656
16069WAT     H248450   2.351   6.134   5.612
16070WAT      O48451   4.224   3.043   9.667
16070WAT     H148452   4.179   2.967   9.620
16070WAT     H248453   4.156   3.106   9.702
16071WAT      O48454   4.733   7.052   6.224
16071WAT     H148455   4.688   7.122   6.170
16071WAT     H248456   4.772   6.983   6.164
16072WAT      O48457   8.757   2.300   6.238
16072WAT     H148458   8.688   2.372   6.234
16072WAT     H248459   8.843   2.338   6.273
16073WAT      O48460   2.760   1.395   1.424
16073WAT     H148461   2.672   1.437   1.444
16073WAT     H248462   2.794   1.347   1.505
16074WAT      O48463   2.566   0.862   4.951
16074WAT     H148464   2.663   0.872   4.930
16074WAT     H248465   2.512   0.864   4.866
16075WAT      O48466   4.269   9.012   0.567
16075WAT     H148467   4.234   8.929   0.610
16075WAT     H248468   4.363   9.028   0.598
16076WAT      O48469   7.020   4.436   7.311
16076WAT     H148470   6.999   4.406   7.218
16076WAT     H248471   7.118   4.434   7.326
16077WAT      O48472   5.787   0.788   6.125
16077WAT     H148473   5.784   0.888   6.118
16077WAT     H248474   5.703   0.749   6.090
16078WAT      O48475   8.500   3.086   8.984
16078WAT     H148476   8.483   3.039   8.898
16078WAT     H248477   8.418   3.079   9.042
16079WAT      O48478   2.470   1.283   1.000
16079WAT     H148479   2.397   1.252   0.939
16079WAT     H248480   2.431   1.323   1.082
16080WAT      O48481   2.385   3.415   5.602
16080WAT     H148482   2.341   3.334   5.565
16080WAT     H248483   2.362   3.494   5.545
16081WAT      O48484   2.413   6.481   9.427
16081WAT     H148485   2.456   6.395   9.398
16081WAT     H248486   2.376   6.528   9.348
16082WAT      O48487   7.791   7.422   1.838
16082WAT     H148488   7.798   7.499   1.902
16082WAT     H248489   7.772   7.456   1.746
16083WAT      O48490   3.581   7.558   7.593
16083WAT     H148491   3.485   7.542   7.615
16083WAT     H248492   3.633   7.572   7.677
16084WAT      O48493   1.378   7.512   7.753
16084WAT     H148494   1.407   7.547   7.664
16084WAT     H248495   1.279   7.521   7.763
16085WAT      O48496   8.069   9.210   4.304
16085WAT     H148497   8.144   9.168   4.254
16085WAT     H248498   8.102   9.290   4.354
16086WAT      O48499   8.441   6.055   4.013
16086WAT     H148500   8.470   6.151   4.018
16086WAT     H248501   8.423   6.031   3.917
16087WAT      O48502   7.609   1.830   7.962
16087WAT     H148503   7.629   1.749   7.907
16087WAT     H248504   7.676   1.837   8.035
16088WAT      O48505   1.792   6.788   9.244
16088WAT     H148506   1.871   6.760   9.190
16088WAT     H248507   1.812   6.875   9.290
16089WAT      O48508   0.054   1.114   6.780
16089WAT     H148509  -0.028   1.090   6.728
16089WAT     H248510   0.081   1.037   6.837
16090WAT      O48511   2.136   2.166   9.820
16090WAT     H148512   2.141   2.075   9.780
16090WAT     H248513   2.214   2.221   9.790
16091WAT      O48514   1.190   9.763   1.887
16091WAT     H148515   1.132   9.796   1.961
16091WAT     H248516   1.279   9.735   1.925
16092WAT      O48517   7.908   5.668   6.155
16092WAT     H148518   7.924   5.591   6.217
16092WAT     H248519   7.990   5.685   6.101
16093WAT      O48520   4.207   7.092   6.564
16093WAT     H148521   4.127   7.035   6.547
16093WAT     H248522   4.245   7.123   6.477
16094WAT      O48523   4.244   8.680   9.211
16094WAT     H148524   4.303   8.748   9.169
16094WAT     H248525   4.157   8.723   9.239
16095WAT      O48526   2.202   3.488   1.807
16095WAT     H148527   2.199   3.516   1.903
16095WAT     H248528   2.195   3.569   1.748
16096WAT      O48529   1.721   6.020   5.254
16096WAT     H148530   1.654   5.958   5.294
16096WAT     H248531   1.677   6.106   5.228
16097WAT      O48532   5.224   9.258   0.460
16097WAT     H148533   5.151   9.310   0.503
16097WAT     H248534   5.198   9.161   0.456
16098WAT      O48535   5.780   0.646   6.649
16098WAT     H148536   5.800   0.743   6.659
16098WAT     H248537   5.736   0.612   6.733
16099WAT      O48538   6.838   5.501   2.630
16099WAT     H148539   6.813   5.433   2.560
16099WAT     H248540   6.937   5.514   2.630
16100WAT      O48541   4.606   8.637   6.572
16100WAT     H148542   4.535   8.620   6.641
16100WAT     H248543   4.692   8.595   6.601
16101WAT      O48544   0.771   2.505   7.309
16101WAT     H148545   0.813   2.581   7.358
16101WAT     H248546   0.841   2.459   7.254
16102WAT      O48547   7.033   1.929   6.191
16102WAT     H148548   6.934   1.914   6.185
16102WAT     H248549   7.074   1.860   6.250
16103WAT      O48550   3.202   3.065   0.030
16103WAT     H148551   3.248   3.136   0.083
16103WAT     H248552   3.246   2.977   0.046
16104WAT      O48553   7.645   4.734   6.158
16104WAT     H148554   7.620   4.759   6.064
16104WAT     H248555   7.734   4.688   6.158
16105WAT      O48556   9.233   3.047   3.941
16105WAT     H148557   9.212   3.056   4.039
16105WAT     H248558   9.284   3.127   3.910
16106WAT      O48559   7.930   3.212   4.592
16106WAT     H148560   7.946   3.291   4.533
16106WAT     H248561   7.975   3.226   4.680
16107WAT      O48562   6.281   5.065   2.868
16107WAT     H148563   6.215   5.133   2.838
16107WAT     H248564   6.269   4.981   2.816
16108WAT      O48565   9.345   2.519   8.904
16108WAT     H148566   9.341   2.525   8.804
16108WAT     H248567   9.252   2.509   8.941
16109WAT      O48568   7.653   9.263   1.369
16109WAT     H148569   7.601   9.339   1.329
16109WAT     H248570   7.723   9.234   1.304
16110WAT      O48571   4.925   1.087   4.893
16110WAT     H148572   5.001   1.097   4.958
16110WAT     H248573   4.952   1.024   4.820
16111WAT      O48574   3.186   9.217   5.567
16111WAT     H148575   3.283   9.241   5.569
16111WAT     H248576   3.174   9.120   5.589
16112WAT      O48577   5.034   8.376   1.414
16112WAT     H148578   4.972   8.438   1.366
16112WAT     H248579   5.028   8.285   1.374
16113WAT      O48580   8.527   3.306   1.807
16113WAT     H148581   8.443   3.359   1.808
16113WAT     H248582   8.524   3.235   1.877
16114WAT      O48583   3.348   3.484   2.030
16114WAT     H148584   3.271   3.458   2.088
16114WAT     H248585   3.426   3.509   2.087
16115WAT      O48586   6.441   0.285   9.653
16115WAT     H148587   6.469   0.337   9.572
16115WAT     H248588   6.416   0.348   9.726
16116WAT      O48589   8.520   7.130   7.573
16116WAT     H148590   8.555   7.146   7.480
16116WAT     H248591   8.517   7.032   7.591
16117WAT      O48592   2.437   8.009   5.542
16117WAT     H148593   2.360   8.071   5.553
16117WAT     H248594   2.459   8.002   5.444
16118WAT      O48595   3.153   6.594   4.993
16118WAT     H148596   3.054   6.586   5.006
16118WAT     H248597   3.199   6.550   5.069
16119WAT      O48598   9.689   7.739   8.375
16119WAT     H148599   9.728   7.799   8.445
16119WAT     H248600   9.595   7.766   8.356
16120WAT      O48601   3.480   2.912   4.768
16120WAT     H148602   3.504   2.970   4.691
16120WAT     H248603   3.495   2.962   4.853
16121WAT      O48604   1.007   4.065   8.132
16121WAT     H148605   0.990   3.971   8.103
16121WAT     H248606   1.076   4.066   8.204
16122WAT      O48607   3.904   6.377   1.566
16122WAT     H148608   3.977   6.433   1.527
16122WAT     H248609   3.909   6.285   1.526
16123WAT      O48610   4.899   5.560   8.455
16123WAT     H148611   4.989   5.602   8.464
16123WAT     H248612   4.908   5.460   8.460
16124WAT      O48613   9.380   7.239   6.012
16124WAT     H148614   9.437   7.311   6.051
16124WAT     H248615   9.284   7.268   6.012
16125WAT      O48616   7.496   3.199   7.308
16125WAT     H148617   7.482   3.206   7.209
16125WAT     H248618   7.566   3.130   7.326
16126WAT      O48619   6.266   3.810   9.641
16126WAT     H148620   6.333   3.842   9.709
16126WAT     H248621   6.198   3.753   9.687
16127WAT      O48622   4.226   2.825   4.300
16127WAT     H148623   4.237   2.813   4.399
16127WAT     H248624   4.285   2.760   4.252
16128WAT      O48625   7.996   6.788   9.365
16128WAT     H148626   7.912   6.760   9.411
16128WAT     H248627   8.065   6.717   9.375
16129WAT      O48628   9.493   5.202   1.146
16129WAT     H148629   9.502   5.162   1.238
16129WAT     H248630   9.424   5.152   1.094
16130WAT      O48631   2.614   5.288   0.293
16130WAT     H148632   2.520   5.315   0.311
16130WAT     H248633   2.665   5.367   0.258
16131WAT      O48634   8.677   7.549   1.521
16131WAT     H148635   8.685   7.613   1.445
16131WAT     H248636   8.750   7.565   1.587
16132WAT      O48637   2.806   0.905   8.623
16132WAT     H148638   2.901   0.884   8.646
16132WAT     H248639   2.801   0.991   8.573
16133WAT      O48640   3.312   1.065   3.145
16133WAT     H148641   3.259   1.110   3.073
16133WAT     H248642   3.305   1.119   3.229
16134WAT      O48643   9.127   4.976   3.027
16134WAT     H148644   9.060   4.925   3.080
16134WAT     H248645   9.197   5.012   3.088
16135WAT      O48646   4.238   0.158   4.178
16135WAT     H148647   4.245   0.185   4.082
16135WAT     H248648   4.324   0.174   4.225
16136WAT      O48649   5.291   7.482   4.320
16136WAT     H148650   5.323   7.450   4.410
16136WAT     H248651   5.344   7.561   4.292
16137WAT      O48652   0.413   1.698   7.721
16137WAT     H148653   0.452   1.631   7.785
16137WAT     H248654   0.485   1.760   7.689
16138WAT      O48655   3.073   0.893   4.402
16138WAT     H148656   3.061   0.929   4.309
16138WAT     H248657   3.054   0.965   4.468
16139WAT      O48658   4.318   8.840   2.263
16139WAT     H148659   4.402   8.793   2.236
16139WAT     H248660   4.273   8.877   2.182
16140WAT      O48661   8.810   6.710   1.845
16140WAT     H148662   8.825   6.649   1.767
16140WAT     H248663   8.785   6.801   1.811
16141WAT      O48664   7.906   5.430   4.535
16141WAT     H148665   7.945   5.422   4.443
16141WAT     H248666   7.872   5.341   4.565
16142WAT      O48667   7.948   8.472   2.530
16142WAT     H148668   7.977   8.567   2.538
16142WAT     H248669   8.025   8.412   2.550
16143WAT      O48670   4.531   4.059   9.170
16143WAT     H148671   4.442   4.103   9.182
16143WAT     H248672   4.599   4.128   9.145
16144WAT      O48673   7.172   0.953   5.402
16144WAT     H148674   7.134   1.031   5.451
16144WAT     H248675   7.152   0.869   5.452
16145WAT      O48676   7.056   7.133   1.431
16145WAT     H148677   7.086   7.059   1.492
16145WAT     H248678   7.129   7.152   1.365
16146WAT      O48679   3.422   4.429   6.756
16146WAT     H148680   3.420   4.383   6.667
16146WAT     H248681   3.515   4.464   6.773
16147WAT      O48682   9.542   3.495   0.854
16147WAT     H148683   9.556   3.594   0.863
16147WAT     H248684   9.449   3.478   0.822
16148WAT      O48685   7.476   1.140   5.403
16148WAT     H148686   7.421   1.115   5.482
16148WAT     H248687   7.554   1.077   5.395
16149WAT      O48688   5.845   9.101   6.961
16149WAT     H148689   5.764   9.110   7.018
16149WAT     H248690   5.856   9.006   6.933
16150WAT      O48691   1.592   7.837   3.357
16150WAT     H148692   1.497   7.841   3.327
16150WAT     H248693   1.617   7.741   3.373
16151WAT      O48694   1.068   6.452   8.001
16151WAT     H148695   1.101   6.359   8.017
16151WAT     H248696   0.970   6.450   7.983
16152WAT      O48697   5.212   1.586   5.628
16152WAT     H148698   5.144   1.561   5.696
16152WAT     H248699   5.239   1.505   5.576
16153WAT      O48700   9.134   9.619   9.097
16153WAT     H148701   9.186   9.704   9.096
16153WAT     H248702   9.197   9.542   9.096
16154WAT      O48703   8.039   6.980   6.331
16154WAT     H148704   8.110   6.915   6.361
16154WAT     H248705   8.051   7.067   6.378
16155WAT      O48706   2.067   0.767   2.315
16155WAT     H148707   2.066   0.668   2.298
16155WAT     H248708   1.975   0.803   2.302
16156WAT      O48709   2.231   7.488   8.332
16156WAT     H148710   2.143   7.530   8.356
16156WAT     H248711   2.290   7.485   8.412
16157WAT      O48712   1.536   4.944   7.518
16157WAT     H148713   1.466   4.933   7.589
16157WAT     H248714   1.583   5.032   7.531
16158WAT      O48715   4.116   4.034   9.316
16158WAT     H148716   4.094   4.053   9.412
16158WAT     H248717   4.148   3.939   9.307
16159WAT      O48718   5.181   2.019   4.045
16159WAT     H148719   5.247   1.999   3.972
16159WAT     H248720   5.137   2.107   4.026
16160WAT      O48721   1.273   7.314   7.076
16160WAT     H148722   1.233   7.395   7.033
16160WAT     H248723   1.310   7.338   7.166
16161WAT      O48724   9.344   6.856   4.046
16161WAT     H148725   9.260   6.910   4.052
16161WAT     H248726   9.381   6.842   4.138
16162WAT      O48727   0.700   8.755   8.343
16162WAT     H148728   0.787   8.728   8.385
16162WAT     H248729   0.661   8.832   8.393
16163WAT      O48730   9.235   4.820   4.381
16163WAT     H148731   9.138   4.798   4.378
16163WAT     H248732   9.284   4.750   4.432
16164WAT      O48733   1.499   0.227   4.700
16164WAT     H148734   1.574   0.202   4.639
16164WAT     H248735   1.413   0.196   4.660
16165WAT      O48736   6.798   0.421   1.075
16165WAT     H148737   6.763   0.327   1.069
16165WAT     H248738   6.843   0.445   0.990
16166WAT      O48739   7.506   4.598   1.356
16166WAT     H148740   7.443   4.672   1.379
16166WAT     H248741   7.562   4.576   1.437
16167WAT      O48742   5.424   5.041   4.823
16167WAT     H148743   5.505   5.071   4.874
16167WAT     H248744   5.447   5.034   4.726
16168WAT      O48745   9.892   9.746   0.658
16168WAT     H148746   9.810   9.694   0.632
16168WAT     H248747   9.864   9.833   0.698
16169WAT      O48748   6.102   2.133   1.137
16169WAT     H148749   6.121   2.041   1.170
16169WAT     H248750   6.169   2.196   1.175
16170WAT      O48751   1.384   6.497   2.619
16170WAT     H148752   1.458   6.515   2.685
16170WAT     H248753   1.422   6.497   2.527
16171WAT      O48754   1.340   3.496   4.909
16171WAT     H148755   1.344   3.554   4.828
16171WAT     H248756   1.312   3.404   4.882
16172WAT      O48757   6.056   0.927   8.970
16172WAT     H148758   6.139   0.965   9.010
16172WAT     H248759   6.025   0.849   9.025
16173WAT      O48760   9.382   2.982   0.205
16173WAT     H148761   9.385   3.068   0.255
16173WAT     H248762   9.400   2.999   0.108
16174WAT      O48763   4.096   6.626   0.395
16174WAT     H148764   4.013   6.677   0.416
16174WAT     H248765   4.141   6.665   0.315
16175WAT      O48766   4.778   2.687   6.103
16175WAT     H148767   4.788   2.731   6.014
16175WAT     H248768   4.772   2.756   6.175
16176WAT      O48769   8.860   9.684   7.518
16176WAT     H148770   8.855   9.700   7.419
16176WAT     H248771   8.824   9.593   7.538
16177WAT      O48772   4.466   2.409   8.276
16177WAT     H148773   4.465   2.477   8.203
16177WAT     H248774   4.450   2.454   8.364
16178WAT      O48775   7.520   5.992   7.954
16178WAT     H148776   7.481   5.941   8.030
16178WAT     H248777   7.454   5.995   7.879
16179WAT      O48778   8.080   0.925   5.023
16179WAT     H148779   8.026   0.996   4.979
16179WAT     H248780   8.153   0.895   4.961
16180WAT      O48781   8.685   9.285   4.066
16180WAT     H148782   8.662   9.378   4.037
16180WAT     H248783   8.763   9.252   4.013
16181WAT      O48784   8.572   8.497   8.192
16181WAT     H148785   8.474   8.507   8.207
16181WAT     H248786   8.622   8.529   8.273
16182WAT      O48787   4.041   2.075   3.822
16182WAT     H148788   4.115   2.135   3.793
16182WAT     H248789   4.071   1.980   3.814
16183WAT      O48790   0.514   2.485   5.421
16183WAT     H148791   0.601   2.489   5.471
16183WAT     H248792   0.530   2.503   5.324
16184WAT      O48793   3.752   7.209   5.507
16184WAT     H148794   3.741   7.136   5.574
16184WAT     H248795   3.748   7.170   5.415
16185WAT      O48796   8.030   2.468   9.477
16185WAT     H148797   7.985   2.409   9.544
16185WAT     H248798   7.975   2.469   9.393
16186WAT      O48799   7.807   9.790   5.623
16186WAT     H148800   7.747   9.836   5.688
16186WAT     H248801   7.770   9.800   5.531
16187WAT      O48802   6.972   8.583   4.874
16187WAT     H148803   6.995   8.593   4.778
16187WAT     H248804   6.973   8.672   4.919
16188WAT      O48805   8.670   7.526   8.161
16188WAT     H148806   8.660   7.439   8.209
16188WAT     H248807   8.678   7.509   8.063
16189WAT      O48808   2.501   6.757   2.469
16189WAT     H148809   2.557   6.731   2.390
16189WAT     H248810   2.427   6.691   2.481
16190WAT      O48811   7.508   1.729   6.079
16190WAT     H148812   7.536   1.633   6.068
16190WAT     H248813   7.568   1.773   6.146
16191WAT      O48814   6.501   2.868   9.427
16191WAT     H148815   6.561   2.946   9.442
16191WAT     H248816   6.445   2.884   9.346
16192WAT      O48817   5.615   7.393   8.672
16192WAT     H148818   5.588   7.399   8.576
16192WAT     H248819   5.694   7.453   8.688
16193WAT      O48820   2.897   3.880   7.547
16193WAT     H148821   2.888   3.821   7.467
16193WAT     H248822   2.840   3.845   7.621
16194WAT      O48823   2.714   2.192   1.946
16194WAT     H148824   2.724   2.289   1.924
16194WAT     H248825   2.761   2.173   2.032
16195WAT      O48826   6.983   8.523   8.646
16195WAT     H148827   6.981   8.525   8.746
16195WAT     H248828   7.070   8.561   8.614
16196WAT      O48829   3.090   9.153   5.268
16196WAT     H148830   3.064   9.096   5.346
16196WAT     H248831   3.008   9.184   5.221
16197WAT      O48832   8.522   8.834   0.536
16197WAT     H148833   8.489   8.928   0.526
16197WAT     H248834   8.610   8.835   0.583
16198WAT      O48835   3.113   6.578   8.010
16198WAT     H148836   3.059   6.563   7.927
16198WAT     H248837   3.200   6.622   7.985
16199WAT      O48838   1.601   3.796   3.121
16199WAT     H148839   1.569   3.705   3.144
16199WAT     H248840   1.543   3.835   3.050
16200WAT      O48841   0.965   3.585   9.775
16200WAT     H148842   0.932   3.633   9.694
16200WAT     H248843   0.939   3.636   9.858
16201WAT      O48844   3.901   5.578   8.155
16201WAT     H148845   3.839   5.603   8.081
16201WAT     H248846   3.974   5.519   8.119
16202WAT      O48847   1.173   5.857   4.328
16202WAT     H148848   1.130   5.815   4.408
16202WAT     H248849   1.103   5.900   4.271
16203WAT      O48850   9.724   1.493   4.190
16203WAT     H148851   9.759   1.450   4.273
16203WAT     H248852   9.625   1.507   4.198
16204WAT      O48853   8.812   5.334   5.738
16204WAT     H148854   8.782   5.299   5.827
16204WAT     H248855   8.763   5.420   5.718
16205WAT      O48856   5.843   7.844   0.733
16205WAT     H148857   5.937   7.834   0.699
16205WAT     H248858   5.797   7.756   0.730
16206WAT      O48859   2.516   1.433   3.590
16206WAT     H148860   2.429   1.481   3.601
16206WAT     H248861   2.498   1.334   3.583
16207WAT      O48862   0.690   0.910   1.593
16207WAT     H148863   0.608   0.881   1.643
16207WAT     H248864   0.750   0.831   1.579
16208WAT      O48865   1.205   1.628   2.254
16208WAT     H148866   1.167   1.678   2.177
16208WAT     H248867   1.198   1.530   2.237
16209WAT      O48868   1.921   3.620   0.846
16209WAT     H148869   1.881   3.699   0.893
16209WAT     H248870   1.862   3.594   0.769
16210WAT      O48871   1.381   1.480   7.187
16210WAT     H148872   1.359   1.440   7.098
16210WAT     H248873   1.380   1.409   7.256
16211WAT      O48874   4.613   1.691   9.181
16211WAT     H148875   4.648   1.669   9.272
16211WAT     H248876   4.663   1.639   9.112
16212WAT      O48877   5.772   3.423   0.813
16212WAT     H148878   5.788   3.483   0.891
16212WAT     H248879   5.693   3.457   0.761
16213WAT      O48880   2.023   3.466   3.794
16213WAT     H148881   1.945   3.505   3.745
16213WAT     H248882   2.074   3.406   3.733
16214WAT      O48883   6.335   9.418   1.477
16214WAT     H148884   6.419   9.466   1.501
16214WAT     H248885   6.281   9.474   1.414
16215WAT      O48886   7.779   7.805   6.776
16215WAT     H148887   7.701   7.796   6.838
16215WAT     H248888   7.754   7.862   6.698
16216WAT      O48889   5.950   9.155   0.375
16216WAT     H148890   5.993   9.108   0.298
16216WAT     H248891   5.971   9.253   0.370
16217WAT      O48892   6.646   5.161   8.754
16217WAT     H148893   6.574   5.137   8.688
16217WAT     H248894   6.686   5.249   8.729
16218WAT      O48895   6.805   7.965   1.607
16218WAT     H148896   6.857   7.880   1.597
16218WAT     H248897   6.760   7.966   1.697
16219WAT      O48898   5.416   4.388   9.661
16219WAT     H148899   5.487   4.378   9.592
16219WAT     H248900   5.451   4.441   9.739
16220WAT      O48901   0.510   8.537   7.032
16220WAT     H148902   0.520   8.592   6.949
16220WAT     H248903   0.418   8.497   7.035
16221WAT      O48904   3.453   4.515   3.776
16221WAT     H148905   3.381   4.583   3.762
16221WAT     H248906   3.417   4.424   3.753
16222WAT      O48907   8.592   7.070   8.092
16222WAT     H148908   8.510   7.023   8.124
16222WAT     H248909   8.577   7.105   8.000
16223WAT      O48910   5.029   9.334   3.457
16223WAT     H148911   4.950   9.394   3.465
16223WAT     H248912   5.092   9.371   3.389
16224WAT      O48913   9.815   8.798   5.509
16224WAT     H148914   9.814   8.852   5.425
16224WAT     H248915   9.724   8.762   5.527
16225WAT      O48916   1.472   7.202   2.308
16225WAT     H148917   1.552   7.146   2.288
16225WAT     H248918   1.446   7.255   2.227
16226WAT      O48919   5.568   9.083   7.767
16226WAT     H148920   5.526   9.040   7.846
16226WAT     H248921   5.659   9.044   7.752
16227WAT      O48922   1.360   1.617   1.253
16227WAT     H148923   1.367   1.518   1.242
16227WAT     H248924   1.277   1.639   1.304
16228WAT      O48925   6.656   1.056   6.433
16228WAT     H148926   6.724   1.074   6.362
16228WAT     H248927   6.572   1.022   6.390
16229WAT      O48928   7.220   4.039   0.569
16229WAT     H148929   7.289   4.008   0.635
16229WAT     H248930   7.169   4.116   0.609
16230WAT      O48931   6.591   1.843   0.776
16230WAT     H148932   6.556   1.758   0.738
16230WAT     H248933   6.556   1.920   0.722
16231WAT      O48934   4.583   7.212   3.180
16231WAT     H148935   4.670   7.191   3.224
16231WAT     H248936   4.549   7.301   3.213
16232WAT      O48937   3.896   9.848   7.004
16232WAT     H148938   3.932   9.854   6.911
16232WAT     H248939   3.919   9.758   7.043
16233WAT      O48940   7.920   0.297   5.607
16233WAT     H148941   7.856   0.308   5.682
16233WAT     H248942   7.994   0.236   5.634
16234WAT      O48943   6.899   0.229   1.444
16234WAT     H148944   6.942   0.233   1.534
16234WAT     H248945   6.945   0.293   1.382
16235WAT      O48946   8.568   3.410   5.530
16235WAT     H148947   8.652   3.377   5.485
16235WAT     H248948   8.534   3.490   5.482
16236WAT      O48949   1.882   5.715   1.028
16236WAT     H148950   1.810   5.769   1.072
16236WAT     H248951   1.893   5.629   1.078
16237WAT      O48952   0.314   5.563   1.746
16237WAT     H148953   0.295   5.654   1.709
16237WAT     H248954   0.236   5.503   1.731
16238WAT      O48955   2.034   4.258   0.579
16238WAT     H148956   1.955   4.250   0.517
16238WAT     H248957   2.025   4.192   0.653
16239WAT      O48958   5.957   4.598   6.501
16239WAT     H148959   5.958   4.516   6.445
16239WAT     H248960   6.043   4.606   6.552
16240WAT      O48961   4.465   2.280   2.511
16240WAT     H148962   4.550   2.258   2.560
16240WAT     H248963   4.445   2.208   2.445
16241WAT      O48964   0.428   9.544   4.540
16241WAT     H148965   0.359   9.473   4.555
16241WAT     H248966   0.439   9.598   4.623
16242WAT      O48967   2.530   1.383   0.140
16242WAT     H148968   2.520   1.479   0.164
16242WAT     H248969   2.504   1.369   0.045
16243WAT      O48970   1.617   0.723   1.133
16243WAT     H148971   1.627   0.823   1.127
16243WAT     H248972   1.621   0.684   1.041
16244WAT      O48973   2.747   3.382   0.207
16244WAT     H148974   2.810   3.405   0.133
16244WAT     H248975   2.672   3.449   0.210
16245WAT      O48976   4.840   7.736   8.603
16245WAT     H148977   4.866   7.648   8.644
16245WAT     H248978   4.914   7.769   8.546
16246WAT      O48979   8.589   7.218   2.758
16246WAT     H148980   8.492   7.238   2.742
16246WAT     H248981   8.611   7.129   2.718
16247WAT      O48982   5.680   0.407   9.211
16247WAT     H148983   5.591   0.366   9.229
16247WAT     H248984   5.745   0.378   9.281
16248WAT      O48985   3.487   0.022   7.864
16248WAT     H148986   3.463  -0.001   7.770
16248WAT     H248987   3.576   0.067   7.866
16249WAT      O48988   4.233   7.594   8.297
16249WAT     H148989   4.312   7.606   8.357
16249WAT     H248990   4.198   7.500   8.307
16250WAT      O48991   7.370   9.278   2.527
16250WAT     H148992   7.460   9.266   2.569
16250WAT     H248993   7.381   9.316   2.435
16251WAT      O48994   9.383   2.589   6.579
16251WAT     H148995   9.383   2.661   6.648
16251WAT     H248996   9.470   2.592   6.528
16252WAT      O48997   9.378   5.533   3.746
16252WAT     H148998   9.387   5.623   3.703
16252WAT     H248999   9.311   5.479   3.696
16253WAT      O49000   5.701   3.686   8.499
16253WAT     H149001   5.785   3.678   8.445
16253WAT     H249002   5.705   3.770   8.553
16254WAT      O49003   6.564   9.771   0.595
16254WAT     H149004   6.616   9.689   0.617
16254WAT     H249005   6.624   9.836   0.548
16255WAT      O49006   8.983   0.112   2.238
16255WAT     H149007   8.993   0.212   2.235
16255WAT     H249008   9.016   0.078   2.326
16256WAT      O49009   1.189   4.047   9.080
16256WAT     H149010   1.096   4.051   9.116
16256WAT     H249011   1.188   4.008   8.988
16257WAT      O49012   3.672   3.775   7.257
16257WAT     H149013   3.636   3.686   7.228
16257WAT     H249014   3.772   3.772   7.257
16258WAT      O49015   7.731   1.820   8.434
16258WAT     H149016   7.685   1.901   8.398
16258WAT     H249017   7.691   1.796   8.522
16259WAT      O49018   0.935   6.730   9.365
16259WAT     H149019   0.912   6.634   9.380
16259WAT     H249020   0.991   6.763   9.441
16260WAT      O49021   0.864   5.838   7.599
16260WAT     H149022   0.875   5.925   7.551
16260WAT     H249023   0.801   5.851   7.676
16261WAT      O49024   6.866   9.297   2.948
16261WAT     H149025   6.882   9.336   2.858
16261WAT     H249026   6.952   9.261   2.984
16262WAT      O49027   3.159   6.579   5.621
16262WAT     H149028   3.229   6.507   5.614
16262WAT     H249029   3.101   6.577   5.540
16263WAT      O49030   6.455   1.144   2.485
16263WAT     H149031   6.552   1.122   2.496
16263WAT     H249032   6.436   1.168   2.390
16264WAT      O49033   3.609   6.756   4.004
16264WAT     H149034   3.628   6.658   3.994
16264WAT     H249035   3.657   6.790   4.085
16265WAT      O49036   2.569   6.326   9.273
16265WAT     H149037   2.650   6.268   9.269
16265WAT     H249038   2.501   6.293   9.207
16266WAT      O49039   7.135   3.688   4.573
16266WAT     H149040   7.175   3.776   4.600
16266WAT     H249041   7.206   3.630   4.533
16267WAT      O49042   9.480   7.692   5.637
16267WAT     H149043   9.505   7.625   5.567
16267WAT     H249044   9.383   7.683   5.658
16268WAT      O49045   4.778   9.136   1.436
16268WAT     H149046   4.828   9.202   1.491
16268WAT     H249047   4.719   9.184   1.371
16269WAT      O49048   4.156   8.501   1.636
16269WAT     H149049   4.165   8.402   1.630
16269WAT     H249050   4.068   8.529   1.599
16270WAT      O49051   6.563   3.726   2.809
16270WAT     H149052   6.650   3.678   2.802
16270WAT     H249053   6.523   3.739   2.718
16271WAT      O49054   4.824   0.933   7.711
16271WAT     H149055   4.919   0.955   7.735
16271WAT     H249056   4.767   1.013   7.725
16272WAT      O49057   5.203   0.781   9.123
16272WAT     H149058   5.137   0.806   9.193
16272WAT     H249059   5.230   0.686   9.134
16273WAT      O49060   7.024   7.644   7.543
16273WAT     H149061   7.107   7.633   7.489
16273WAT     H249062   7.041   7.710   7.617
16274WAT      O49063   6.358   0.318   0.656
16274WAT     H149064   6.380   0.229   0.696
16274WAT     H249065   6.439   0.377   0.658
16275WAT      O49066   6.719   6.222   1.994
16275WAT     H149067   6.811   6.202   2.029
16275WAT     H249068   6.715   6.197   1.897
16276WAT      O49069   4.042   5.803   8.206
16276WAT     H149070   3.993   5.883   8.171
16276WAT     H249071   3.984   5.722   8.196
16277WAT      O49072   7.557   6.096   2.023
16277WAT     H149073   7.509   6.127   2.105
16277WAT     H249074   7.613   6.169   1.987
16278WAT      O49075   6.737   4.438   8.902
16278WAT     H149076   6.835   4.439   8.925
16278WAT     H249077   6.722   4.378   8.825
16279WAT      O49078   8.614   5.792   5.112
16279WAT     H149079   8.612   5.890   5.093
16279WAT     H249080   8.521   5.759   5.124
16280WAT      O49081   3.996   6.421   5.917
16280WAT     H149082   3.931   6.464   5.855
16280WAT     H249083   4.090   6.443   5.888
16281WAT      O49084   0.064   1.039   1.689
16281WAT     H149085  -0.002   1.084   1.629
16281WAT     H249086   0.094   0.954   1.647
16282WAT      O49087   0.444   3.808   5.187
16282WAT     H149088   0.347   3.833   5.186
16282WAT     H249089   0.478   3.808   5.281
16283WAT      O49090   3.413   3.774   3.624
16283WAT     H149091   3.374   3.693   3.667
16283WAT     H249092   3.366   3.856   3.658
16284WAT      O49093   5.100   5.375   1.427
16284WAT     H149094   5.113   5.382   1.328
16284WAT     H249095   5.175   5.421   1.474
16285WAT      O49096   4.112   2.002   0.190
16285WAT     H149097   4.196   2.038   0.232
16285WAT     H249098   4.135   1.957   0.104
16286WAT      O49099   6.268   1.784   4.276
16286WAT     H149100   6.244   1.857   4.212
16286WAT     H249101   6.273   1.697   4.226
16287WAT      O49102   0.750   1.525   5.324
16287WAT     H149103   0.756   1.503   5.227
16287WAT     H249104   0.654   1.531   5.351
16288WAT      O49105   7.580   2.817   5.840
16288WAT     H149106   7.509   2.859   5.783
16288WAT     H249107   7.577   2.856   5.932
16289WAT      O49108   2.173   2.933   9.250
16289WAT     H149109   2.108   2.980   9.310
16289WAT     H249110   2.238   2.999   9.213
16290WAT      O49111   7.223   2.752   5.196
16290WAT     H149112   7.126   2.772   5.208
16290WAT     H249113   7.277   2.821   5.245
16291WAT      O49114   1.100   5.381   6.275
16291WAT     H149115   1.000   5.387   6.271
16291WAT     H249116   1.140   5.472   6.261
16292WAT      O49117   0.073   8.792   3.189
16292WAT     H149118   0.089   8.881   3.231
16292WAT     H249119   0.102   8.795   3.093
16293WAT      O49120   3.074   3.079   4.243
16293WAT     H149121   3.155   3.137   4.235
16293WAT     H249122   3.024   3.079   4.157
16294WAT      O49123   3.539   6.761   5.345
16294WAT     H149124   3.617   6.812   5.382
16294WAT     H249125   3.558   6.734   5.251
16295WAT      O49126   8.343   0.438   4.395
16295WAT     H149127   8.289   0.395   4.467
16295WAT     H249128   8.311   0.406   4.306
16296WAT      O49129   8.033   7.882   2.101
16296WAT     H149130   8.052   7.842   2.191
16296WAT     H249131   7.938   7.865   2.076
16297WAT      O49132   2.678   8.543   3.652
16297WAT     H149133   2.631   8.554   3.564
16297WAT     H249134   2.681   8.631   3.700
16298WAT      O49135   8.627   6.139   6.721
16298WAT     H149136   8.577   6.104   6.800
16298WAT     H249137   8.642   6.238   6.732
16299WAT      O49138   1.267   0.391   6.766
16299WAT     H149139   1.177   0.415   6.802
16299WAT     H249140   1.327   0.471   6.769
16300WAT      O49141   9.578   8.969   9.213
16300WAT     H149142   9.588   8.967   9.114
16300WAT     H249143   9.632   9.044   9.251
16301WAT      O49144   8.253   7.510   7.011
16301WAT     H149145   8.310   7.583   7.050
16301WAT     H249146   8.294   7.478   6.926
16302WAT      O49147   5.738   1.966   0.276
16302WAT     H149148   5.701   1.881   0.237
16302WAT     H249149   5.718   2.042   0.214
16303WAT      O49150   0.419   7.046   4.937
16303WAT     H149151   0.324   7.070   4.918
16303WAT     H249152   0.424   6.996   5.024
16304WAT      O49153   0.973   9.778   3.316
16304WAT     H149154   0.883   9.804   3.350
16304WAT     H249155   0.962   9.721   3.234
16305WAT      O49156   2.080   7.800   9.108
16305WAT     H149157   2.061   7.794   9.010
16305WAT     H249158   2.022   7.735   9.157
16306WAT      O49159   3.296   2.457   6.424
16306WAT     H149160   3.288   2.545   6.377
16306WAT     H249161   3.392   2.428   6.423
16307WAT      O49162   8.295   2.818   8.198
16307WAT     H149163   8.290   2.727   8.158
16307WAT     H249164   8.234   2.880   8.149
16308WAT      O49165   4.342   8.392   4.241
16308WAT     H149166   4.339   8.324   4.168
16308WAT     H249167   4.352   8.483   4.201
16309WAT      O49168   4.666   7.020   1.761
16309WAT     H149169   4.656   7.018   1.860
16309WAT     H249170   4.762   7.035   1.738
16310WAT      O49171   3.750   4.399   2.491
16310WAT     H149172   3.701   4.329   2.440
16310WAT     H249173   3.832   4.359   2.532
16311WAT      O49174   1.140   8.275   6.750
16311WAT     H149175   1.180   8.354   6.704
16311WAT     H249176   1.131   8.294   6.847
16312WAT      O49177   8.578   8.981   4.815
16312WAT     H149178   8.629   8.902   4.780
16312WAT     H249179   8.620   9.014   4.899
16313WAT      O49180   6.272   5.412   9.797
16313WAT     H149181   6.290   5.372   9.707
16313WAT     H249182   6.350   5.394   9.857
16314WAT      O49183   1.605   8.077   3.971
16314WAT     H149184   1.543   8.025   3.912
16314WAT     H249185   1.572   8.171   3.979
16315WAT      O49186   4.576   8.874   5.686
16315WAT     H149187   4.567   8.777   5.661
16315WAT     H249188   4.517   8.894   5.764
16316WAT      O49189   4.568   1.997   6.230
16316WAT     H149190   4.546   2.036   6.141
16316WAT     H249191   4.658   2.028   6.259
16317WAT      O49192   7.530   1.784   5.378
16317WAT     H149193   7.552   1.798   5.474
16317WAT     H249194   7.614   1.766   5.327
16318WAT      O49195   9.017   7.684   8.089
16318WAT     H149196   9.031   7.692   8.187
16318WAT     H249197   9.103   7.706   8.041
16319WAT      O49198   3.951   8.318   3.669
16319WAT     H149199   3.861   8.330   3.627
16319WAT     H249200   4.017   8.291   3.599
16320WAT      O49201   6.491   8.543   0.666
16320WAT     H149202   6.538   8.602   0.732
16320WAT     H249203   6.399   8.521   0.700
16321WAT      O49204   8.853   2.844   2.792
16321WAT     H149205   8.888   2.753   2.767
16321WAT     H249206   8.872   2.908   2.718
16322WAT      O49207   1.467   4.906   6.456
16322WAT     H149208   1.400   4.962   6.505
16322WAT     H249209   1.432   4.813   6.447
16323WAT      O49210   1.703   1.248   0.071
16323WAT     H149211   1.633   1.277   0.136
16323WAT     H249212   1.718   1.150   0.079
16324WAT      O49213   3.250   1.215   5.680
16324WAT     H149214   3.323   1.279   5.652
16324WAT     H249215   3.197   1.257   5.754
16325WAT      O49216   5.297   1.742   6.013
16325WAT     H149217   5.246   1.755   6.098
16325WAT     H249218   5.356   1.662   6.021
16326WAT      O49219   6.224   2.654   8.104
16326WAT     H149220   6.185   2.745   8.119
16326WAT     H249221   6.219   2.600   8.188
16327WAT      O49222   3.176   8.445   0.726
16327WAT     H149223   3.197   8.538   0.694
16327WAT     H249224   3.081   8.423   0.705
16328WAT      O49225   7.920   1.127   9.453
16328WAT     H149226   7.998   1.117   9.515
16328WAT     H249227   7.892   1.037   9.419
16329WAT      O49228   2.327   6.102   4.715
16329WAT     H149229   2.288   6.096   4.807
16329WAT     H249230   2.427   6.104   4.720
16330WAT      O49231   8.401   1.934   1.631
16330WAT     H149232   8.367   1.904   1.720
16330WAT     H249233   8.354   2.019   1.604
16331WAT      O49234   2.281   0.169   2.898
16331WAT     H149235   2.197   0.154   2.951
16331WAT     H249236   2.295   0.092   2.835
16332WAT      O49237   4.561   6.766   9.781
16332WAT     H149238   4.545   6.865   9.772
16332WAT     H249239   4.521   6.719   9.702
16333WAT      O49240   5.014   2.012   5.882
16333WAT     H149241   5.019   2.023   5.982
16333WAT     H249242   5.000   1.915   5.861
16334WAT      O49243   1.398   4.488   0.994
16334WAT     H149244   1.458   4.557   0.954
16334WAT     H249245   1.373   4.421   0.925
16335WAT      O49246   2.244   1.979   2.003
16335WAT     H149247   2.277   1.949   1.913
16335WAT     H249248   2.321   2.017   2.055
16336WAT      O49249   9.424   0.373   8.813
16336WAT     H149250   9.478   0.399   8.893
16336WAT     H249251   9.352   0.309   8.842
16337WAT      O49252   3.438   9.626   6.465
16337WAT     H149253   3.354   9.656   6.421
16337WAT     H249254   3.417   9.565   6.541
16338WAT      O49255   0.929   8.017   5.062
16338WAT     H149256   0.923   8.053   4.969
16338WAT     H249257   1.003   7.949   5.066
16339WAT      O49258   4.554   1.190   1.931
16339WAT     H149259   4.545   1.207   2.029
16339WAT     H249260   4.498   1.111   1.906
16340WAT      O49261   5.593   8.771   0.342
16340WAT     H149262   5.689   8.748   0.327
16340WAT     H249263   5.548   8.786   0.254
16341WAT      O49264   6.327   3.740   6.640
16341WAT     H149265   6.423   3.768   6.631
16341WAT     H249266   6.275   3.814   6.682
16342WAT      O49267   3.669   0.448   0.187
16342WAT     H149268   3.707   0.475   0.276
16342WAT     H249269   3.698   0.354   0.165
16343WAT      O49270   2.891   2.544   8.175
16343WAT     H149271   2.825   2.512   8.244
16343WAT     H249272   2.868   2.503   8.087
16344WAT      O49273   0.888   5.084   8.151
16344WAT     H149274   0.835   5.127   8.078
16344WAT     H249275   0.983   5.113   8.145
16345WAT      O49276   0.041   2.060   4.195
16345WAT     H149277   0.045   2.006   4.111
16345WAT     H249278  -0.042   2.039   4.245
16346WAT      O49279   5.555   6.380   9.696
16346WAT     H149280   5.555   6.281   9.711
16346WAT     H249281   5.614   6.402   9.618
16347WAT      O49282   3.649   6.379   4.910
16347WAT     H149283   3.667   6.352   4.816
16347WAT     H249284   3.607   6.470   4.912
16348WAT      O49285   3.076   5.542   1.252
16348WAT     H149286   3.127   5.591   1.322
16348WAT     H249287   3.114   5.450   1.242
16349WAT      O49288   5.479   9.703   0.830
16349WAT     H149289   5.421   9.623   0.842
16349WAT     H249290   5.431   9.785   0.862
16350WAT      O49291   5.392   3.785   8.050
16350WAT     H149292   5.413   3.883   8.055
16350WAT     H249293   5.310   3.771   7.994
16351WAT      O49294   4.611   9.160   1.687
16351WAT     H149295   4.513   9.161   1.665
16351WAT     H249296   4.661   9.120   1.611
16352WAT      O49297   0.664   2.144   7.061
16352WAT     H149298   0.597   2.196   7.113
16352WAT     H249299   0.620   2.099   6.983
16353WAT      O49300   9.737   1.939   5.511
16353WAT     H149301   9.661   2.001   5.529
16353WAT     H249302   9.724   1.855   5.563
16354WAT      O49303   8.518   1.780   7.341
16354WAT     H149304   8.565   1.693   7.331
16354WAT     H249305   8.572   1.853   7.300
16355WAT      O49306   1.790   8.185   5.870
16355WAT     H149307   1.853   8.136   5.930
16355WAT     H249308   1.772   8.276   5.907
16356WAT      O49309   0.201   2.356   5.521
16356WAT     H149310   0.200   2.276   5.581
16356WAT     H249311   0.216   2.326   5.427
16357WAT      O49312   0.518   1.153   4.275
16357WAT     H149313   0.518   1.226   4.344
16357WAT     H249314   0.592   1.168   4.210
16358WAT      O49315   6.708   5.104   5.797
16358WAT     H149316   6.695   5.005   5.802
16358WAT     H249317   6.789   5.130   5.850
16359WAT      O49318   2.818   7.389   9.024
16359WAT     H149319   2.912   7.354   9.020
16359WAT     H249320   2.777   7.384   8.932
16360WAT      O49321   9.059   3.152   1.323
16360WAT     H149322   9.153   3.182   1.309
16360WAT     H249323   9.035   3.085   1.253
16361WAT      O49324   9.742   1.109   7.704
16361WAT     H149325   9.762   1.011   7.695
16361WAT     H249326   9.806   1.161   7.648
16362WAT      O49327   5.275   4.474   1.727
16362WAT     H149328   5.202   4.535   1.758
16362WAT     H249329   5.235   4.391   1.689
16363WAT      O49330   7.804   1.783   5.977
16363WAT     H149331   7.877   1.851   5.969
16363WAT     H249332   7.755   1.796   6.063
16364WAT      O49333   5.803   9.271   6.760
16364WAT     H149334   5.844   9.227   6.840
16364WAT     H249335   5.708   9.241   6.750
16365WAT      O49336   1.416   2.767   6.825
16365WAT     H149337   1.341   2.833   6.831
16365WAT     H249338   1.388   2.690   6.767
16366WAT      O49339   7.185   3.347   0.567
16366WAT     H149340   7.210   3.444   0.567
16366WAT     H249341   7.187   3.312   0.473
16367WAT      O49342   7.557   7.158   7.994
16367WAT     H149343   7.596   7.155   7.902
16367WAT     H249344   7.520   7.068   8.016
16368WAT      O49345   4.099   6.373   7.205
16368WAT     H149346   4.082   6.472   7.209
16368WAT     H249347   4.115   6.346   7.110
16369WAT      O49348   4.630   5.288   3.411
16369WAT     H149349   4.634   5.216   3.480
16369WAT     H249350   4.681   5.259   3.329
16370WAT      O49351   6.584   5.992   2.057
16370WAT     H149352   6.670   6.036   2.032
16370WAT     H249353   6.567   6.006   2.155
16371WAT      O49354   1.963   3.000   5.337
16371WAT     H149355   1.939   3.007   5.240
16371WAT     H249356   1.898   2.940   5.383
16372WAT      O49357   5.860   7.954   2.826
16372WAT     H149358   5.843   8.047   2.794
16372WAT     H249359   5.930   7.912   2.769
16373WAT      O49360   1.981   1.514   8.676
16373WAT     H149361   2.051   1.443   8.687
16373WAT     H249362   1.905   1.495   8.738
16374WAT      O49363   2.566   1.543   8.885
16374WAT     H149364   2.540   1.527   8.980
16374WAT     H249365   2.492   1.512   8.825
16375WAT      O49366   6.798   6.426   7.245
16375WAT     H149367   6.793   6.513   7.195
16375WAT     H249368   6.894   6.401   7.257
16376WAT      O49369   9.552   8.769   6.714
16376WAT     H149370   9.514   8.736   6.628
16376WAT     H249371   9.649   8.747   6.719
16377WAT      O49372   7.318   3.859   6.933
16377WAT     H149373   7.382   3.902   6.870
16377WAT     H249374   7.351   3.869   7.027
16378WAT      O49375   9.401   4.658   8.297
16378WAT     H149376   9.359   4.592   8.360
16378WAT     H249377   9.465   4.716   8.348
16379WAT      O49378   2.259   8.314   4.512
16379WAT     H149379   2.229   8.257   4.587
16379WAT     H249380   2.182   8.333   4.451
16380WAT      O49381   3.498   9.542   3.910
16380WAT     H149382   3.526   9.446   3.906
16380WAT     H249383   3.454   9.567   3.824
16381WAT      O49384   0.110   4.635   9.737
16381WAT     H149385   0.198   4.588   9.737
16381WAT     H249386   0.108   4.702   9.811
16382WAT      O49387   2.067   7.259   5.830
16382WAT     H149388   2.150   7.302   5.795
16382WAT     H249389   2.030   7.196   5.762
16383WAT      O49390   6.932   3.691   4.411
16383WAT     H149391   7.008   3.687   4.476
16383WAT     H249392   6.882   3.604   4.413
16384WAT      O49393   3.460   8.803   9.078
16384WAT     H149394   3.541   8.809   9.136
16384WAT     H249395   3.461   8.717   9.027
16385WAT      O49396   5.752   4.381   3.726
16385WAT     H149397   5.779   4.349   3.635
16385WAT     H249398   5.794   4.470   3.744
16386WAT      O49399   3.195   4.836   6.406
16386WAT     H149400   3.124   4.853   6.337
16386WAT     H249401   3.177   4.891   6.487
16387WAT      O49402   3.687   4.828   1.390
16387WAT     H149403   3.737   4.899   1.440
16387WAT     H249404   3.697   4.741   1.438
16388WAT      O49405   7.778   9.195   9.420
16388WAT     H149406   7.701   9.142   9.384
16388WAT     H249407   7.757   9.226   9.512
16389WAT      O49408   2.758   6.600   3.535
16389WAT     H149409   2.718   6.654   3.609
16389WAT     H249410   2.858   6.602   3.543
16390WAT      O49411   1.450   4.187   4.184
16390WAT     H149412   1.478   4.103   4.139
16390WAT     H249413   1.519   4.258   4.169
16391WAT      O49414   0.381   3.540   2.553
16391WAT     H149415   0.305   3.485   2.585
16391WAT     H249416   0.440   3.484   2.494
16392WAT      O49417   8.661   3.129   3.733
16392WAT     H149418   8.569   3.165   3.746
16392WAT     H249419   8.664   3.032   3.759
16393WAT      O49420   3.099   8.784   8.602
16393WAT     H149421   3.156   8.744   8.530
16393WAT     H249422   3.079   8.714   8.671
16394WAT      O49423   4.020   1.914   8.874
16394WAT     H149424   3.958   1.950   8.943
16394WAT     H249425   4.044   1.820   8.895
16395WAT      O49426   5.699   9.798   2.871
16395WAT     H149427   5.644   9.723   2.906
16395WAT     H249428   5.639   9.873   2.842
16396WAT      O49429   1.014   2.382   7.194
16396WAT     H149430   1.007   2.284   7.213
16396WAT     H249431   1.109   2.412   7.204
16397WAT      O49432   9.581   9.383   9.197
16397WAT     H149433   9.534   9.364   9.283
16397WAT     H249434   9.587   9.481   9.183
16398WAT      O49435   1.802   4.656   4.159
16398WAT     H149436   1.745   4.735   4.180
16398WAT     H249437   1.762   4.604   4.084
16399WAT      O49438   7.198   8.657   8.002
16399WAT     H149439   7.272   8.724   7.996
16399WAT     H249440   7.168   8.633   7.909
16400WAT      O49441   6.749   7.191   6.408
16400WAT     H149442   6.674   7.154   6.463
16400WAT     H249443   6.740   7.291   6.403
16401WAT      O49444   0.190   3.118   4.947
16401WAT     H149445   0.183   3.022   4.972
16401WAT     H249446   0.217   3.172   5.027
16402WAT      O49447   6.410   7.925   1.045
16402WAT     H149448   6.464   7.884   1.119
16402WAT     H249449   6.332   7.866   1.025
16403WAT      O49450   1.933   6.988   0.650
16403WAT     H149451   1.873   7.068   0.647
16403WAT     H249452   2.002   6.995   0.578
16404WAT      O49453   4.665   8.113   1.695
16404WAT     H149454   4.660   8.037   1.630
16404WAT     H249455   4.597   8.100   1.767
16405WAT      O49456   4.329   7.226   9.614
16405WAT     H149457   4.247   7.224   9.557
16405WAT     H249458   4.410   7.232   9.556
16406WAT      O49459   3.197   7.240   1.945
16406WAT     H149460   3.201   7.316   1.880
16406WAT     H249461   3.181   7.276   2.037
16407WAT      O49462   7.585   3.164   5.428
16407WAT     H149463   7.598   3.165   5.527
16407WAT     H249464   7.509   3.223   5.404
16408WAT      O49465   9.642   6.445   5.620
16408WAT     H149466   9.555   6.493   5.626
16408WAT     H249467   9.695   6.480   5.543
16409WAT      O49468   5.271   8.155   4.815
16409WAT     H149469   5.184   8.180   4.858
16409WAT     H249470   5.344   8.212   4.853
16410WAT      O49471   0.269   9.325   4.537
16410WAT     H149472   0.352   9.271   4.547
16410WAT     H249473   0.225   9.305   4.449
16411WAT      O49474   3.576   8.182   9.283
16411WAT     H149475   3.490   8.137   9.305
16411WAT     H249476   3.559   8.280   9.266
16412WAT      O49477   3.126   2.336   4.384
16412WAT     H149478   3.194   2.266   4.364
16412WAT     H249479   3.083   2.366   4.298
16413WAT      O49480   9.313   3.353   0.168
16413WAT     H149481   9.347   3.294   0.242
16413WAT     H249482   9.295   3.297   0.087
16414WAT      O49483   5.194   2.750   1.693
16414WAT     H149484   5.220   2.835   1.648
16414WAT     H249485   5.096   2.734   1.680
16415WAT      O49486   3.028   5.095   5.198
16415WAT     H149487   3.083   5.176   5.178
16415WAT     H249488   2.945   5.095   5.141
16416WAT      O49489   7.878   6.148   3.734
16416WAT     H149490   7.833   6.069   3.775
16416WAT     H249491   7.881   6.136   3.634
16417WAT      O49492   0.800   0.434   1.563
16417WAT     H149493   0.896   0.429   1.592
16417WAT     H249494   0.779   0.355   1.505
16418WAT      O49495   5.132   3.312   7.707
16418WAT     H149496   5.146   3.273   7.615
16418WAT     H249497   5.048   3.274   7.746
16419WAT      O49498   5.992   0.749   6.875
16419WAT     H149499   6.082   0.771   6.914
16419WAT     H249500   5.964   0.821   6.812
16420WAT      O49501   7.671   3.306   2.476
16420WAT     H149502   7.653   3.342   2.568
16420WAT     H249503   7.592   3.252   2.446
16421WAT      O49504   7.220   3.414   0.989
16421WAT     H149505   7.287   3.371   1.049
16421WAT     H249506   7.196   3.350   0.916
16422WAT      O49507   0.363   8.462   3.673
16422WAT     H149508   0.370   8.551   3.629
16422WAT     H249509   0.421   8.459   3.754
16423WAT      O49510   7.981   8.467   7.362
16423WAT     H149511   7.888   8.435   7.347
16423WAT     H249512   8.016   8.510   7.278
16424WAT      O49513   0.654   4.079   2.733
16424WAT     H149514   0.605   4.114   2.812
16424WAT     H249515   0.752   4.087   2.749
16425WAT      O49516   9.139   8.049   9.648
16425WAT     H149517   9.055   8.076   9.694
16425WAT     H249518   9.144   8.093   9.558
16426WAT      O49519   2.317   0.655   6.803
16426WAT     H149520   2.400   0.601   6.816
16426WAT     H249521   2.263   0.617   6.728
16427WAT      O49522   9.337   9.289   4.665
16427WAT     H149523   9.357   9.350   4.742
16427WAT     H249524   9.388   9.204   4.676
16428WAT      O49525   7.680   0.465   1.875
16428WAT     H149526   7.774   0.483   1.848
16428WAT     H249527   7.635   0.412   1.803
16429WAT      O49528   7.812   6.035   1.429
16429WAT     H149529   7.743   6.085   1.481
16429WAT     H249530   7.886   6.008   1.490
16430WAT      O49531   8.952   6.268   9.526
16430WAT     H149532   9.011   6.324   9.584
16430WAT     H249533   8.917   6.323   9.450
16431WAT      O49534   7.208   2.851   2.022
16431WAT     H149535   7.200   2.906   2.106
16431WAT     H249536   7.245   2.761   2.045
16432WAT      O49537   3.921   1.208   4.357
16432WAT     H149538   3.909   1.275   4.283
16432WAT     H249539   3.838   1.153   4.366
16433WAT      O49540   3.354   3.871   6.414
16433WAT     H149541   3.267   3.823   6.412
16433WAT     H249542   3.405   3.846   6.497
16434WAT      O49543   1.892   7.580   7.580
16434WAT     H149544   1.955   7.550   7.509
16434WAT     H249545   1.850   7.499   7.623
16435WAT      O49546   5.919   3.293   9.871
16435WAT     H149547   5.979   3.334   9.803
16435WAT     H249548   5.832   3.270   9.829
16436WAT      O49549   5.276   4.262   1.105
16436WAT     H149550   5.249   4.350   1.144
16436WAT     H249551   5.204   4.229   1.043
16437WAT      O49552   6.000   5.248   1.117
16437WAT     H149553   5.938   5.275   1.190
16437WAT     H249554   6.073   5.316   1.108
16438WAT      O49555   6.338   7.343   6.354
16438WAT     H149556   6.408   7.388   6.299
16438WAT     H249557   6.382   7.298   6.433
16439WAT      O49558   1.645   1.679   6.456
16439WAT     H149559   1.699   1.746   6.507
16439WAT     H249560   1.561   1.660   6.506
16440WAT      O49561   8.957   4.694   0.131
16440WAT     H149562   8.904   4.753   0.070
16440WAT     H249563   9.041   4.740   0.157
16441WAT      O49564   0.699   0.090   6.644
16441WAT     H149565   0.647   0.173   6.625
16441WAT     H249566   0.693   0.029   6.566
16442WAT      O49567   1.547   0.473   2.067
16442WAT     H149568   1.621   0.540   2.062
16442WAT     H249569   1.462   0.520   2.090
16443WAT      O49570   6.117   9.746   5.488
16443WAT     H149571   6.112   9.810   5.411
16443WAT     H249572   6.065   9.782   5.565
16444WAT      O49573   8.445   3.966   9.526
16444WAT     H149574   8.493   3.985   9.612
16444WAT     H249575   8.376   4.037   9.510
16445WAT      O49576   1.803   9.264   2.723
16445WAT     H149577   1.825   9.175   2.683
16445WAT     H249578   1.888   9.310   2.752
16446WAT      O49579   0.120   7.807   3.816
16446WAT     H149580   0.131   7.887   3.757
16446WAT     H249581   0.207   7.787   3.860
16447WAT      O49582   5.922   4.232   8.014
16447WAT     H149583   6.009   4.267   7.978
16447WAT     H249584   5.896   4.150   7.963
16448WAT      O49585   2.552   9.773   2.209
16448WAT     H149586   2.573   9.871   2.211
16448WAT     H249587   2.499   9.749   2.291
16449WAT      O49588   5.510   9.053   7.005
16449WAT     H149589   5.413   9.052   7.032
16449WAT     H249590   5.566   9.065   7.087
16450WAT      O49591   9.115   4.173   0.300
16450WAT     H149592   9.037   4.230   0.326
16450WAT     H249593   9.190   4.186   0.365
16451WAT      O49594   3.159   4.107   8.890
16451WAT     H149595   3.180   4.199   8.924
16451WAT     H249596   3.085   4.068   8.944
16452WAT      O49597   5.963   7.213   6.433
16452WAT     H149598   5.891   7.160   6.387
16452WAT     H249599   5.922   7.268   6.505
16453WAT      O49600   9.261   6.329   1.706
16453WAT     H149601   9.225   6.303   1.617
16453WAT     H249602   9.325   6.259   1.738
16454WAT      O49603   5.411   1.529   8.502
16454WAT     H149604   5.495   1.563   8.460
16454WAT     H249605   5.432   1.453   8.564
16455WAT      O49606   7.123   7.661   4.377
16455WAT     H149607   7.172   7.608   4.307
16455WAT     H249608   7.140   7.622   4.467
16456WAT      O49609   6.620   5.169   8.427
16456WAT     H149610   6.589   5.262   8.444
16456WAT     H249611   6.717   5.161   8.449
16457WAT      O49612   5.785   7.150   2.369
16457WAT     H149613   5.872   7.124   2.327
16457WAT     H249614   5.780   7.113   2.462
16458WAT      O49615   9.694   4.854   9.145
16458WAT     H149616   9.611   4.816   9.188
16458WAT     H249617   9.774   4.806   9.181
16459WAT      O49618   1.826   4.328   5.671
16459WAT     H149619   1.735   4.370   5.676
16459WAT     H249620   1.840   4.289   5.580
16460WAT      O49621   7.890   4.366   6.193
16460WAT     H149622   7.825   4.299   6.156
16460WAT     H249623   7.876   4.375   6.292
16461WAT      O49624   1.349   9.822   7.991
16461WAT     H149625   1.291   9.752   8.032
16461WAT     H249626   1.445   9.800   8.010
16462WAT      O49627   0.644   0.703   6.939
16462WAT     H149628   0.691   0.690   7.027
16462WAT     H249629   0.627   0.614   6.897
16463WAT      O49630   6.633   5.363   4.825
16463WAT     H149631   6.564   5.430   4.851
16463WAT     H249632   6.722   5.406   4.821
16464WAT      O49633   0.235   8.034   1.858
16464WAT     H149634   0.243   7.956   1.919
16464WAT     H249635   0.177   8.104   1.900
16465WAT      O49636   2.143   2.946   5.528
16465WAT     H149637   2.155   2.847   5.536
16465WAT     H249638   2.097   2.967   5.442
16466WAT      O49639   5.941   9.290   4.305
16466WAT     H149640   5.930   9.389   4.306
16466WAT     H249641   5.851   9.247   4.294
16467WAT      O49642   9.459   8.368   8.213
16467WAT     H149643   9.536   8.420   8.249
16467WAT     H249644   9.492   8.290   8.160
16468WAT      O49645   7.478   0.031   5.466
16468WAT     H149646   7.385   0.028   5.429
16468WAT     H249647   7.530  -0.047   5.431
16469WAT      O49648   4.611   6.932   8.099
16469WAT     H149649   4.558   6.921   8.183
16469WAT     H249650   4.569   7.003   8.042
16470WAT      O49651   2.737   3.271   9.485
16470WAT     H149652   2.750   3.364   9.454
16470WAT     H249653   2.826   3.228   9.501
16471WAT      O49654   0.427   3.963   1.071
16471WAT     H149655   0.454   4.055   1.042
16471WAT     H249656   0.505   3.916   1.111
16472WAT      O49657   8.323   8.958   5.543
16472WAT     H149658   8.413   8.959   5.499
16472WAT     H249659   8.252   8.942   5.473
16473WAT      O49660   2.880   1.700   5.031
16473WAT     H149661   2.788   1.736   5.013
16473WAT     H249662   2.946   1.746   4.972
16474WAT      O49663   5.715   1.699   2.673
16474WAT     H149664   5.625   1.733   2.700
16474WAT     H249665   5.705   1.624   2.608
16475WAT      O49666   6.805   1.568   5.933
16475WAT     H149667   6.834   1.597   6.025
16475WAT     H249668   6.707   1.546   5.935
16476WAT      O49669   8.139   9.407   6.642
16476WAT     H149670   8.098   9.498   6.642
16476WAT     H249671   8.071   9.340   6.614
16477WAT      O49672   1.712   9.525   8.120
16477WAT     H149673   1.811   9.535   8.111
16477WAT     H249674   1.670   9.615   8.120
16478WAT      O49675   8.754   4.081   2.121
16478WAT     H149676   8.673   4.134   2.147
16478WAT     H249677   8.730   3.984   2.120
16479WAT      O49678   6.712   3.716   2.047
16479WAT     H149679   6.640   3.727   1.979
16479WAT     H249680   6.796   3.759   2.013
16480WAT      O49681   5.010   0.212   6.599
16480WAT     H149682   5.071   0.289   6.618
16480WAT     H249683   4.929   0.219   6.657
16481WAT      O49684   3.249   7.482   6.134
16481WAT     H149685   3.312   7.407   6.116
16481WAT     H249686   3.236   7.492   6.233
16482WAT      O49687   4.167   4.280   8.233
16482WAT     H149688   4.208   4.276   8.142
16482WAT     H249689   4.100   4.206   8.242
16483WAT      O49690   4.223   0.688   0.375
16483WAT     H149691   4.206   0.768   0.433
16483WAT     H249692   4.211   0.714   0.279
16484WAT      O49693   6.515   2.537   1.640
16484WAT     H149694   6.574   2.576   1.569
16484WAT     H249695   6.528   2.438   1.643
16485WAT      O49696   9.771   1.805   1.977
16485WAT     H149697   9.863   1.797   1.940
16485WAT     H249698   9.757   1.734   2.047
16486WAT      O49699   5.890   9.454   8.480
16486WAT     H149700   5.804   9.413   8.510
16486WAT     H249701   5.891   9.551   8.505
16487WAT      O49702   9.743   2.973   8.231
16487WAT     H149703   9.811   3.042   8.256
16487WAT     H249704   9.670   2.972   8.299
16488WAT      O49705   4.940   5.517   4.471
16488WAT     H149706   5.018   5.571   4.500
16488WAT     H249707   4.947   5.424   4.508
16489WAT      O49708   3.546   5.619   1.690
16489WAT     H149709   3.494   5.534   1.697
16489WAT     H249710   3.594   5.623   1.603
16490WAT      O49711   3.698   7.617   8.465
16490WAT     H149712   3.757   7.638   8.542
16490WAT     H249713   3.603   7.613   8.496
16491WAT      O49714   2.896   0.050   3.219
16491WAT     H149715   2.876   0.061   3.122
16491WAT     H249716   2.831   0.104   3.273
16492WAT      O49717   8.615   5.786   1.868
16492WAT     H149718   8.520   5.811   1.849
16492WAT     H249719   8.672   5.867   1.863
16493WAT      O49720   3.836   0.745   2.847
16493WAT     H149721   3.749   0.708   2.879
16493WAT     H249722   3.819   0.815   2.778
16494WAT      O49723   8.131   0.444   9.496
16494WAT     H149724   8.081   0.358   9.510
16494WAT     H249725   8.111   0.507   9.571
16495WAT      O49726   2.519   5.425   8.563
16495WAT     H149727   2.534   5.335   8.521
16495WAT     H249728   2.516   5.415   8.663
16496WAT      O49729   2.366   2.680   6.374
16496WAT     H149730   2.338   2.584   6.361
16496WAT     H249731   2.387   2.721   6.286
16497WAT      O49732   1.125   7.220   3.266
16497WAT     H149733   1.166   7.133   3.236
16497WAT     H249734   1.174   7.296   3.223
16498WAT      O49735   8.693   6.412   2.091
16498WAT     H149736   8.700   6.359   2.175
16498WAT     H249737   8.733   6.503   2.105
16499WAT      O49738   3.589   6.797   6.424
16499WAT     H149739   3.668   6.737   6.412
16499WAT     H249740   3.619   6.893   6.416
16500WAT      O49741   8.797   7.936   1.699
16500WAT     H149742   8.709   7.967   1.665
16500WAT     H249743   8.867   7.950   1.628
16501WAT      O49744   4.383   0.287   6.731
16501WAT     H149745   4.329   0.301   6.814
16501WAT     H249746   4.480   0.283   6.754
16502WAT      O49747   6.599   7.229   1.686
16502WAT     H149748   6.583   7.292   1.762
16502WAT     H249749   6.690   7.244   1.648
16503WAT      O49750   5.714   8.408   2.560
16503WAT     H149751   5.726   8.498   2.518
16503WAT     H249752   5.655   8.352   2.502
16504WAT      O49753   5.328   5.976   8.255
16504WAT     H149754   5.259   5.980   8.183
16504WAT     H249755   5.383   6.060   8.254
16505WAT      O49756   3.496   6.062   3.840
16505WAT     H149757   3.455   5.970   3.838
16505WAT     H249758   3.424   6.131   3.830
16506WAT      O49759   3.221   6.391   4.043
16506WAT     H149760   3.246   6.475   4.091
16506WAT     H249761   3.171   6.331   4.106
16507WAT      O49762   2.320   1.953   9.863
16507WAT     H149763   2.371   1.902   9.933
16507WAT     H249764   2.364   2.041   9.849
16508WAT      O49765   9.431   3.541   2.099
16508WAT     H149766   9.437   3.525   2.197
16508WAT     H249767   9.376   3.623   2.081
16509WAT      O49768   6.434   5.049   2.561
16509WAT     H149769   6.382   5.102   2.495
16509WAT     H249770   6.379   4.972   2.593
16510WAT      O49771   0.175   0.218   0.171
16510WAT     H149772   0.109   0.293   0.181
16510WAT     H249773   0.265   0.257   0.151
16511WAT      O49774   4.428   7.488   6.402
16511WAT     H149775   4.450   7.509   6.498
16511WAT     H249776   4.378   7.402   6.398
16512WAT      O49777   1.366   6.654   9.858
16512WAT     H149778   1.415   6.616   9.780
16512WAT     H249779   1.268   6.658   9.837
16513WAT      O49780   5.815   0.662   4.728
16513WAT     H149781   5.764   0.630   4.648
16513WAT     H249782   5.755   0.660   4.808
16514WAT      O49783   5.601   1.343   5.756
16514WAT     H149784   5.667   1.415   5.736
16514WAT     H249785   5.579   1.294   5.671
16515WAT      O49786   7.768   1.310   6.817
16515WAT     H149787   7.714   1.233   6.850
16515WAT     H249788   7.860   1.305   6.856
16516WAT      O49789   8.134   9.020   7.401
16516WAT     H149790   8.127   8.929   7.362
16516WAT     H249791   8.134   9.014   7.501
16517WAT      O49792   7.840   8.653   9.405
16517WAT     H149793   7.845   8.717   9.328
16517WAT     H249794   7.783   8.693   9.477
16518WAT      O49795   8.567   2.147   5.751
16518WAT     H149796   8.599   2.052   5.744
16518WAT     H249797   8.565   2.175   5.847
16519WAT      O49798   4.724   4.035   9.836
16519WAT     H149799   4.801   4.063   9.894
16519WAT     H249800   4.760   3.986   9.756
16520WAT      O49801   9.590   6.519   4.682
16520WAT     H149802   9.539   6.604   4.690
16520WAT     H249803   9.685   6.533   4.710
16521WAT      O49804   9.000   1.904   0.587
16521WAT     H149805   8.940   1.871   0.514
16521WAT     H249806   8.972   1.996   0.615
16522WAT      O49807   6.586   0.807   6.024
16522WAT     H149808   6.497   0.837   5.991
16522WAT     H249809   6.576   0.729   6.085
16523WAT      O49810   8.648   4.749   7.494
16523WAT     H149811   8.654   4.775   7.397
16523WAT     H249812   8.617   4.828   7.547
16524WAT      O49813   8.967   9.323   4.209
16524WAT     H149814   8.908   9.303   4.287
16524WAT     H249815   8.932   9.276   4.128
16525WAT      O49816   7.300   7.222   5.483
16525WAT     H149817   7.214   7.190   5.442
16525WAT     H249818   7.298   7.205   5.582
16526WAT      O49819   5.888   6.795   2.902
16526WAT     H149820   5.926   6.883   2.873
16526WAT     H249821   5.816   6.768   2.838
16527WAT      O49822   5.768   7.576   5.108
16527WAT     H149823   5.763   7.673   5.085
16527WAT     H249824   5.785   7.523   5.025
16528WAT      O49825   8.226   4.572   7.030
16528WAT     H149826   8.148   4.572   7.092
16528WAT     H249827   8.217   4.647   6.965
16529WAT      O49828   5.133   4.696   8.841
16529WAT     H149829   5.141   4.641   8.757
16529WAT     H249830   5.044   4.741   8.843
16530WAT      O49831   4.880   5.840   7.553
16530WAT     H149832   4.921   5.923   7.591
16530WAT     H249833   4.835   5.788   7.626
16531WAT      O49834   7.009   5.525   2.064
16531WAT     H149835   6.990   5.447   2.124
16531WAT     H249836   7.108   5.536   2.053
16532WAT      O49837   9.374   9.379   4.302
16532WAT     H149838   9.313   9.373   4.223
16532WAT     H249839   9.371   9.471   4.340
16533WAT      O49840   1.405   8.791   7.825
16533WAT     H149841   1.459   8.846   7.760
16533WAT     H249842   1.466   8.753   7.894
16534WAT      O49843   2.625   0.088   4.887
16534WAT     H149844   2.719   0.117   4.870
16534WAT     H249845   2.561   0.157   4.851
16535WAT      O49846   4.755   0.446   0.334
16535WAT     H149847   4.694   0.525   0.336
16535WAT     H249848   4.826   0.457   0.403
16536WAT      O49849   5.893   1.204   8.173
16536WAT     H149850   5.959   1.156   8.232
16536WAT     H249851   5.830   1.137   8.134
16537WAT      O49852   4.502   3.930   1.300
16537WAT     H149853   4.522   3.883   1.214
16537WAT     H249854   4.524   3.869   1.377
16538WAT      O49855   1.642   1.157   8.234
16538WAT     H149856   1.622   1.236   8.291
16538WAT     H249857   1.643   1.185   8.138
16539WAT      O49858   3.481   1.696   9.800
16539WAT     H149859   3.389   1.689   9.840
16539WAT     H249860   3.528   1.776   9.838
16540WAT      O49861   5.270   6.234   8.885
16540WAT     H149862   5.258   6.141   8.849
16540WAT     H249863   5.280   6.230   8.985
16541WAT      O49864   6.882   1.113   3.889
16541WAT     H149865   6.849   1.128   3.796
16541WAT     H249866   6.968   1.062   3.887
16542WAT      O49867   2.952   3.114   7.497
16542WAT     H149868   2.968   3.025   7.454
16542WAT     H249869   2.893   3.103   7.577
16543WAT      O49870   7.083   7.409   0.567
16543WAT     H149871   6.984   7.423   0.564
16543WAT     H249872   7.105   7.337   0.632
16544WAT      O49873   8.532   4.981   2.830
16544WAT     H149874   8.608   5.044   2.847
16544WAT     H249875   8.503   4.939   2.916
16545WAT      O49876   6.529   5.469   0.553
16545WAT     H149877   6.511   5.541   0.486
16545WAT     H249878   6.448   5.457   0.611
16546WAT      O49879   9.688   0.541   8.409
16546WAT     H149880   9.736   0.541   8.497
16546WAT     H249881   9.742   0.491   8.342
16547WAT      O49882   4.809   7.484   6.629
16547WAT     H149883   4.828   7.582   6.630
16547WAT     H249884   4.896   7.434   6.622
16548WAT      O49885   9.076   3.517   0.856
16548WAT     H149886   9.008   3.445   0.843
16548WAT     H249887   9.031   3.606   0.852
16549WAT      O49888   0.229   3.187   4.683
16549WAT     H149889   0.303   3.254   4.684
16549WAT     H249890   0.219   3.148   4.775
16550WAT      O49891   3.311   3.277   1.704
16550WAT     H149892   3.240   3.250   1.769
16550WAT     H249893   3.390   3.217   1.716
16551WAT      O49894   6.083   2.567   6.958
16551WAT     H149895   6.017   2.534   7.026
16551WAT     H249896   6.108   2.492   6.897
16552WAT      O49897   4.603   2.925   8.222
16552WAT     H149898   4.684   2.890   8.268
16552WAT     H249899   4.601   2.891   8.128
16553WAT      O49900   2.914   7.188   1.911
16553WAT     H149901   3.013   7.194   1.922
16553WAT     H249902   2.891   7.190   1.813
16554WAT      O49903   2.097   9.508   7.857
16554WAT     H149904   2.102   9.452   7.773
16554WAT     H249905   2.058   9.453   7.931
16555WAT      O49906   3.836   2.614   5.968
16555WAT     H149907   3.863   2.698   5.921
16555WAT     H249908   3.749   2.581   5.931
16556WAT      O49909   0.005   4.784   9.497
16556WAT     H149910   0.043   4.723   9.567
16556WAT     H249911   0.010   4.739   9.408
16557WAT      O49912   1.069   5.040   5.006
16557WAT     H149913   1.019   5.037   4.919
16557WAT     H249914   1.048   4.957   5.059
16558WAT      O49915   2.334   9.104   4.666
16558WAT     H149916   2.275   9.031   4.702
16558WAT     H249917   2.374   9.074   4.579
16559WAT      O49918   8.136   4.806   1.120
16559WAT     H149919   8.182   4.888   1.153
16559WAT     H249920   8.056   4.786   1.177
16560WAT      O49921   8.321   0.347   3.608
16560WAT     H149922   8.272   0.426   3.644
16560WAT     H249923   8.346   0.363   3.512
16561WAT      O49924   1.820   7.230   0.678
16561WAT     H149925   1.881   7.261   0.751
16561WAT     H249926   1.804   7.304   0.613
16562WAT      O49927   8.591   9.609   1.321
16562WAT     H149928   8.629   9.675   1.386
16562WAT     H249929   8.511   9.649   1.276
16563WAT      O49930   3.333   5.736   3.228
16563WAT     H149931   3.310   5.691   3.142
16563WAT     H249932   3.286   5.690   3.304
16564WAT      O49933   6.119   4.236   5.739
16564WAT     H149934   6.038   4.179   5.755
16564WAT     H249935   6.119   4.313   5.802
16565WAT      O49936   2.407   9.809   2.741
16565WAT     H149937   2.431   9.715   2.765
16565WAT     H249938   2.487   9.856   2.705
16566WAT      O49939   5.524   1.886   0.681
16566WAT     H149940   5.613   1.918   0.650
16566WAT     H249941   5.492   1.812   0.621
16567WAT      O49942   2.264   9.371   4.347
16567WAT     H149943   2.353   9.417   4.351
16567WAT     H249944   2.218   9.395   4.262
16568WAT      O49945   1.660   5.539   4.788
16568WAT     H149946   1.575   5.495   4.759
16568WAT     H249947   1.644   5.589   4.873
16569WAT      O49948   4.806   0.808   3.591
16569WAT     H149949   4.804   0.856   3.679
16569WAT     H249950   4.895   0.822   3.548
16570WAT      O49951   4.905   7.087   6.711
16570WAT     H149952   4.819   7.117   6.669
16570WAT     H249953   4.939   7.159   6.772
16571WAT      O49954   0.087   9.632   9.859
16571WAT     H149955   0.051   9.538   9.857
16571WAT     H249956   0.065   9.677   9.772
16572WAT      O49957   7.476   8.677   6.515
16572WAT     H149958   7.426   8.760   6.542
16572WAT     H249959   7.457   8.604   6.581
16573WAT      O49960   1.554   1.982   3.374
16573WAT     H149961   1.636   1.929   3.354
16573WAT     H249962   1.492   1.928   3.430
16574WAT      O49963   1.281   2.268   4.577
16574WAT     H149964   1.291   2.356   4.623
16574WAT     H249965   1.228   2.206   4.636
16575WAT      O49966   8.194   4.839   3.639
16575WAT     H149967   8.290   4.810   3.639
16575WAT     H249968   8.165   4.856   3.545
16576WAT      O49969   7.062   1.593   4.658
16576WAT     H149970   7.038   1.571   4.563
16576WAT     H249971   7.044   1.690   4.675
16577WAT      O49972   1.314   6.079   1.338
16577WAT     H149973   1.317   6.157   1.400
16577WAT     H249974   1.280   5.999   1.386
16578WAT      O49975   4.861   1.867   0.431
16578WAT     H149976   4.788   1.861   0.500
16578WAT     H249977   4.824   1.842   0.342
16579WAT      O49978   7.985   4.893   9.676
16579WAT     H149979   7.893   4.901   9.715
16579WAT     H249980   7.987   4.934   9.585
16580WAT      O49981   8.745   9.200   4.736
16580WAT     H149982   8.677   9.129   4.751
16580WAT     H249983   8.831   9.174   4.781
16581WAT      O49984   4.297   0.632   6.530
16581WAT     H149985   4.235   0.559   6.558
16581WAT     H249986   4.338   0.674   6.611
16582WAT      O49987   4.053   2.108   3.500
16582WAT     H149988   4.101   2.131   3.585
16582WAT     H249989   3.985   2.178   3.480
16583WAT      O49990   6.511   5.347   9.152
16583WAT     H149991   6.458   5.264   9.170
16583WAT     H249992   6.516   5.402   9.235
16584WAT      O49993   4.872   6.359   9.577
16584WAT     H149994   4.833   6.270   9.554
16584WAT     H249995   4.853   6.380   9.673
16585WAT      O49996   2.729   6.371   1.170
16585WAT     H149997   2.656   6.302   1.174
16585WAT     H249998   2.769   6.381   1.261
16586WAT      O49999   7.966   6.646   1.281
16586WAT     H150000   7.916   6.606   1.205
16586WAT     H250001   7.946   6.744   1.288
16587WAT      O50002   9.601   6.401   3.311
16587WAT     H150003   9.577   6.442   3.399
16587WAT     H250004   9.697   6.371   3.314
16588WAT      O50005   4.294   3.792   5.069
16588WAT     H150006   4.393   3.783   5.061
16588WAT     H250007   4.250   3.711   5.028
16589WAT      O50008   4.401   3.310   8.666
16589WAT     H150009   4.486   3.281   8.622
16589WAT     H250010   4.420   3.342   8.759
16590WAT      O50011   7.307   3.301   9.116
16590WAT     H150012   7.247   3.334   9.190
16590WAT     H250013   7.320   3.203   9.126
16591WAT      O50014   3.932   3.548   2.017
16591WAT     H150015   3.847   3.500   1.997
16591WAT     H250016   4.000   3.484   2.050
16592WAT      O50017   1.486   9.641   5.600
16592WAT     H150018   1.413   9.667   5.537
16592WAT     H250019   1.464   9.552   5.640
16593WAT      O50020   3.267   1.197   6.960
16593WAT     H150021   3.179   1.211   6.916
16593WAT     H250022   3.303   1.285   6.993
16594WAT      O50023   5.676   5.958   2.973
16594WAT     H150024   5.723   5.936   3.059
16594WAT     H250025   5.743   5.978   2.902
16595WAT      O50026   3.208   7.800   5.934
16595WAT     H150027   3.252   7.798   6.024
16595WAT     H250028   3.127   7.742   5.935
16596WAT      O50029   9.546   8.176   6.674
16596WAT     H150030   9.634   8.209   6.637
16596WAT     H250031   9.540   8.077   6.661
16597WAT      O50032   7.191   8.617   2.409
16597WAT     H150033   7.253   8.691   2.432
16597WAT     H250034   7.104   8.630   2.457
16598WAT      O50035   1.013   4.186   7.898
16598WAT     H150036   1.004   4.133   7.983
16598WAT     H250037   0.980   4.131   7.821
16599WAT      O50038   8.971   7.465   3.664
16599WAT     H150039   9.049   7.458   3.727
16599WAT     H250040   8.929   7.376   3.652
16600WAT      O50041   8.331   5.755   4.962
16600WAT     H150042   8.240   5.725   4.993
16600WAT     H250043   8.321   5.806   4.876
16601WAT      O50044   6.980   6.502   8.647
16601WAT     H150045   6.961   6.415   8.691
16601WAT     H250046   7.055   6.548   8.695
16602WAT      O50047   8.839   7.782   1.911
16602WAT     H150048   8.787   7.710   1.958
16602WAT     H250049   8.781   7.823   1.841
16603WAT      O50050   7.322   6.084   6.448
16603WAT     H150051   7.296   6.158   6.387
16603WAT     H250052   7.294   5.996   6.408
16604WAT      O50053   7.213   3.141   1.611
16604WAT     H150054   7.176   3.231   1.635
16604WAT     H250055   7.181   3.073   1.677
16605WAT      O50056   2.687   7.558   6.309
16605WAT     H150057   2.605   7.558   6.252
16605WAT     H250058   2.667   7.518   6.398
16606WAT      O50059   0.241   5.654   5.495
16606WAT     H150060   0.248   5.593   5.416
16606WAT     H250061   0.279   5.609   5.575
16607WAT      O50062   2.120   0.795   7.606
16607WAT     H150063   2.097   0.710   7.558
16607WAT     H250064   2.201   0.836   7.563
16608WAT      O50065   6.505   5.041   0.539
16608WAT     H150066   6.554   5.119   0.501
16608WAT     H250067   6.442   5.072   0.610
16609WAT      O50068   2.034   3.710   8.920
16609WAT     H150069   2.079   3.677   8.837
16609WAT     H250070   1.936   3.719   8.904
16610WAT      O50071   8.320   5.014   5.494
16610WAT     H150072   8.329   5.048   5.587
16610WAT     H250073   8.248   4.944   5.491
16611WAT      O50074   4.235   3.610   6.212
16611WAT     H150075   4.331   3.597   6.186
16611WAT     H250076   4.189   3.667   6.145
16612WAT      O50077   8.109   7.853   2.367
16612WAT     H150078   8.209   7.845   2.369
16612WAT     H250079   8.070   7.788   2.432
16613WAT      O50080   4.642   3.532   9.860
16613WAT     H150081   4.675   3.442   9.833
16613WAT     H250082   4.581   3.568   9.790
16614WAT      O50083   1.815   2.120   1.090
16614WAT     H150084   1.735   2.146   1.037
16614WAT     H250085   1.806   2.153   1.184
16615WAT      O50086   5.123   0.754   8.451
16615WAT     H150087   5.113   0.655   8.443
16615WAT     H250088   5.220   0.776   8.461
16616WAT      O50089   1.705   0.016   0.160
16616WAT     H150090   1.752   0.030   0.073
16616WAT     H250091   1.761   0.050   0.235
16617WAT      O50092   5.179   0.950   6.402
16617WAT     H150093   5.251   0.883   6.422
16617WAT     H250094   5.096   0.925   6.452
16618WAT      O50095   7.449   9.496   1.287
16618WAT     H150096   7.376   9.432   1.312
16618WAT     H250097   7.494   9.530   1.370
16619WAT      O50098   3.867   3.252   6.767
16619WAT     H150099   3.775   3.239   6.803
16619WAT     H250100   3.934   3.212   6.829
16620WAT      O50101   2.456   1.310   9.775
16620WAT     H150102   2.532   1.259   9.734
16620WAT     H250103   2.370   1.281   9.732
16621WAT      O50104   8.414   4.656   8.015
16621WAT     H150105   8.350   4.725   7.983
16621WAT     H250106   8.374   4.607   8.092
16622WAT      O50107   4.324   3.529   4.533
16622WAT     H150108   4.405   3.506   4.479
16622WAT     H250109   4.304   3.453   4.596
16623WAT      O50110   6.833   5.571   4.726
16623WAT     H150111   6.909   5.565   4.662
16623WAT     H250112   6.776   5.650   4.704
16624WAT      O50113   8.239   4.634   5.952
16624WAT     H150114   8.249   4.702   6.025
16624WAT     H250115   8.146   4.638   5.916
16625WAT      O50116   7.158   0.484   5.903
16625WAT     H150117   7.098   0.532   5.966
16625WAT     H250118   7.145   0.385   5.913
16626WAT      O50119   2.801   2.494   8.805
16626WAT     H150120   2.713   2.451   8.784
16626WAT     H250121   2.803   2.521   8.901
16627WAT      O50122   7.879   7.218   9.436
16627WAT     H150123   7.876   7.283   9.511
16627WAT     H250124   7.973   7.188   9.421
16628WAT      O50125   2.056   8.773   3.008
16628WAT     H150126   2.067   8.720   2.923
16628WAT     H250127   2.058   8.871   2.987
16629WAT      O50128   3.065   0.484   0.505
16629WAT     H150129   3.087   0.404   0.561
16629WAT     H250130   2.999   0.541   0.554
16630WAT      O50131   8.658   4.752   7.208
16630WAT     H150132   8.743   4.758   7.155
16630WAT     H250133   8.589   4.704   7.153
16631WAT      O50134   5.602   7.042   7.919
16631WAT     H150135   5.510   7.083   7.924
16631WAT     H250136   5.609   6.988   7.835
16632WAT      O50137   1.735   0.948   5.214
16632WAT     H150138   1.688   0.882   5.272
16632WAT     H250139   1.834   0.935   5.222
16633WAT      O50140   8.337   4.116   4.898
16633WAT     H150141   8.298   4.205   4.919
16633WAT     H250142   8.435   4.117   4.914
16634WAT      O50143   1.122   9.756   5.839
16634WAT     H150144   1.077   9.750   5.928
16634WAT     H250145   1.053   9.772   5.768
16635WAT      O50146   3.639   4.173   0.958
16635WAT     H150147   3.561   4.206   1.011
16635WAT     H250148   3.685   4.251   0.915
16636WAT      O50149   9.215   5.898   4.927
16636WAT     H150150   9.188   5.964   4.998
16636WAT     H250151   9.161   5.815   4.938
16637WAT      O50152   4.710   2.860   4.681
16637WAT     H150153   4.749   2.938   4.729
16637WAT     H250154   4.776   2.785   4.678
16638WAT      O50155   2.121   1.829   0.306
16638WAT     H150156   2.176   1.909   0.333
16638WAT     H250157   2.149   1.750   0.360
16639WAT      O50158   7.885   3.405   7.265
16639WAT     H150159   7.820   3.378   7.194
16639WAT     H250160   7.968   3.350   7.255
16640WAT      O50161   0.083   4.995   7.290
16640WAT     H150162   0.154   4.951   7.235
16640WAT     H250163   0.045   4.930   7.355
16641WAT      O50164   4.212   6.342   8.822
16641WAT     H150165   4.161   6.256   8.823
16641WAT     H250166   4.149   6.419   8.836
16642WAT      O50167   2.526   1.515   2.347
16642WAT     H150168   2.538   1.438   2.410
16642WAT     H250169   2.434   1.513   2.308
16643WAT      O50170   8.316   5.343   9.307
16643WAT     H150171   8.262   5.341   9.391
16643WAT     H250172   8.342   5.437   9.286
16644WAT      O50173   7.382   3.612   9.708
16644WAT     H150174   7.473   3.643   9.682
16644WAT     H250175   7.380   3.593   9.807
16645WAT      O50176   2.028   0.166   8.935
16645WAT     H150177   1.934   0.197   8.954
16645WAT     H250178   2.035   0.136   8.840
16646WAT      O50179   6.997   6.685   7.145
16646WAT     H150180   6.956   6.727   7.226
16646WAT     H250181   6.935   6.694   7.067
16647WAT      O50182   3.435   0.418   5.055
16647WAT     H150183   3.467   0.330   5.090
16647WAT     H250184   3.508   0.486   5.065
16648WAT      O50185   6.040   3.523   8.764
16648WAT     H150186   6.004   3.484   8.849
16648WAT     H250187   6.138   3.503   8.758
16649WAT      O50188   4.842   2.022   6.874
16649WAT     H150189   4.936   1.987   6.871
16649WAT     H250190   4.798   2.004   6.786
16650WAT      O50191   6.622   3.309   9.865
16650WAT     H150192   6.593   3.397   9.829
16650WAT     H250193   6.589   3.299   9.959
16651WAT      O50194   6.587   5.654   8.346
16651WAT     H150195   6.524   5.623   8.418
16651WAT     H250196   6.681   5.635   8.374
16652WAT      O50197   5.361   2.013   3.834
16652WAT     H150198   5.369   1.957   3.752
16652WAT     H250199   5.450   2.019   3.880
16653WAT      O50200   0.369   2.014   7.862
16653WAT     H150201   0.292   2.073   7.839
16653WAT     H250202   0.335   1.929   7.903
16654WAT      O50203   2.194   1.764   3.120
16654WAT     H150204   2.231   1.840   3.066
16654WAT     H250205   2.265   1.695   3.133
16655WAT      O50206   8.394   1.550   3.135
16655WAT     H150207   8.307   1.598   3.125
16655WAT     H250208   8.466   1.600   3.087
16656WAT      O50209   0.868   5.093   4.356
16656WAT     H150210   0.966   5.070   4.354
16656WAT     H250211   0.842   5.133   4.268
16657WAT      O50212   5.593   2.331   0.115
16657WAT     H150213   5.635   2.243   0.094
16657WAT     H250214   5.574   2.380   0.030
16658WAT      O50215   4.358   8.113   8.022
16658WAT     H150216   4.451   8.151   8.017
16658WAT     H250217   4.359   8.031   8.079
16659WAT      O50218   0.522   5.372   2.055
16659WAT     H150219   0.456   5.446   2.041
16659WAT     H250220   0.553   5.338   1.966
16660WAT      O50221   7.199   8.721   7.241
16660WAT     H150222   7.150   8.794   7.192
16660WAT     H250223   7.164   8.715   7.335
16661WAT      O50224   5.413   8.774   1.952
16661WAT     H150225   5.477   8.718   2.004
16661WAT     H250226   5.463   8.834   1.890
16662WAT      O50227   3.322   2.106   6.750
16662WAT     H150228   3.417   2.087   6.726
16662WAT     H250229   3.267   2.114   6.666
16663WAT      O50230   8.099   0.363   6.442
16663WAT     H150231   8.065   0.310   6.520
16663WAT     H250232   8.031   0.360   6.369
16664WAT      O50233   5.453   7.172   8.468
16664WAT     H150234   5.399   7.124   8.537
16664WAT     H250235   5.420   7.266   8.459
16665WAT      O50236   2.517   7.938   2.731
16665WAT     H150237   2.592   7.892   2.779
16665WAT     H250238   2.543   7.953   2.635
16666WAT      O50239   7.022   7.457   6.616
16666WAT     H150240   7.089   7.519   6.659
16666WAT     H250241   7.067   7.404   6.544
16667WAT      O50242   6.720   6.196   8.438
16667WAT     H150243   6.712   6.181   8.340
16667WAT     H250244   6.692   6.113   8.487
16668WAT      O50245   1.984   2.721   5.201
16668WAT     H150246   2.019   2.641   5.153
16668WAT     H250247   1.894   2.700   5.240
16669WAT      O50248   8.375   7.346   9.720
16669WAT     H150249   8.417   7.329   9.631
16669WAT     H250250   8.438   7.319   9.792
16670WAT      O50251   3.591   6.522   8.103
16670WAT     H150252   3.687   6.546   8.087
16670WAT     H250253   3.559   6.461   8.031
16671WAT      O50254   2.688   2.202   0.816
16671WAT     H150255   2.749   2.245   0.749
16671WAT     H250256   2.721   2.221   0.909
16672WAT      O50257   3.850   7.474   2.159
16672WAT     H150258   3.812   7.559   2.123
16672WAT     H250259   3.880   7.488   2.253
16673WAT      O50260   6.976   8.876   9.465
16673WAT     H150261   6.898   8.928   9.429
16673WAT     H250262   6.994   8.798   9.404
16674WAT      O50263   1.997   7.071   2.128
16674WAT     H150264   2.036   7.038   2.214
16674WAT     H250265   2.038   7.021   2.051
16675WAT      O50266   6.745   5.389   3.615
16675WAT     H150267   6.684   5.322   3.656
16675WAT     H250268   6.733   5.478   3.660
16676WAT      O50269   3.666   2.510   7.056
16676WAT     H150270   3.611   2.474   7.132
16676WAT     H250271   3.762   2.492   7.073
16677WAT      O50272   8.058   3.716   4.556
16677WAT     H150273   8.039   3.782   4.483
16677WAT     H250274   8.128   3.753   4.617
16678WAT      O50275   6.442   4.456   0.609
16678WAT     H150276   6.358   4.404   0.594
16678WAT     H250277   6.450   4.480   0.706
16679WAT      O50278   5.637   0.554   7.500
16679WAT     H150279   5.652   0.457   7.517
16679WAT     H250280   5.713   0.607   7.537
16680WAT      O50281   3.582   5.193   5.352
16680WAT     H150282   3.506   5.163   5.410
16680WAT     H250283   3.629   5.270   5.394
16681WAT      O50284   5.062   1.510   8.956
16681WAT     H150285   5.138   1.540   8.898
16681WAT     H250286   5.029   1.422   8.924
16682WAT      O50287   2.406   5.990   7.801
16682WAT     H150288   2.409   5.995   7.901
16682WAT     H250289   2.450   6.071   7.763
16683WAT      O50290   4.500   8.081   1.928
16683WAT     H150291   4.424   8.023   1.957
16683WAT     H250292   4.569   8.083   2.000
16684WAT      O50293   3.950   7.286   4.406
16684WAT     H150294   4.034   7.330   4.439
16684WAT     H250295   3.871   7.338   4.438
16685WAT      O50296   3.368   0.970   6.206
16685WAT     H150297   3.328   1.059   6.185
16685WAT     H250298   3.454   0.959   6.155
16686WAT      O50299   6.309   5.343   0.234
16686WAT     H150300   6.226   5.292   0.210
16686WAT     H250301   6.288   5.406   0.310
16687WAT      O50302   1.129   1.847   0.241
16687WAT     H150303   1.168   1.788   0.312
16687WAT     H250304   1.203   1.892   0.191
16688WAT      O50305   5.081   9.328   2.966
16688WAT     H150306   5.179   9.340   2.950
16688WAT     H250307   5.068   9.260   3.038
16689WAT      O50308   8.101   6.394   1.758
16689WAT     H150309   8.048   6.318   1.797
16689WAT     H250310   8.045   6.444   1.693
16690WAT      O50311   3.373   0.690   2.351
16690WAT     H150312   3.321   0.710   2.434
16690WAT     H250313   3.370   0.769   2.290
16691WAT      O50314   9.298   6.230   9.401
16691WAT     H150315   9.299   6.161   9.472
16691WAT     H250316   9.391   6.265   9.386
16692WAT      O50317   7.243   0.543   2.791
16692WAT     H150318   7.159   0.595   2.776
16692WAT     H250319   7.240   0.500   2.881
16693WAT      O50320   5.043   7.608   2.797
16693WAT     H150321   5.051   7.532   2.732
16693WAT     H250322   5.093   7.586   2.880
16694WAT      O50323   3.892   7.367   2.634
16694WAT     H150324   3.834   7.448   2.644
16694WAT     H250325   3.878   7.327   2.543
16695WAT      O50326   8.707   2.103   5.463
16695WAT     H150327   8.619   2.121   5.506
16695WAT     H250328   8.700   2.120   5.364
16696WAT      O50329   8.653   2.556   5.207
16696WAT     H150330   8.748   2.523   5.208
16696WAT     H250331   8.653   2.656   5.209
16697WAT      O50332   4.266   9.231   0.842
16697WAT     H150333   4.171   9.201   0.842
16697WAT     H250334   4.323   9.158   0.805
16698WAT      O50335   4.492   5.092   8.392
16698WAT     H150336   4.430   5.042   8.453
16698WAT     H250337   4.584   5.091   8.432
16699WAT      O50338   4.929   7.283   0.802
16699WAT     H150339   4.979   7.370   0.803
16699WAT     H250340   4.855   7.287   0.870
16700WAT      O50341   4.779   2.587   3.104
16700WAT     H150342   4.725   2.670   3.089
16700WAT     H250343   4.874   2.612   3.123
16701WAT      O50344   0.096   6.581   5.184
16701WAT     H150345   0.184   6.598   5.140
16701WAT     H250346   0.098   6.616   5.277
16702WAT      O50347   3.442   9.193   1.856
16702WAT     H150348   3.402   9.126   1.794
16702WAT     H250349   3.422   9.167   1.951
16703WAT      O50350   0.988   8.026   4.198
16703WAT     H150351   0.899   8.024   4.244
16703WAT     H250352   1.047   8.093   4.243
16704WAT      O50353   0.967   1.914   6.817
16704WAT     H150354   1.011   1.917   6.907
16704WAT     H250355   0.980   1.823   6.777
16705WAT      O50356   3.266   6.155   0.387
16705WAT     H150357   3.200   6.098   0.339
16705WAT     H250358   3.228   6.247   0.399
16706WAT      O50359   2.805   8.985   1.168
16706WAT     H150360   2.859   9.041   1.231
16706WAT     H250361   2.737   9.042   1.123
16707WAT      O50362   9.126   8.796   9.236
16707WAT     H150363   9.163   8.703   9.239
16707WAT     H250364   9.032   8.795   9.269
16708WAT      O50365   6.610   7.048   0.201
16708WAT     H150366   6.524   7.003   0.223
16708WAT     H250367   6.665   6.990   0.142
16709WAT      O50368   0.178   3.261   7.484
16709WAT     H150369   0.084   3.232   7.497
16709WAT     H250370   0.190   3.355   7.517
16710WAT      O50371   1.540   8.459   9.856
16710WAT     H150372   1.460   8.510   9.887
16710WAT     H250373   1.521   8.420   9.765
16711WAT      O50374   7.301   9.283   8.704
16711WAT     H150375   7.326   9.188   8.686
16711WAT     H250376   7.354   9.317   8.782
16712WAT      O50377   5.957   8.783   1.114
16712WAT     H150378   6.022   8.859   1.108
16712WAT     H250379   5.915   8.783   1.205
16713WAT      O50380   7.269   6.598   7.229
16713WAT     H150381   7.220   6.608   7.143
16713WAT     H250382   7.204   6.603   7.305
16714WAT      O50383   4.041   9.541   2.550
16714WAT     H150384   4.138   9.557   2.532
16714WAT     H250385   4.010   9.464   2.493
16715WAT      O50386   0.861   9.563   4.125
16715WAT     H150387   0.773   9.562   4.077
16715WAT     H250388   0.934   9.538   4.063
16716WAT      O50389   3.584   6.814   4.658
16716WAT     H150390   3.660   6.879   4.653
16716WAT     H250391   3.606   6.742   4.724
16717WAT      O50392   1.053   4.437   5.864
16717WAT     H150393   1.127   4.372   5.852
16717WAT     H250394   1.020   4.433   5.958
16718WAT      O50395   1.019   5.128   3.491
16718WAT     H150396   0.980   5.157   3.579
16718WAT     H250397   0.946   5.112   3.426
16719WAT      O50398   3.107   3.071   6.481
16719WAT     H150399   3.144   3.164   6.473
16719WAT     H250400   3.009   3.076   6.497
16720WAT      O50401   8.970   9.488   6.525
16720WAT     H150402   8.874   9.460   6.532
16720WAT     H250403   9.020   9.419   6.474
16721WAT      O50404   7.936   4.183   5.542
16721WAT     H150405   8.006   4.216   5.604
16721WAT     H250406   7.846   4.209   5.576
16722WAT      O50407   8.594   0.341   9.227
16722WAT     H150408   8.616   0.403   9.303
16722WAT     H250409   8.576   0.394   9.145
16723WAT      O50410   9.850   5.249   5.157
16723WAT     H150411   9.769   5.307   5.147
16723WAT     H250412   9.885   5.255   5.250
16724WAT      O50413   5.320   0.747   4.733
16724WAT     H150414   5.271   0.742   4.820
16724WAT     H250415   5.396   0.811   4.741
16725WAT      O50416   2.834   9.430   3.872
16725WAT     H150417   2.853   9.442   3.969
16725WAT     H250418   2.900   9.367   3.832
16726WAT      O50419   0.060   4.525   2.578
16726WAT     H150420   0.025   4.432   2.586
16726WAT     H250421   0.025   4.566   2.493
16727WAT      O50422   7.956   6.926   1.277
16727WAT     H150423   7.952   6.954   1.181
16727WAT     H250424   8.033   6.972   1.321
16728WAT      O50425   3.895   2.729   0.572
16728WAT     H150426   3.799   2.756   0.574
16728WAT     H250427   3.914   2.681   0.487
16729WAT      O50428   8.261   1.231   4.913
16729WAT     H150429   8.259   1.253   5.010
16729WAT     H250430   8.341   1.175   4.893
16730WAT      O50431   9.109   0.528   7.317
16730WAT     H150432   9.042   0.490   7.381
16730WAT     H250433   9.189   0.559   7.368
16731WAT      O50434   9.159   5.079   0.415
16731WAT     H150435   9.126   5.005   0.356
16731WAT     H250436   9.237   5.124   0.371
16732WAT      O50437   1.971   1.716   0.126
16732WAT     H150438   2.024   1.672   0.054
16732WAT     H250439   2.034   1.755   0.194
16733WAT      O50440   7.829   6.147   4.571
16733WAT     H150441   7.878   6.061   4.552
16733WAT     H250442   7.832   6.206   4.491
16734WAT      O50443   6.327   8.302   4.802
16734WAT     H150444   6.366   8.266   4.717
16734WAT     H250445   6.401   8.332   4.862
16735WAT      O50446   9.779   3.891   8.612
16735WAT     H150447   9.822   3.866   8.698
16735WAT     H250448   9.747   3.808   8.565
16736WAT      O50449   3.438   3.402   0.925
16736WAT     H150450   3.451   3.313   0.969
16736WAT     H250451   3.525   3.432   0.886
16737WAT      O50452   5.678   3.568   3.984
16737WAT     H150453   5.771   3.537   4.004
16737WAT     H250454   5.612   3.508   4.029
16738WAT      O50455   1.480   9.047   3.943
16738WAT     H150456   1.424   9.086   3.871
16738WAT     H250457   1.464   8.948   3.948
16739WAT      O50458   1.094   5.565   0.592
16739WAT     H150459   1.037   5.583   0.512
16739WAT     H250460   1.066   5.624   0.667
16740WAT      O50461   7.141   9.591   6.795
16740WAT     H150462   7.181   9.667   6.743
16740WAT     H250463   7.056   9.622   6.839
16741WAT      O50464   3.458   3.871   2.817
16741WAT     H150465   3.529   3.938   2.795
16741WAT     H250466   3.378   3.886   2.759
16742WAT      O50467   4.715   1.223   3.326
16742WAT     H150468   4.712   1.263   3.417
16742WAT     H250469   4.804   1.180   3.311
16743WAT      O50470   4.255   4.600   6.994
16743WAT     H150471   4.207   4.523   7.035
16743WAT     H250472   4.194   4.646   6.929
16744WAT      O50473   8.126   1.605   1.868
16744WAT     H150474   8.183   1.536   1.823
16744WAT     H250475   8.053   1.560   1.919
16745WAT      O50476   5.647   6.270   3.861
16745WAT     H150477   5.724   6.303   3.805
16745WAT     H250478   5.683   6.225   3.943
16746WAT      O50479   3.746   1.942   1.645
16746WAT     H150480   3.799   1.872   1.597
16746WAT     H250481   3.770   1.941   1.742
16747WAT      O50482   2.489   3.079   4.299
16747WAT     H150483   2.544   3.159   4.321
16747WAT     H250484   2.547   2.998   4.299
16748WAT      O50485   7.402   3.524   4.794
16748WAT     H150486   7.364   3.606   4.838
16748WAT     H250487   7.363   3.442   4.836
16749WAT      O50488   4.416   5.483   5.931
16749WAT     H150489   4.324   5.517   5.949
16749WAT     H250490   4.414   5.420   5.854
16750WAT      O50491   5.472   9.668   0.366
16750WAT     H150492   5.455   9.571   0.387
16750WAT     H250493   5.408   9.699   0.296
16751WAT      O50494   5.720   4.819   4.434
16751WAT     H150495   5.705   4.836   4.337
16751WAT     H250496   5.801   4.870   4.464
16752WAT      O50497   8.574   3.713   3.425
16752WAT     H150498   8.521   3.775   3.483
16752WAT     H250499   8.656   3.759   3.393
16753WAT      O50500   5.786   1.138   4.731
16753WAT     H150501   5.859   1.075   4.703
16753WAT     H250502   5.758   1.117   4.824
16754WAT      O50503   0.183   0.931   7.266
16754WAT     H150504   0.209   0.994   7.339
16754WAT     H250505   0.206   0.971   7.177
16755WAT      O50506   2.576   1.873   6.463
16755WAT     H150507   2.496   1.910   6.416
16755WAT     H250508   2.641   1.839   6.395
16756WAT      O50509   7.641   2.433   9.625
16756WAT     H150510   7.723   2.379   9.607
16756WAT     H250511   7.649   2.522   9.581
16757WAT      O50512   4.148   6.064   8.762
16757WAT     H150513   4.225   6.100   8.709
16757WAT     H250514   4.132   5.968   8.737
16758WAT      O50515   5.653   2.726   1.969
16758WAT     H150516   5.747   2.742   2.000
16758WAT     H250517   5.633   2.628   1.973
16759WAT      O50518   7.635   8.534   1.221
16759WAT     H150519   7.628   8.437   1.196
16759WAT     H250520   7.580   8.551   1.303
16760WAT      O50521   7.601   1.098   3.078
16760WAT     H150522   7.546   1.015   3.082
16760WAT     H250523   7.551   1.173   3.122
16761WAT      O50524   2.233   0.879   8.832
16761WAT     H150525   2.152   0.883   8.891
16761WAT     H250526   2.244   0.787   8.796
16762WAT      O50527   5.394   6.063   0.470
16762WAT     H150528   5.479   6.068   0.416
16762WAT     H250529   5.323   6.019   0.416
16763WAT      O50530   2.110   6.198   5.192
16763WAT     H150531   2.032   6.254   5.220
16763WAT     H250532   2.138   6.140   5.269
16764WAT      O50533   1.488   3.494   2.560
16764WAT     H150534   1.431   3.547   2.623
16764WAT     H250535   1.565   3.550   2.529
16765WAT      O50536   3.398   7.920   2.113
16765WAT     H150537   3.341   7.994   2.078
16765WAT     H250538   3.405   7.848   2.044
16766WAT      O50539   4.461   7.087   5.872
16766WAT     H150540   4.396   7.159   5.850
16766WAT     H250541   4.489   7.040   5.788
16767WAT      O50542   8.403   5.622   9.317
16767WAT     H150543   8.305   5.634   9.332
16767WAT     H250544   8.448   5.711   9.317
16768WAT      O50545   7.961   1.905   9.628
16768WAT     H150546   7.904   1.873   9.553
16768WAT     H250547   7.906   1.909   9.712
16769WAT      O50548   6.370   5.349   3.075
16769WAT     H150549   6.284   5.297   3.075
16769WAT     H250550   6.441   5.295   3.120
16770WAT      O50551   3.544   1.261   8.753
16770WAT     H150552   3.593   1.314   8.823
16770WAT     H250553   3.507   1.324   8.685
16771WAT      O50554   3.211   0.843   2.524
16771WAT     H150555   3.132   0.790   2.556
16771WAT     H250556   3.183   0.907   2.453
16772WAT      O50557   2.816   5.347   4.268
16772WAT     H150558   2.757   5.302   4.202
16772WAT     H250559   2.806   5.446   4.261
16773WAT      O50560   3.286   9.426   3.689
16773WAT     H150561   3.243   9.480   3.762
16773WAT     H250562   3.329   9.345   3.729
16774WAT      O50563   4.252   3.292   7.967
16774WAT     H150564   4.300   3.205   7.952
16774WAT     H250565   4.155   3.274   7.980
16775WAT      O50566   4.759   3.265   1.999
16775WAT     H150567   4.682   3.262   2.063
16775WAT     H250568   4.807   3.352   2.010
16776WAT      O50569   8.014   2.363   1.716
16776WAT     H150570   8.033   2.282   1.771
16776WAT     H250571   8.039   2.345   1.621
16777WAT      O50572   1.278   3.658   7.589
16777WAT     H150573   1.364   3.641   7.637
16777WAT     H250574   1.295   3.716   7.510
16778WAT      O50575   6.614   3.206   5.286
16778WAT     H150576   6.519   3.216   5.256
16778WAT     H250577   6.620   3.136   5.357
16779WAT      O50578   3.966   3.073   2.098
16779WAT     H150579   3.884   3.050   2.149
16779WAT     H250580   4.038   3.007   2.119
16780WAT      O50581   8.015   5.254   2.233
16780WAT     H150582   8.098   5.201   2.246
16780WAT     H250583   8.016   5.333   2.295
16781WAT      O50584   3.090   7.100   9.767
16781WAT     H150585   3.000   7.136   9.789
16781WAT     H250586   3.121   7.039   9.841
16782WAT      O50587   0.924   3.705   8.517
16782WAT     H150588   0.864   3.671   8.589
16782WAT     H250589   1.007   3.649   8.513
16783WAT      O50590   5.426   0.419   3.123
16783WAT     H150591   5.422   0.410   3.023
16783WAT     H250592   5.507   0.472   3.148
16784WAT      O50593   9.213   4.140   9.361
16784WAT     H150594   9.194   4.043   9.373
16784WAT     H250595   9.166   4.174   9.280
16785WAT      O50596   5.043   1.775   5.353
16785WAT     H150597   5.138   1.790   5.377
16785WAT     H250598   5.038   1.721   5.268
16786WAT      O50599   0.523   3.338   7.475
16786WAT     H150600   0.528   3.437   7.467
16786WAT     H250601   0.437   3.313   7.519
16787WAT      O50602   9.566   0.371   5.247
16787WAT     H150603   9.560   0.302   5.319
16787WAT     H250604   9.548   0.328   5.158
16788WAT      O50605   8.764   9.766   0.780
16788WAT     H150606   8.818   9.683   0.790
16788WAT     H250607   8.825   9.843   0.762
16789WAT      O50608   4.839   9.424   2.284
16789WAT     H150609   4.858   9.390   2.376
16789WAT     H250610   4.740   9.423   2.267
16790WAT      O50611   2.636   3.840   0.812
16790WAT     H150612   2.724   3.834   0.859
16790WAT     H250613   2.614   3.936   0.796
16791WAT      O50614   4.243   3.853   8.301
16791WAT     H150615   4.299   3.827   8.222
16791WAT     H250616   4.176   3.922   8.274
16792WAT      O50617   1.055   3.833   3.033
16792WAT     H150618   1.120   3.895   2.991
16792WAT     H250619   1.006   3.881   3.106
16793WAT      O50620   0.689   4.644   0.389
16793WAT     H150621   0.775   4.603   0.419
16793WAT     H250622   0.656   4.708   0.458
16794WAT      O50623   7.567   6.521   7.508
16794WAT     H150624   7.513   6.601   7.535
16794WAT     H250625   7.608   6.480   7.589
16795WAT      O50626   6.041   7.923   4.911
16795WAT     H150627   5.978   7.857   4.870
16795WAT     H250628   6.012   7.941   5.005
16796WAT      O50629   0.365   9.418   6.616
16796WAT     H150630   0.332   9.478   6.688
16796WAT     H250631   0.409   9.338   6.656
16797WAT      O50632   9.852   8.637   3.877
16797WAT     H150633   9.861   8.724   3.926
16797WAT     H250634   9.763   8.596   3.896
16798WAT      O50635   2.976   7.964   3.736
16798WAT     H150636   3.068   7.973   3.774
16798WAT     H250637   2.912   8.016   3.793
16799WAT      O50638   0.791   0.738   4.220
16799WAT     H150639   0.888   0.746   4.196
16799WAT     H250640   0.735   0.775   4.146
16800WAT      O50641   0.990   5.996   1.208
16800WAT     H150642   1.064   5.932   1.191
16800WAT     H250643   0.994   6.070   1.141
16801WAT      O50644   4.412   0.765   5.800
16801WAT     H150645   4.380   0.692   5.740
16801WAT     H250646   4.334   0.805   5.849
16802WAT      O50647   3.587   6.749   3.554
16802WAT     H150648   3.606   6.835   3.507
16802WAT     H250649   3.493   6.749   3.586
16803WAT      O50650   9.406   8.496   2.761
16803WAT     H150651   9.501   8.525   2.776
16803WAT     H250652   9.388   8.491   2.663
16804WAT      O50653   5.022   5.399   2.344
16804WAT     H150654   5.042   5.467   2.273
16804WAT     H250655   5.108   5.360   2.377
16805WAT      O50656   1.543   5.300   1.038
16805WAT     H150657   1.470   5.231   1.041
16805WAT     H250658   1.585   5.301   0.947
16806WAT      O50659   7.256   9.830   1.371
16806WAT     H150660   7.333   9.894   1.375
16806WAT     H250661   7.208   9.841   1.284
16807WAT      O50662   9.488   6.422   7.048
16807WAT     H150663   9.566   6.456   7.100
16807WAT     H250664   9.449   6.496   6.994
16808WAT      O50665   3.203   2.296   2.075
16808WAT     H150666   3.127   2.305   2.139
16808WAT     H250667   3.201   2.204   2.034
16809WAT      O50668   6.001   5.285   6.744
16809WAT     H150669   6.079   5.348   6.744
16809WAT     H250670   6.003   5.231   6.828
16810WAT      O50671   5.085   0.620   1.289
16810WAT     H150672   5.182   0.625   1.269
16810WAT     H250673   5.054   0.705   1.331
16811WAT      O50674   6.049   1.400   4.025
16811WAT     H150675   6.015   1.459   3.951
16811WAT     H250676   6.070   1.310   3.989
16812WAT      O50677   1.398   8.099   9.050
16812WAT     H150678   1.315   8.154   9.058
16812WAT     H250679   1.413   8.074   8.955
16813WAT      O50680   8.500   0.022   7.221
16813WAT     H150681   8.500   0.117   7.190
16813WAT     H250682   8.560   0.012   7.301
16814WAT      O50683   8.715   6.635   5.973
16814WAT     H150684   8.798   6.687   5.996
16814WAT     H250685   8.673   6.601   6.057
16815WAT      O50686   5.002   6.793   5.678
16815WAT     H150687   4.980   6.703   5.714
16815WAT     H250688   5.091   6.791   5.633
16816WAT      O50689   3.130   3.134   3.448
16816WAT     H150690   3.061   3.189   3.401
16816WAT     H250691   3.158   3.181   3.532
16817WAT      O50692   6.710   0.119   2.690
16817WAT     H150693   6.615   0.089   2.689
16817WAT     H250694   6.717   0.209   2.648
16818WAT      O50695   5.583   9.458   1.927
16818WAT     H150696   5.484   9.470   1.914
16818WAT     H250697   5.623   9.420   1.844
16819WAT      O50698   5.465   2.416   4.037
16819WAT     H150699   5.484   2.457   4.126
16819WAT     H250700   5.385   2.460   3.996
16820WAT      O50701   1.177   8.191   5.682
16820WAT     H150702   1.204   8.155   5.772
16820WAT     H250703   1.105   8.133   5.644
16821WAT      O50704   9.507   6.263   7.547
16821WAT     H150705   9.558   6.221   7.622
16821WAT     H250706   9.457   6.192   7.498
16822WAT      O50707   4.703   2.147   7.638
16822WAT     H150708   4.748   2.181   7.720
16822WAT     H250709   4.732   2.053   7.621
16823WAT      O50710   7.325   3.673   0.111
16823WAT     H150711   7.297   3.708   0.021
16823WAT     H250712   7.396   3.732   0.149
16824WAT      O50713   4.203   2.898   0.616
16824WAT     H150714   4.128   2.880   0.679
16824WAT     H250715   4.229   2.995   0.622
16825WAT      O50716   7.501   3.385   7.533
16825WAT     H150717   7.484   3.353   7.626
16825WAT     H250718   7.472   3.314   7.468
16826WAT      O50719   4.386   4.602   3.093
16826WAT     H150720   4.342   4.683   3.133
16826WAT     H250721   4.324   4.561   3.026
16827WAT      O50722   7.445   7.059   2.643
16827WAT     H150723   7.366   7.117   2.622
16827WAT     H250724   7.424   7.003   2.724
16828WAT      O50725   7.246   9.764   3.973
16828WAT     H150726   7.303   9.827   3.921
16828WAT     H250727   7.187   9.713   3.911
16829WAT      O50728   4.191   7.851   2.422
16829WAT     H150729   4.271   7.906   2.445
16829WAT     H250730   4.220   7.762   2.389
16830WAT      O50731   6.884   2.602   9.531
16830WAT     H150732   6.869   2.513   9.573
16830WAT     H250733   6.911   2.668   9.601
16831WAT      O50734   2.281   7.411   7.001
16831WAT     H150735   2.274   7.430   6.903
16831WAT     H250736   2.190   7.395   7.039
16832WAT      O50737   3.242   8.112   5.236
16832WAT     H150738   3.334   8.110   5.273
16832WAT     H250739   3.245   8.141   5.140
16833WAT      O50740   0.008   8.522   0.154
16833WAT     H150741  -0.066   8.524   0.086
16833WAT     H250742  -0.024   8.566   0.238
16834WAT      O50743   5.999   6.968   7.307
16834WAT     H150744   6.069   6.990   7.239
16834WAT     H250745   5.920   6.926   7.261
16835WAT      O50746   7.175   0.208   7.564
16835WAT     H150747   7.221   0.234   7.479
16835WAT     H250748   7.131   0.119   7.552
16836WAT      O50749   5.149   0.131   8.913
16836WAT     H150750   5.175   0.227   8.923
16836WAT     H250751   5.092   0.120   8.832
16837WAT      O50752   2.260   7.188   9.175
16837WAT     H150753   2.249   7.215   9.270
16837WAT     H250754   2.295   7.094   9.171
16838WAT      O50755   6.057   3.404   9.619
16838WAT     H150756   6.098   3.468   9.553
16838WAT     H250757   6.024   3.323   9.570
16839WAT      O50758   0.059   3.126   1.804
16839WAT     H150759  -0.034   3.117   1.839
16839WAT     H250760   0.060   3.193   1.730
16840WAT      O50761   8.976   6.094   4.904
16840WAT     H150762   8.937   6.087   4.995
16840WAT     H250763   9.070   6.128   4.910
16841WAT      O50764   9.862   1.659   2.389
16841WAT     H150765   9.950   1.698   2.363
16841WAT     H250766   9.863   1.634   2.485
16842WAT      O50767   6.717   3.040   9.431
16842WAT     H150768   6.668   3.090   9.360
16842WAT     H250769   6.816   3.051   9.417
16843WAT      O50770   7.456   5.779   3.235
16843WAT     H150771   7.500   5.752   3.150
16843WAT     H250772   7.358   5.796   3.219
16844WAT      O50773   8.481   1.392   7.407
16844WAT     H150774   8.554   1.444   7.364
16844WAT     H250775   8.400   1.390   7.348
16845WAT      O50776   3.332   3.924   5.949
16845WAT     H150777   3.380   3.925   5.861
16845WAT     H250778   3.383   3.867   6.013
16846WAT      O50779   1.476   3.567   9.417
16846WAT     H150780   1.466   3.662   9.446
16846WAT     H250781   1.540   3.520   9.477
16847WAT      O50782   5.322   2.118   9.431
16847WAT     H150783   5.398   2.161   9.383
16847WAT     H250784   5.257   2.082   9.364
16848WAT      O50785   6.441   0.210   8.998
16848WAT     H150786   6.453   0.121   8.953
16848WAT     H250787   6.529   0.257   9.004
16849WAT      O50788   6.563   7.860   1.274
16849WAT     H150789   6.554   7.946   1.324
16849WAT     H250790   6.660   7.843   1.255
16850WAT      O50791   6.841   4.585   9.657
16850WAT     H150792   6.855   4.486   9.655
16850WAT     H250793   6.846   4.617   9.752
16851WAT      O50794   0.710   6.414   4.933
16851WAT     H150795   0.735   6.318   4.947
16851WAT     H250796   0.768   6.453   4.861
16852WAT      O50797   6.551   2.050   9.016
16852WAT     H150798   6.514   2.140   8.996
16852WAT     H250799   6.501   2.009   9.093
16853WAT      O50800   6.375   3.168   7.740
16853WAT     H150801   6.472   3.172   7.720
16853WAT     H250802   6.337   3.082   7.707
16854WAT      O50803   3.533   8.538   9.672
16854WAT     H150804   3.624   8.577   9.654
16854WAT     H250805   3.511   8.471   9.601
16855WAT      O50806   6.718   3.891   1.132
16855WAT     H150807   6.624   3.922   1.123
16855WAT     H250808   6.720   3.799   1.170
16856WAT      O50809   7.928   7.243   6.866
16856WAT     H150810   7.892   7.272   6.777
16856WAT     H250811   7.882   7.158   6.893
16857WAT      O50812   0.020   9.258   5.829
16857WAT     H150813   0.038   9.298   5.739
16857WAT     H250814   0.102   9.265   5.885
16858WAT      O50815   7.150   5.745   0.433
16858WAT     H150816   7.147   5.669   0.368
16858WAT     H250817   7.088   5.726   0.509
16859WAT      O50818   6.792   0.168   2.379
16859WAT     H150819   6.732   0.242   2.410
16859WAT     H250820   6.808   0.105   2.455
16860WAT      O50821   2.042   0.909   0.582
16860WAT     H150822   1.995   0.935   0.666
16860WAT     H250823   2.112   0.841   0.602
16861WAT      O50824   8.920   3.303   0.821
16861WAT     H150825   8.823   3.314   0.800
16861WAT     H250826   8.931   3.232   0.891
16862WAT      O50827   0.443   1.640   6.663
16862WAT     H150828   0.461   1.644   6.564
16862WAT     H250829   0.509   1.698   6.711
16863WAT      O50830   0.623   7.885   3.065
16863WAT     H150831   0.650   7.974   3.101
16863WAT     H250832   0.643   7.881   2.967
16864WAT      O50833   2.082   5.782   2.624
16864WAT     H150834   2.027   5.705   2.655
16864WAT     H250835   2.024   5.862   2.611
16865WAT      O50836   3.340   5.274   7.988
16865WAT     H150837   3.346   5.306   8.082
16865WAT     H250838   3.432   5.268   7.949
16866WAT      O50839   3.919   1.562   6.676
16866WAT     H150840   3.986   1.507   6.627
16866WAT     H250841   3.951   1.657   6.683
16867WAT      O50842   0.180   2.395   5.006
16867WAT     H150843   0.121   2.451   4.949
16867WAT     H250844   0.275   2.406   4.977
16868WAT      O50845   8.743   0.983   7.486
16868WAT     H150846   8.778   1.031   7.566
16868WAT     H250847   8.798   0.902   7.468
16869WAT      O50848   7.520   8.674   2.756
16869WAT     H150849   7.618   8.660   2.770
16869WAT     H250850   7.479   8.590   2.720
16870WAT      O50851   9.321   7.227   6.709
16870WAT     H150852   9.272   7.257   6.790
16870WAT     H250853   9.261   7.171   6.652
16871WAT      O50854   3.054   1.405   2.482
16871WAT     H150855   3.069   1.406   2.384
16871WAT     H250856   3.046   1.310   2.513
16872WAT      O50857   1.191   4.158   4.278
16872WAT     H150858   1.278   4.176   4.232
16872WAT     H250859   1.188   4.062   4.307
16873WAT      O50860   0.275   0.627   8.749
16873WAT     H150861   0.210   0.617   8.674
16873WAT     H250862   0.296   0.723   8.762
16874WAT      O50863   4.219   6.103   5.555
16874WAT     H150864   4.266   6.099   5.643
16874WAT     H250865   4.276   6.061   5.485
16875WAT      O50866   7.480   6.002   1.349
16875WAT     H150867   7.522   5.911   1.350
16875WAT     H250868   7.507   6.052   1.431
16876WAT      O50869   3.908   3.960   6.241
16876WAT     H150870   3.814   3.943   6.210
16876WAT     H250871   3.972   3.906   6.186
16877WAT      O50872   4.467   3.403   3.989
16877WAT     H150873   4.410   3.441   4.062
16877WAT     H250874   4.563   3.416   4.013
16878WAT      O50875   6.204   7.919   5.565
16878WAT     H150876   6.262   7.852   5.611
16878WAT     H250877   6.119   7.875   5.537
16879WAT      O50878   6.428   6.781   0.003
16879WAT     H150879   6.441   6.739   0.093
16879WAT     H250880   6.476   6.727  -0.066
16880WAT      O50881   3.186   1.875   8.003
16880WAT     H150882   3.159   1.880   7.907
16880WAT     H250883   3.166   1.783   8.038
16881WAT      O50884   7.579   1.251   7.044
16881WAT     H150885   7.586   1.167   6.990
16881WAT     H250886   7.486   1.288   7.036
16882WAT      O50887   3.049   4.567   5.488
16882WAT     H150888   3.017   4.550   5.581
16882WAT     H250889   3.001   4.507   5.424
16883WAT      O50890   6.892   1.646   9.524
16883WAT     H150891   6.981   1.687   9.544
16883WAT     H250892   6.839   1.639   9.608
16884WAT      O50893   7.464   6.309   8.364
16884WAT     H150894   7.369   6.287   8.339
16884WAT     H250895   7.477   6.408   8.359
16885WAT      O50896   0.575   6.807   1.297
16885WAT     H150897   0.626   6.889   1.323
16885WAT     H250898   0.494   6.798   1.355
16886WAT      O50899   8.228   8.874   1.002
16886WAT     H150900   8.225   8.912   0.909
16886WAT     H250901   8.164   8.797   1.008
16887WAT      O50902   4.192   2.084   5.622
16887WAT     H150903   4.269   2.026   5.644
16887WAT     H250904   4.206   2.176   5.659
16888WAT      O50905   6.593   6.127   0.369
16888WAT     H150906   6.639   6.060   0.427
16888WAT     H250907   6.510   6.159   0.414
16889WAT      O50908   6.809   8.786   5.622
16889WAT     H150909   6.740   8.785   5.550
16889WAT     H250910   6.831   8.692   5.648
16890WAT      O50911   2.256   7.398   5.092
16890WAT     H150912   2.238   7.350   5.178
16890WAT     H250913   2.319   7.344   5.036
16891WAT      O50914   5.225   3.197   6.837
16891WAT     H150915   5.207   3.231   6.929
16891WAT     H250916   5.204   3.100   6.832
16892WAT      O50917   9.589   0.069   2.907
16892WAT     H150918   9.549   0.123   2.833
16892WAT     H250919   9.689   0.072   2.900
16893WAT      O50920   7.062   5.859   4.161
16893WAT     H150921   7.088   5.945   4.117
16893WAT     H250922   7.075   5.867   4.259
16894WAT      O50923   6.772   5.590   7.249
16894WAT     H150924   6.672   5.589   7.242
16894WAT     H250925   6.809   5.653   7.182
16895WAT      O50926   7.631   2.652   1.396
16895WAT     H150927   7.557   2.714   1.369
16895WAT     H250928   7.647   2.661   1.494
16896WAT      O50929   2.747   4.490   6.958
16896WAT     H150930   2.667   4.546   6.933
16896WAT     H250931   2.830   4.539   6.932
16897WAT      O50932   2.106   1.966   3.948
16897WAT     H150933   2.138   1.971   4.043
16897WAT     H250934   2.008   1.983   3.944
16898WAT      O50935   6.384   6.875   2.996
16898WAT     H150936   6.450   6.856   2.923
16898WAT     H250937   6.418   6.950   3.052
16899WAT      O50938   1.302   6.816   4.588
16899WAT     H150939   1.205   6.792   4.592
16899WAT     H250940   1.320   6.870   4.507
16900WAT      O50941   9.874   2.485   4.455
16900WAT     H150942   9.944   2.551   4.483
16900WAT     H250943   9.784   2.525   4.469
16901WAT      O50944   4.286   0.318   9.802
16901WAT     H150945   4.224   0.354   9.732
16901WAT     H250946   4.273   0.368   9.887
16902WAT      O50947   0.542   5.926   5.501
16902WAT     H150948   0.544   5.851   5.434
16902WAT     H250949   0.455   5.924   5.550
16903WAT      O50950   6.798   9.074   8.922
16903WAT     H150951   6.765   9.164   8.896
16903WAT     H250952   6.883   9.083   8.974
16904WAT      O50953   6.296   7.998   3.822
16904WAT     H150954   6.299   7.961   3.914
16904WAT     H250955   6.303   8.098   3.826
16905WAT      O50956   9.036   2.747   6.751
16905WAT     H150957   8.991   2.740   6.841
16905WAT     H250958   8.987   2.689   6.686
16906WAT      O50959   1.589   2.628   7.431
16906WAT     H150960   1.573   2.667   7.340
16906WAT     H250961   1.657   2.682   7.479
16907WAT      O50962   0.637   8.398   9.059
16907WAT     H150963   0.635   8.316   9.116
16907WAT     H250964   0.691   8.380   8.976
16908WAT      O50965   5.894   1.935   1.082
16908WAT     H150966   5.986   1.923   1.044
16908WAT     H250967   5.876   2.032   1.095
16909WAT      O50968   1.852   4.744   1.548
16909WAT     H150969   1.776   4.689   1.512
16909WAT     H250970   1.826   4.841   1.549
16910WAT      O50971   1.367   8.552   1.208
16910WAT     H150972   1.363   8.476   1.273
16910WAT     H250973   1.458   8.555   1.167
16911WAT      O50974   2.082   2.247   6.170
16911WAT     H150975   2.028   2.195   6.104
16911WAT     H250976   2.113   2.185   6.242
16912WAT      O50977   8.114   6.226   9.471
16912WAT     H150978   8.187   6.211   9.538
16912WAT     H250979   8.032   6.257   9.518
16913WAT      O50980   7.282   4.014   1.457
16913WAT     H150981   7.368   3.989   1.413
16913WAT     H250982   7.235   4.084   1.403
16914WAT      O50983   8.903   8.889   6.121
16914WAT     H150984   8.982   8.874   6.061
16914WAT     H250985   8.894   8.811   6.183
16915WAT      O50986   0.237   0.863   4.083
16915WAT     H150987   0.256   0.769   4.055
16915WAT     H250988   0.158   0.864   4.144
16916WAT      O50989   8.275   7.298   5.630
16916WAT     H150990   8.247   7.362   5.702
16916WAT     H250991   8.307   7.350   5.550
16917WAT      O50992   5.644   5.865   9.597
16917WAT     H150993   5.726   5.839   9.648
16917WAT     H250994   5.579   5.788   9.598
16918WAT      O50995   3.878   1.271   7.110
16918WAT     H150996   3.945   1.271   7.036
16918WAT     H250997   3.812   1.344   7.096
16919WAT      O50998   9.485   7.370   8.942
16919WAT     H150999   9.417   7.357   8.870
16919WAT     H251000   9.481   7.465   8.974
16920WAT      O51001   1.585   1.997   3.792
16920WAT     H151002   1.513   2.065   3.778
16920WAT     H251003   1.549   1.906   3.771
16921WAT      O51004   9.173   9.646   5.846
16921WAT     H151005   9.209   9.705   5.918
16921WAT     H251006   9.229   9.657   5.763
16922WAT      O51007   8.446   1.810   2.789
16922WAT     H151008   8.374   1.879   2.796
16922WAT     H251009   8.484   1.810   2.696
16923WAT      O51010   4.157   0.683   2.447
16923WAT     H151011   4.138   0.690   2.349
16923WAT     H251012   4.095   0.615   2.487
16924WAT      O51013   1.359   8.308   3.497
16924WAT     H151014   1.297   8.336   3.423
16924WAT     H251015   1.305   8.284   3.578
16925WAT      O51016   5.931   3.081   3.363
16925WAT     H151017   6.012   3.030   3.392
16925WAT     H251018   5.931   3.171   3.405
16926WAT      O51019   9.436   0.566   9.670
16926WAT     H151020   9.500   0.625   9.621
16926WAT     H251021   9.471   0.473   9.671
16927WAT      O51022   4.920   4.286   2.819
16927WAT     H151023   4.849   4.250   2.759
16927WAT     H251024   4.949   4.376   2.787
16928WAT      O51025   6.355   4.581   4.936
16928WAT     H151026   6.401   4.581   5.024
16928WAT     H251027   6.268   4.532   4.944
16929WAT      O51028   4.996   1.039   2.771
16929WAT     H151029   4.974   0.995   2.857
16929WAT     H251030   5.089   1.013   2.743
16930WAT      O51031   7.642   1.626   2.395
16930WAT     H151032   7.656   1.530   2.369
16930WAT     H251033   7.551   1.637   2.433
16931WAT      O51034   2.763   2.770   5.413
16931WAT     H151035   2.847   2.779   5.466
16931WAT     H251036   2.731   2.861   5.385
16932WAT      O51037   5.968   0.247   9.274
16932WAT     H151038   5.950   0.299   9.190
16932WAT     H251039   5.919   0.160   9.270
16933WAT      O51040   1.413   4.841   1.311
16933WAT     H151041   1.497   4.866   1.263
16933WAT     H251042   1.356   4.785   1.251
16934WAT      O51043   7.659   8.736   9.606
16934WAT     H151044   7.676   8.769   9.699
16934WAT     H251045   7.569   8.693   9.601
16935WAT      O51046   1.321   2.434   3.327
16935WAT     H151047   1.283   2.518   3.288
16935WAT     H251048   1.322   2.363   3.256
16936WAT      O51049   1.912   9.385   6.870
16936WAT     H151050   1.920   9.483   6.854
16936WAT     H251051   1.952   9.334   6.794
16937WAT      O51052   9.063   0.101   8.751
16937WAT     H151053   8.992   0.166   8.777
16937WAT     H251054   9.024   0.009   8.748
16938WAT      O51055   0.912   9.054   3.960
16938WAT     H151056   0.829   9.002   3.977
16938WAT     H251057   0.934   9.110   4.040
16939WAT      O51058   1.982   8.736   7.471
16939WAT     H151059   1.893   8.777   7.494
16939WAT     H251060   1.974   8.689   7.383
16940WAT      O51061   1.317   1.225   4.535
16940WAT     H151062   1.309   1.143   4.592
16940WAT     H251063   1.227   1.264   4.521
16941WAT      O51064   3.318   2.617   3.150
16941WAT     H151065   3.338   2.714   3.139
16941WAT     H251066   3.316   2.594   3.248
16942WAT      O51067   5.669   7.076   6.776
16942WAT     H151068   5.750   7.129   6.800
16942WAT     H251069   5.628   7.113   6.692
16943WAT      O51070   3.301   4.696   6.717
16943WAT     H151071   3.360   4.764   6.674
16943WAT     H251072   3.343   4.605   6.708
16944WAT      O51073   6.402   2.245   8.889
16944WAT     H151074   6.392   2.293   8.802
16944WAT     H251075   6.396   2.311   8.964
16945WAT      O51076   2.567   7.594   8.889
16945WAT     H151077   2.557   7.497   8.866
16945WAT     H251078   2.510   7.616   8.968
16946WAT      O51079   3.811   1.777   7.692
16946WAT     H151080   3.901   1.743   7.721
16946WAT     H251081   3.817   1.876   7.675
16947WAT      O51082   8.936   4.182   8.503
16947WAT     H151083   8.842   4.216   8.509
16947WAT     H251084   8.964   4.180   8.407
16948WAT      O51085   0.390   7.353   5.487
16948WAT     H151086   0.464   7.286   5.495
16948WAT     H251087   0.322   7.336   5.558
16949WAT      O51088   5.557   6.613   4.132
16949WAT     H151089   5.531   6.548   4.061
16949WAT     H251090   5.476   6.657   4.170
16950WAT      O51091   3.284   4.247   5.455
16950WAT     H151092   3.267   4.345   5.459
16950WAT     H251093   3.378   4.228   5.483
16951WAT      O51094   2.917   5.836   4.867
16951WAT     H151095   2.899   5.828   4.965
16951WAT     H251096   2.830   5.837   4.818
16952WAT      O51097   5.540   3.512   7.005
16952WAT     H151098   5.481   3.446   6.959
16952WAT     H251099   5.626   3.468   7.030
16953WAT      O51100   2.220   1.095   2.648
16953WAT     H151101   2.168   1.060   2.727
16953WAT     H251102   2.168   1.167   2.603
16954WAT      O51103   5.288   9.761   0.162
16954WAT     H151104   5.202   9.737   0.206
16954WAT     H251105   5.280   9.749   0.063
16955WAT      O51106   8.799   2.237   3.452
16955WAT     H151107   8.726   2.265   3.514
16955WAT     H251108   8.867   2.183   3.502
16956WAT      O51109   6.742   2.521   5.950
16956WAT     H151110   6.645   2.535   5.928
16956WAT     H251111   6.796   2.596   5.911
16957WAT      O51112   5.201   2.934   3.989
16957WAT     H151113   5.227   2.971   4.078
16957WAT     H251114   5.101   2.928   3.982
16958WAT      O51115   3.833   8.502   9.605
16958WAT     H151116   3.892   8.522   9.683
16958WAT     H251117   3.823   8.403   9.595
16959WAT      O51118   8.265   6.451   0.451
16959WAT     H151119   8.332   6.492   0.512
16959WAT     H251120   8.305   6.436   0.361
16960WAT      O51121   3.305   3.264   0.163
16960WAT     H151122   3.363   3.278   0.243
16960WAT     H251123   3.231   3.331   0.163
16961WAT      O51124   8.079   6.899   3.258
16961WAT     H151125   8.023   6.852   3.326
16961WAT     H251126   8.037   6.892   3.168
16962WAT      O51127   3.464   6.307   9.754
16962WAT     H151128   3.452   6.339   9.848
16962WAT     H251129   3.376   6.282   9.715
16963WAT      O51130   8.173   2.204   3.333
16963WAT     H151131   8.258   2.239   3.373
16963WAT     H251132   8.195   2.143   3.257
16964WAT      O51133   3.167   1.657   2.506
16964WAT     H151134   3.135   1.565   2.483
16964WAT     H251135   3.102   1.725   2.471
16965WAT      O51136   3.824   2.677   6.884
16965WAT     H151137   3.743   2.629   6.917
16965WAT     H251138   3.899   2.612   6.874
16966WAT      O51139   3.871   8.432   8.415
16966WAT     H151140   3.971   8.425   8.410
16966WAT     H251141   3.844   8.454   8.508
16967WAT      O51142   8.793   9.486   9.454
16967WAT     H151143   8.764   9.547   9.528
16967WAT     H251144   8.817   9.540   9.373
16968WAT      O51145   0.857   0.268   3.188
16968WAT     H151146   0.834   0.180   3.146
16968WAT     H251147   0.936   0.256   3.248
16969WAT      O51148   7.591   1.165   4.538
16969WAT     H151149   7.664   1.107   4.500
16969WAT     H251150   7.612   1.186   4.633
16970WAT      O51151   9.155   1.026   1.550
16970WAT     H151152   9.235   1.035   1.492
16970WAT     H251153   9.152   1.103   1.614
16971WAT      O51154   0.015   3.039   9.871
16971WAT     H151155   0.104   3.083   9.884
16971WAT     H251156  -0.028   3.073   9.787
16972WAT      O51157   3.201   6.783   1.149
16972WAT     H151158   3.251   6.751   1.230
16972WAT     H251159   3.266   6.812   1.079
16973WAT      O51160   0.039   3.547   2.939
16973WAT     H151161   0.125   3.592   2.967
16973WAT     H251162   0.055   3.449   2.930
16974WAT      O51163   7.113   0.027   4.369
16974WAT     H151164   7.173  -0.044   4.332
16974WAT     H251165   7.065   0.072   4.294
16975WAT      O51166   4.733   3.033   7.118
16975WAT     H151167   4.657   3.089   7.151
16975WAT     H251168   4.752   2.960   7.184
16976WAT      O51169   4.778   5.964   2.795
16976WAT     H151170   4.708   5.902   2.831
16976WAT     H251171   4.868   5.926   2.814
16977WAT      O51172   9.301   7.347   8.228
16977WAT     H151173   9.256   7.259   8.247
16977WAT     H251174   9.334   7.348   8.134
16978WAT      O51175   6.181   3.843   4.417
16978WAT     H151176   6.167   3.932   4.376
16978WAT     H251177   6.117   3.777   4.377
16979WAT      O51178   2.526   5.214   2.256
16979WAT     H151179   2.531   5.220   2.355
16979WAT     H251180   2.499   5.302   2.218
16980WAT      O51181   4.315   7.954   2.091
16980WAT     H151182   4.228   7.984   2.053
16980WAT     H251183   4.353   8.026   2.149
16981WAT      O51184   8.555   1.421   4.097
16981WAT     H151185   8.518   1.411   4.005
16981WAT     H251186   8.579   1.517   4.114
16982WAT      O51187   5.636   1.684   4.501
16982WAT     H151188   5.595   1.729   4.421
16982WAT     H251189   5.724   1.726   4.522
16983WAT      O51190   8.919   6.612   6.856
16983WAT     H151191   8.877   6.568   6.935
16983WAT     H251192   9.018   6.611   6.865
16984WAT      O51193   8.066   5.770   8.156
16984WAT     H151194   8.071   5.735   8.063
16984WAT     H251195   7.980   5.820   8.169
16985WAT      O51196   4.665   5.644   2.114
16985WAT     H151197   4.733   5.597   2.171
16985WAT     H251198   4.708   5.724   2.071
16986WAT      O51199   8.863   1.861   9.803
16986WAT     H151200   8.836   1.927   9.732
16986WAT     H251201   8.872   1.770   9.762
16987WAT      O51202   6.387   7.813   2.348
16987WAT     H151203   6.408   7.911   2.349
16987WAT     H251204   6.463   7.763   2.306
16988WAT      O51205   6.863   6.298   6.440
16988WAT     H151206   6.928   6.264   6.372
16988WAT     H251207   6.770   6.279   6.410
16989WAT      O51208   0.720   3.120   4.932
16989WAT     H151209   0.665   3.099   4.851
16989WAT     H251210   0.661   3.157   5.004
16990WAT      O51211   7.269   4.989   7.537
16990WAT     H151212   7.243   4.904   7.583
16990WAT     H251213   7.237   4.987   7.442
16991WAT      O51214   4.345   1.614   5.751
16991WAT     H151215   4.248   1.588   5.756
16991WAT     H251216   4.388   1.567   5.674
16992WAT      O51217   4.390   6.515   4.091
16992WAT     H151218   4.447   6.589   4.126
16992WAT     H251219   4.408   6.503   3.993
16993WAT      O51220   1.281   7.454   6.795
16993WAT     H151221   1.375   7.443   6.827
16993WAT     H251222   1.248   7.367   6.757
16994WAT      O51223   4.736   7.220   3.795
16994WAT     H151224   4.664   7.283   3.766
16994WAT     H251225   4.825   7.258   3.769
16995WAT      O51226   1.759   5.409   3.611
16995WAT     H151227   1.762   5.477   3.685
16995WAT     H251228   1.668   5.410   3.569
16996WAT      O51229   7.824   1.844   2.376
16996WAT     H151230   7.833   1.855   2.277
16996WAT     H251231   7.745   1.787   2.397
16997WAT      O51232   1.404   1.078   8.022
16997WAT     H151233   1.376   1.163   7.977
16997WAT     H251234   1.460   1.024   7.959
16998WAT      O51235   2.142   8.474   6.341
16998WAT     H151236   2.197   8.395   6.313
16998WAT     H251237   2.046   8.456   6.321
16999WAT      O51238   7.081   7.601   5.048
16999WAT     H151239   7.144   7.678   5.040
16999WAT     H251240   6.992   7.627   5.010
17000WAT      O51241   4.716   4.600   5.623
17000WAT     H151242   4.694   4.686   5.577
17000WAT     H251243   4.752   4.535   5.555
17001WAT      O51244   5.453   7.258   1.803
17001WAT     H151245   5.441   7.259   1.902
17001WAT     H251246   5.549   7.271   1.781
17002WAT      O51247   2.170   2.583   7.242
17002WAT     H151248   2.159   2.658   7.177
17002WAT     H251249   2.238   2.608   7.311
17003WAT      O51250   0.756   2.145   4.285
17003WAT     H151251   0.709   2.058   4.295
17003WAT     H251252   0.689   2.219   4.282
17004WAT      O51253   6.007   5.870   0.451
17004WAT     H151254   6.027   5.846   0.356
17004WAT     H251255   6.075   5.828   0.511
17005WAT      O51256   6.353   7.453   3.074
17005WAT     H151257   6.424   7.491   3.133
17005WAT     H251258   6.266   7.498   3.095
17006WAT      O51259   8.588   3.957   9.006
17006WAT     H151260   8.532   4.014   9.066
17006WAT     H251261   8.563   3.973   8.911
17007WAT      O51262   8.476   3.828   7.950
17007WAT     H151263   8.405   3.899   7.958
17007WAT     H251264   8.433   3.741   7.927
17008WAT      O51265   5.485   7.227   7.623
17008WAT     H151266   5.428   7.194   7.698
17008WAT     H251267   5.451   7.191   7.536
17009WAT      O51268   2.610   6.775   1.312
17009WAT     H151269   2.598   6.727   1.225
17009WAT     H251270   2.706   6.770   1.340
17010WAT      O51271   0.649   7.839   2.318
17010WAT     H151272   0.621   7.909   2.252
17010WAT     H251273   0.569   7.811   2.371
17011WAT      O51274   8.430   7.589   8.265
17011WAT     H151275   8.451   7.655   8.337
17011WAT     H251276   8.515   7.561   8.219
17012WAT      O51277   8.066   8.267   5.981
17012WAT     H151278   8.124   8.319   5.918
17012WAT     H251279   8.067   8.170   5.954
17013WAT      O51280   5.254   2.914   2.170
17013WAT     H151281   5.259   2.894   2.072
17013WAT     H251282   5.160   2.935   2.195
17014WAT      O51283   1.214   4.935   3.482
17014WAT     H151284   1.159   5.007   3.524
17014WAT     H251285   1.179   4.914   3.391
17015WAT      O51286   0.818   8.745   4.160
17015WAT     H151287   0.842   8.663   4.107
17015WAT     H251288   0.896   8.771   4.217
17016WAT      O51289   2.077   2.844   8.515
17016WAT     H151290   2.074   2.912   8.588
17016WAT     H251291   2.004   2.777   8.528
17017WAT      O51292   3.672   4.520   6.840
17017WAT     H151293   3.646   4.607   6.882
17017WAT     H251294   3.769   4.503   6.857
17018WAT      O51295   1.639   6.621   7.627
17018WAT     H151296   1.577   6.556   7.582
17018WAT     H251297   1.730   6.612   7.586
17019WAT      O51298   0.582   8.751   2.296
17019WAT     H151299   0.563   8.836   2.344
17019WAT     H251300   0.681   8.742   2.281
17020WAT      O51301   8.621   1.142   3.017
17020WAT     H151302   8.616   1.204   3.095
17020WAT     H251303   8.714   1.140   2.982
17021WAT      O51304   4.615   2.512   1.202
17021WAT     H151305   4.664   2.427   1.223
17021WAT     H251306   4.522   2.506   1.236
17022WAT      O51307   1.462   3.106   1.601
17022WAT     H151308   1.401   3.161   1.659
17022WAT     H251309   1.556   3.135   1.615
17023WAT      O51310   3.407   3.734   9.110
17023WAT     H151311   3.492   3.768   9.072
17023WAT     H251312   3.378   3.652   9.060
17024WAT      O51313   9.809   9.054   3.715
17024WAT     H151314   9.822   8.996   3.635
17024WAT     H251315   9.801   9.149   3.686
17025WAT      O51316   5.675   3.047   1.017
17025WAT     H151317   5.677   3.061   0.918
17025WAT     H251318   5.639   3.128   1.062
17026WAT      O51319   8.076   2.325   6.726
17026WAT     H151320   8.110   2.234   6.703
17026WAT     H251321   8.144   2.373   6.781
17027WAT      O51322   9.653   4.878   7.660
17027WAT     H151323   9.605   4.818   7.596
17027WAT     H251324   9.632   4.974   7.637
17028WAT      O51325   5.650   2.956   2.432
17028WAT     H151326   5.552   2.961   2.452
17028WAT     H251327   5.672   2.864   2.400
17029WAT      O51328   2.199   6.365   6.196
17029WAT     H151329   2.266   6.349   6.124
17029WAT     H251330   2.108   6.372   6.156
17030WAT      O51331   9.610   5.112   5.041
17030WAT     H151332   9.649   5.202   5.021
17030WAT     H251333   9.643   5.046   4.973
17031WAT      O51334   9.522   3.418   3.640
17031WAT     H151335   9.528   3.404   3.738
17031WAT     H251336   9.547   3.513   3.618
17032WAT      O51337   4.470   7.326   0.138
17032WAT     H151338   4.494   7.380   0.219
17032WAT     H251339   4.533   7.249   0.130
17033WAT      O51340   8.534   6.758   5.608
17033WAT     H151341   8.467   6.687   5.631
17033WAT     H251342   8.555   6.754   5.510
17034WAT      O51343   7.220   9.495   2.078
17034WAT     H151344   7.246   9.410   2.032
17034WAT     H251345   7.217   9.569   2.011
17035WAT      O51346   1.721   5.493   5.627
17035WAT     H151347   1.689   5.581   5.594
17035WAT     H251348   1.676   5.471   5.713
17036WAT      O51349   0.427   0.801   9.112
17036WAT     H151350   0.346   0.744   9.125
17036WAT     H251351   0.507   0.742   9.100
17037WAT      O51352   7.584   6.558   7.808
17037WAT     H151353   7.550   6.464   7.806
17037WAT     H251354   7.629   6.576   7.895
17038WAT      O51355   3.494   0.339   7.832
17038WAT     H151356   3.562   0.268   7.851
17038WAT     H251357   3.403   0.307   7.858
17039WAT      O51358   4.687   4.326   7.249
17039WAT     H151359   4.730   4.249   7.202
17039WAT     H251360   4.756   4.377   7.299
17040WAT      O51361   6.901   0.971   3.070
17040WAT     H151362   6.860   1.058   3.042
17040WAT     H251363   6.986   0.988   3.120
17041WAT      O51364   4.295   0.056   1.337
17041WAT     H151365   4.349   0.102   1.408
17041WAT     H251366   4.357   0.007   1.275
17042WAT      O51367   7.098   1.895   5.863
17042WAT     H151368   6.998   1.897   5.868
17042WAT     H251369   7.130   1.802   5.874
17043WAT      O51370   4.582   2.977   4.023
17043WAT     H151371   4.635   3.031   4.088
17043WAT     H251372   4.496   3.025   4.003
17044WAT      O51373   4.862   1.203   6.827
17044WAT     H151374   4.905   1.265   6.762
17044WAT     H251375   4.933   1.153   6.877
17045WAT      O51376   4.603   0.122   6.617
17045WAT     H151377   4.583   0.024   6.617
17045WAT     H251378   4.564   0.164   6.535
17046WAT      O51379   9.554   3.708   1.642
17046WAT     H151380   9.498   3.625   1.645
17046WAT     H251381   9.539   3.761   1.726
17047WAT      O51382   6.400   4.023   5.073
17047WAT     H151383   6.483   4.052   5.121
17047WAT     H251384   6.323   4.025   5.137
17048WAT      O51385   5.365   7.363   9.048
17048WAT     H151386   5.363   7.272   9.089
17048WAT     H251387   5.391   7.356   8.951
17049WAT      O51388   2.662   1.345   4.377
17049WAT     H151389   2.613   1.358   4.291
17049WAT     H251390   2.648   1.426   4.435
17050WAT      O51391   5.723   7.653   9.801
17050WAT     H151392   5.767   7.740   9.822
17050WAT     H251393   5.627   7.668   9.778
17051WAT      O51394   9.048   2.485   1.411
17051WAT     H151395   9.028   2.501   1.314
17051WAT     H251396   9.130   2.536   1.437
17052WAT      O51397   8.778   5.288   2.453
17052WAT     H151398   8.764   5.342   2.370
17052WAT     H251399   8.763   5.345   2.533
17053WAT      O51400   0.438   6.666   0.452
17053WAT     H151401   0.498   6.586   0.446
17053WAT     H251402   0.345   6.636   0.475
17054WAT      O51403   0.063   6.724   3.375
17054WAT     H151404   0.068   6.785   3.297
17054WAT     H251405   0.155   6.705   3.409
17055WAT      O51406   8.498   2.521   3.757
17055WAT     H151407   8.514   2.547   3.662
17055WAT     H251408   8.479   2.423   3.762
17056WAT      O51409   1.234   0.092   6.641
17056WAT     H151410   1.249   0.162   6.711
17056WAT     H251411   1.139   0.097   6.609
17057WAT      O51412   9.183   5.398   4.184
17057WAT     H151413   9.106   5.458   4.204
17057WAT     H251414   9.253   5.448   4.132
17058WAT      O51415   0.213   1.843   7.623
17058WAT     H151416   0.171   1.800   7.543
17058WAT     H251417   0.284   1.783   7.660
17059WAT      O51418   9.880   5.333   6.532
17059WAT     H151419   9.912   5.415   6.484
17059WAT     H251420   9.959   5.277   6.558
17060WAT      O51421   7.312   4.263   6.754
17060WAT     H151422   7.281   4.169   6.749
17060WAT     H251423   7.235   4.322   6.779
17061WAT      O51424   7.503   1.357   5.242
17061WAT     H151425   7.476   1.272   5.287
17061WAT     H251426   7.465   1.360   5.150
17062WAT      O51427   8.342   0.325   2.364
17062WAT     H151428   8.344   0.418   2.326
17062WAT     H251429   8.429   0.307   2.410
17063WAT      O51430   0.897   8.478   6.973
17063WAT     H151431   0.824   8.512   7.032
17063WAT     H251432   0.858   8.450   6.885
17064WAT      O51433   9.376   9.180   2.807
17064WAT     H151434   9.316   9.128   2.868
17064WAT     H251435   9.452   9.219   2.859
17065WAT      O51436   7.136   6.664   0.198
17065WAT     H151437   7.138   6.634   0.293
17065WAT     H251438   7.078   6.603   0.145
17066WAT      O51439   7.827   4.883   2.996
17066WAT     H151440   7.805   4.836   3.081
17066WAT     H251441   7.795   4.978   3.001
17067WAT      O51442   2.950   7.530   7.158
17067WAT     H151443   3.004   7.550   7.240
17067WAT     H251444   2.891   7.608   7.136
17068WAT      O51445   5.083   0.798   9.352
17068WAT     H151446   5.108   0.710   9.394
17068WAT     H251447   5.020   0.846   9.413
17069WAT      O51448   7.247   6.394   9.142
17069WAT     H151449   7.243   6.451   9.224
17069WAT     H251450   7.338   6.401   9.101
17070WAT      O51451   2.927   7.464   3.644
17070WAT     H151452   2.963   7.383   3.689
17070WAT     H251453   2.933   7.542   3.707
17071WAT      O51454   0.489   7.703   4.612
17071WAT     H151455   0.588   7.704   4.627
17071WAT     H251456   0.462   7.616   4.572
17072WAT      O51457   2.716   6.241   0.201
17072WAT     H151458   2.704   6.189   0.116
17072WAT     H251459   2.633   6.236   0.256
17073WAT      O51460   4.660   7.796   6.353
17073WAT     H151461   4.603   7.801   6.435
17073WAT     H251462   4.629   7.722   6.295
17074WAT      O51463   0.739   9.815   2.793
17074WAT     H151464   0.796   9.870   2.731
17074WAT     H251465   0.647   9.807   2.755
17075WAT      O51466   3.608   9.279   7.409
17075WAT     H151467   3.637   9.183   7.410
17075WAT     H251468   3.522   9.288   7.360
17076WAT      O51469   8.209   9.043   6.797
17076WAT     H151470   8.159   9.079   6.876
17076WAT     H251471   8.228   8.946   6.811
17077WAT      O51472   2.660   8.544   7.605
17077WAT     H151473   2.745   8.500   7.634
17077WAT     H251474   2.582   8.487   7.632
17078WAT      O51475   8.908   1.015   6.595
17078WAT     H151476   8.965   1.069   6.658
17078WAT     H251477   8.958   1.001   6.510
17079WAT      O51478   8.274   0.098   0.082
17079WAT     H151479   8.372   0.081   0.091
17079WAT     H251480   8.258   0.164   0.008
17080WAT      O51481   3.836   4.731   8.715
17080WAT     H151482   3.803   4.823   8.692
17080WAT     H251483   3.844   4.723   8.814
17081WAT      O51484   6.123   6.402   5.048
17081WAT     H151485   6.206   6.434   5.093
17081WAT     H251486   6.044   6.428   5.104
17082WAT      O51487   0.807   5.268   6.847
17082WAT     H151488   0.826   5.366   6.839
17082WAT     H251489   0.827   5.237   6.940
17083WAT      O51490   6.151   4.286   9.237
17083WAT     H151491   6.159   4.302   9.139
17083WAT     H251492   6.214   4.213   9.264
17084WAT      O51493   8.249   0.986   9.538
17084WAT     H151494   8.175   0.982   9.604
17084WAT     H251495   8.310   0.907   9.551
17085WAT      O51496   5.944   2.275   1.675
17085WAT     H151497   5.911   2.353   1.727
17085WAT     H251498   5.922   2.287   1.578
17086WAT      O51499   7.992   1.769   3.396
17086WAT     H151500   7.995   1.869   3.399
17086WAT     H251501   7.975   1.734   3.489
17087WAT      O51502   7.593   6.847   4.349
17087WAT     H151503   7.671   6.857   4.411
17087WAT     H251504   7.514   6.814   4.401
17088WAT      O51505   3.446   7.223   4.760
17088WAT     H151506   3.396   7.296   4.808
17088WAT     H251507   3.533   7.259   4.727
17089WAT      O51508   0.888   9.283   8.476
17089WAT     H151509   0.918   9.371   8.513
17089WAT     H251510   0.847   9.297   8.386
17090WAT      O51511   7.317   4.799   3.049
17090WAT     H151512   7.316   4.834   2.955
17090WAT     H251513   7.392   4.734   3.059
17091WAT      O51514   8.425   3.657   0.282
17091WAT     H151515   8.500   3.723   0.274
17091WAT     H251516   8.380   3.647   0.193
17092WAT      O51517   2.895   5.926   3.045
17092WAT     H151518   2.993   5.918   3.029
17092WAT     H251519   2.869   5.867   3.122
17093WAT      O51520   4.903   3.445   7.509
17093WAT     H151521   4.964   3.503   7.563
17093WAT     H251522   4.884   3.490   7.421
17094WAT      O51523   5.920   0.297   0.123
17094WAT     H151524   5.903   0.390   0.087
17094WAT     H251525   5.887   0.230   0.057
17095WAT      O51526   0.350   0.887   8.757
17095WAT     H151527   0.369   0.979   8.723
17095WAT     H251528   0.303   0.893   8.845
17096WAT      O51529   3.050   1.276   4.145
17096WAT     H151530   3.036   1.224   4.060
17096WAT     H251531   3.146   1.269   4.172
17097WAT      O51532   6.615   3.050   5.508
17097WAT     H151533   6.529   3.086   5.543
17097WAT     H251534   6.689   3.074   5.571
17098WAT      O51535   5.373   2.104   2.589
17098WAT     H151536   5.373   2.178   2.656
17098WAT     H251537   5.432   2.129   2.512
17099WAT      O51538   8.861   5.182   5.227
17099WAT     H151539   8.899   5.192   5.319
17099WAT     H251540   8.761   5.179   5.232
17100WAT      O51541   3.946   8.416   3.156
17100WAT     H151542   3.873   8.405   3.089
17100WAT     H251543   3.984   8.508   3.150
17101WAT      O51544   7.757   9.618   0.447
17101WAT     H151545   7.670   9.639   0.403
17101WAT     H251546   7.762   9.521   0.469
17102WAT      O51547   6.818   8.146   9.695
17102WAT     H151548   6.730   8.173   9.735
17102WAT     H251549   6.806   8.063   9.641
17103WAT      O51550   9.158   4.545   9.495
17103WAT     H151551   9.250   4.571   9.523
17103WAT     H251552   9.131   4.462   9.544
17104WAT      O51553   3.346   6.175   7.278
17104WAT     H151554   3.303   6.210   7.194
17104WAT     H251555   3.430   6.126   7.254
17105WAT      O51556   9.860   4.099   4.811
17105WAT     H151557   9.762   4.116   4.825
17105WAT     H251558   9.908   4.108   4.898
17106WAT      O51559   6.716   3.756   7.699
17106WAT     H151560   6.649   3.779   7.770
17106WAT     H251561   6.795   3.817   7.708
17107WAT      O51562   4.870   0.559   4.257
17107WAT     H151563   4.921   0.474   4.263
17107WAT     H251564   4.886   0.614   4.339
17108WAT      O51565   0.294   2.276   8.283
17108WAT     H151566   0.252   2.185   8.278
17108WAT     H251567   0.274   2.316   8.373
17109WAT      O51568   9.375   6.405   0.105
17109WAT     H151569   9.422   6.487   0.138
17109WAT     H251570   9.438   6.328   0.103
17110WAT      O51571   3.447   1.626   3.017
17110WAT     H151572   3.422   1.665   3.106
17110WAT     H251573   3.509   1.688   2.970
17111WAT      O51574   5.545   8.937   7.370
17111WAT     H151575   5.503   8.851   7.340
17111WAT     H251576   5.481   8.986   7.430
17112WAT      O51577   1.562   4.937   9.156
17112WAT     H151578   1.608   4.899   9.236
17112WAT     H251579   1.630   4.955   9.084
17113WAT      O51580   4.372   9.740   4.117
17113WAT     H151581   4.321   9.656   4.135
17113WAT     H251582   4.335   9.815   4.171
17114WAT      O51583   4.778   7.129   7.090
17114WAT     H151584   4.779   7.029   7.087
17114WAT     H251585   4.685   7.162   7.101
17115WAT      O51586   2.554   5.715   1.878
17115WAT     H151587   2.509   5.775   1.812
17115WAT     H251588   2.554   5.621   1.844
17116WAT      O51589   3.596   3.967   7.761
17116WAT     H151590   3.684   4.007   7.735
17116WAT     H251591   3.552   4.025   7.829
17117WAT      O51592   5.743   5.719   9.110
17117WAT     H151593   5.833   5.676   9.116
17117WAT     H251594   5.722   5.739   9.014
17118WAT      O51595   3.888   3.903   1.426
17118WAT     H151596   3.870   3.940   1.517
17118WAT     H251597   3.972   3.849   1.427
17119WAT      O51598   4.279   4.886   2.679
17119WAT     H151599   4.327   4.821   2.620
17119WAT     H251600   4.310   4.979   2.657
17120WAT      O51601   9.374   8.221   0.432
17120WAT     H151602   9.301   8.243   0.368
17120WAT     H251603   9.405   8.304   0.478
17121WAT      O51604   0.158   5.777   5.080
17121WAT     H151605   0.218   5.805   5.156
17121WAT     H251606   0.109   5.694   5.105
17122WAT      O51607   7.748   2.227   6.978
17122WAT     H151608   7.658   2.184   6.986
17122WAT     H251609   7.767   2.279   7.062
17123WAT      O51610   8.721   6.987   1.312
17123WAT     H151611   8.643   6.927   1.293
17123WAT     H251612   8.735   7.049   1.235
17124WAT      O51613   4.463   2.477   3.742
17124WAT     H151614   4.419   2.426   3.668
17124WAT     H251615   4.500   2.562   3.705
17125WAT      O51616   7.188   0.221   3.557
17125WAT     H151617   7.183   0.123   3.574
17125WAT     H251618   7.131   0.245   3.478
17126WAT      O51619   9.320   8.879   7.912
17126WAT     H151620   9.337   8.819   7.989
17126WAT     H251621   9.378   8.960   7.919
17127WAT      O51622   0.773   5.144   1.883
17127WAT     H151623   0.770   5.053   1.925
17127WAT     H251624   0.804   5.211   1.951
17128WAT      O51625   4.443   1.264   2.624
17128WAT     H151626   4.374   1.222   2.682
17128WAT     H251627   4.480   1.195   2.561
17129WAT      O51628   1.692   4.406   0.752
17129WAT     H151629   1.634   4.392   0.672
17129WAT     H251630   1.680   4.330   0.816
17130WAT      O51631   4.483   2.063   8.885
17130WAT     H151632   4.498   1.965   8.890
17130WAT     H251633   4.385   2.083   8.888
17131WAT      O51634   3.083   1.173   2.963
17131WAT     H151635   3.000   1.119   2.978
17131WAT     H251636   3.063   1.269   2.981
17132WAT      O51637   8.067   0.053   5.691
17132WAT     H151638   7.977   0.008   5.697
17132WAT     H251639   8.097   0.079   5.782
17133WAT      O51640   5.144   1.116   7.698
17133WAT     H151641   5.228   1.159   7.666
17133WAT     H251642   5.149   1.105   7.798
17134WAT      O51643   9.592   0.832   4.410
17134WAT     H151644   9.587   0.736   4.438
17134WAT     H251645   9.499   0.870   4.403
17135WAT      O51646  -0.000   5.730   0.803
17135WAT     H151647   0.087   5.769   0.831
17135WAT     H251648  -0.021   5.650   0.859
17136WAT      O51649   8.033   9.319   5.141
17136WAT     H151650   8.002   9.245   5.081
17136WAT     H251651   8.132   9.328   5.135
17137WAT      O51652   6.237   7.452   1.661
17137WAT     H151653   6.232   7.382   1.589
17137WAT     H251654   6.165   7.436   1.728
17138WAT      O51655   9.113   4.688   8.454
17138WAT     H151656   9.032   4.633   8.475
17138WAT     H251657   9.136   4.745   8.532
17139WAT      O51658   6.976   5.357   9.856
17139WAT     H151659   6.883   5.323   9.840
17139WAT     H251660   6.985   5.448   9.816
17140WAT      O51661   0.431   3.399   6.929
17140WAT     H151662   0.502   3.407   6.998
17140WAT     H251663   0.454   3.327   6.863
17141WAT      O51664   1.277   7.140   5.171
17141WAT     H151665   1.279   7.077   5.249
17141WAT     H251666   1.341   7.108   5.100
17142WAT      O51667   3.734   5.304   1.111
17142WAT     H151668   3.811   5.329   1.170
17142WAT     H251669   3.679   5.385   1.092
17143WAT      O51670   0.404   2.358   6.074
17143WAT     H151671   0.347   2.393   6.000
17143WAT     H251672   0.397   2.418   6.153
17144WAT      O51673   5.071   5.503   1.901
17144WAT     H151674   5.113   5.588   1.867
17144WAT     H251675   4.972   5.515   1.907
17145WAT      O51676   5.498   4.978   8.863
17145WAT     H151677   5.470   4.882   8.869
17145WAT     H251678   5.507   5.015   8.955
17146WAT      O51679   4.462   6.491   3.847
17146WAT     H151680   4.514   6.406   3.847
17146WAT     H251681   4.497   6.551   3.774
17147WAT      O51682   6.839   7.926   9.553
17147WAT     H151683   6.907   7.872   9.503
17147WAT     H251684   6.770   7.960   9.488
17148WAT      O51685   8.858   2.338   0.380
17148WAT     H151686   8.894   2.281   0.453
17148WAT     H251687   8.771   2.378   0.408
17149WAT      O51688   6.195   5.428   0.955
17149WAT     H151689   6.229   5.468   1.040
17149WAT     H251690   6.246   5.344   0.934
17150WAT      O51691   2.287   8.557   9.424
17150WAT     H151692   2.336   8.644   9.434
17150WAT     H251693   2.199   8.563   9.472
17151WAT      O51694   0.535   7.044   2.004
17151WAT     H151695   0.627   7.023   2.037
17151WAT     H251696   0.540   7.120   1.939
17152WAT      O51697   8.119   4.643   9.697
17152WAT     H151698   8.043   4.578   9.704
17152WAT     H251699   8.085   4.729   9.660
17153WAT      O51700   0.414   2.197   7.473
17153WAT     H151701   0.500   2.248   7.478
17153WAT     H251702   0.431   2.106   7.435
17154WAT      O51703   9.310   5.605   1.360
17154WAT     H151704   9.248   5.658   1.418
17154WAT     H251705   9.405   5.626   1.385
17155WAT      O51706   4.592   0.192   3.365
17155WAT     H151707   4.656   0.138   3.419
17155WAT     H251708   4.504   0.145   3.360
17156WAT      O51709   7.616   0.020   9.127
17156WAT     H151710   7.560   0.094   9.091
17156WAT     H251711   7.561  -0.064   9.132
17157WAT      O51712   0.551   3.130   7.283
17157WAT     H151713   0.544   3.151   7.186
17157WAT     H251714   0.525   3.210   7.336
17158WAT      O51715   0.483   0.689   0.073
17158WAT     H151716   0.463   0.667  -0.022
17158WAT     H251717   0.398   0.711   0.121
17159WAT      O51718   0.400   3.586   8.210
17159WAT     H151719   0.431   3.590   8.304
17159WAT     H251720   0.478   3.601   8.148
17160WAT      O51721   1.681   7.950   3.118
17160WAT     H151722   1.626   7.896   3.182
17160WAT     H251723   1.778   7.933   3.135
17161WAT      O51724   4.449   8.947   5.449
17161WAT     H151725   4.352   8.959   5.468
17161WAT     H251726   4.496   8.917   5.532
17162WAT      O51727   3.939   2.616   9.737
17162WAT     H151728   3.896   2.555   9.670
17162WAT     H251729   4.018   2.570   9.778
17163WAT      O51730   2.978   2.949   5.603
17163WAT     H151731   2.881   2.957   5.626
17163WAT     H251732   3.028   2.917   5.683
17164WAT      O51733   6.150   9.202   2.640
17164WAT     H151734   6.062   9.166   2.673
17164WAT     H251735   6.209   9.126   2.612
17165WAT      O51736   7.924   4.925   8.093
17165WAT     H151737   7.915   4.944   7.995
17165WAT     H251738   7.982   4.994   8.135
17166WAT      O51739   1.204   0.884   2.914
17166WAT     H151740   1.166   0.872   3.005
17166WAT     H251741   1.130   0.893   2.848
17167WAT      O51742   8.938   8.723   4.971
17167WAT     H151743   8.974   8.630   4.963
17167WAT     H251744   8.877   8.729   5.049
17168WAT      O51745   0.600   1.943   8.181
17168WAT     H151746   0.573   1.875   8.114
17168WAT     H251747   0.547   2.027   8.168
17169WAT      O51748   8.233   4.726   5.487
17169WAT     H151749   8.257   4.686   5.399
17169WAT     H251750   8.186   4.658   5.543
17170WAT      O51751   5.023   8.089   9.582
17170WAT     H151752   4.935   8.088   9.535
17170WAT     H251753   5.027   8.013   9.646
17171WAT      O51754   6.090   8.011   3.154
17171WAT     H151755   6.183   8.038   3.179
17171WAT     H251756   6.066   8.052   3.066
17172WAT      O51757   9.106   4.049   6.865
17172WAT     H151758   9.047   3.988   6.919
17172WAT     H251759   9.141   4.122   6.924
17173WAT      O51760   3.231   3.803   0.871
17173WAT     H151761   3.329   3.820   0.882
17173WAT     H251762   3.216   3.705   0.860
17174WAT      O51763   1.514   8.434   8.647
17174WAT     H151764   1.479   8.423   8.740
17174WAT     H251765   1.449   8.488   8.593
17175WAT      O51766   4.045   8.991   7.135
17175WAT     H151767   3.974   9.021   7.199
17175WAT     H251768   4.026   8.898   7.105
17176WAT      O51769   0.599   5.358   5.201
17176WAT     H151770   0.561   5.280   5.153
17176WAT     H251771   0.698   5.344   5.214
17177WAT      O51772   7.844   5.864   2.277
17177WAT     H151773   7.930   5.818   2.301
17177WAT     H251774   7.840   5.874   2.177
17178WAT      O51775   5.174   4.731   9.336
17178WAT     H151776   5.110   4.711   9.262
17178WAT     H251777   5.212   4.645   9.371
17179WAT      O51778   3.878   4.915   3.805
17179WAT     H151779   3.904   4.950   3.895
17179WAT     H251780   3.782   4.887   3.807
17180WAT      O51781   2.564   5.723   2.179
17180WAT     H151782   2.609   5.644   2.221
17180WAT     H251783   2.573   5.718   2.079
17181WAT      O51784   5.632   5.567   1.774
17181WAT     H151785   5.640   5.609   1.684
17181WAT     H251786   5.686   5.619   1.840
17182WAT      O51787   5.150   2.100   1.135
17182WAT     H151788   5.147   2.057   1.045
17182WAT     H251789   5.186   2.036   1.203
17183WAT      O51790   5.406   1.782   5.669
17183WAT     H151791   5.388   1.846   5.744
17183WAT     H251792   5.337   1.710   5.671
17184WAT      O51793   7.935   9.046   6.137
17184WAT     H151794   8.034   9.033   6.147
17184WAT     H251795   7.918   9.134   6.093
17185WAT      O51796   2.469   4.806   5.709
17185WAT     H151797   2.567   4.816   5.692
17185WAT     H251798   2.445   4.709   5.715
17186WAT      O51799   5.690   9.465   8.266
17186WAT     H151800   5.785   9.464   8.298
17186WAT     H251801   5.668   9.376   8.226
17187WAT      O51802   1.039   2.555   4.566
17187WAT     H151803   1.112   2.524   4.627
17187WAT     H251804   1.026   2.654   4.577
17188WAT      O51805   1.910   8.609   8.970
17188WAT     H151806   1.916   8.697   9.017
17188WAT     H251807   1.815   8.578   8.970
17189WAT      O51808   4.592   8.136   3.611
17189WAT     H151809   4.587   8.049   3.659
17189WAT     H251810   4.637   8.204   3.669
17190WAT      O51811   5.465   3.855   5.637
17190WAT     H151812   5.456   3.930   5.572
17190WAT     H251813   5.430   3.883   5.726
17191WAT      O51814   8.206   2.262   2.762
17191WAT     H151815   8.135   2.230   2.699
17191WAT     H251816   8.273   2.316   2.712
17192WAT      O51817   3.584   9.171   2.400
17192WAT     H151818   3.553   9.238   2.334
17192WAT     H251819   3.627   9.094   2.352
17193WAT      O51820   1.580   0.688   8.757
17193WAT     H151821   1.521   0.615   8.792
17193WAT     H251822   1.552   0.775   8.796
17194WAT      O51823   6.488   6.640   4.810
17194WAT     H151824   6.475   6.618   4.714
17194WAT     H251825   6.406   6.686   4.845
17195WAT      O51826   4.975   1.355   7.189
17195WAT     H151827   5.041   1.283   7.166
17195WAT     H251828   5.013   1.413   7.261
17196WAT      O51829   0.330   3.110   1.831
17196WAT     H151830   0.374   3.026   1.799
17196WAT     H251831   0.231   3.102   1.822
17197WAT      O51832   8.664   3.073   7.598
17197WAT     H151833   8.708   3.133   7.531
17197WAT     H251834   8.734   3.020   7.646
17198WAT      O51835   2.121   2.501   8.417
17198WAT     H151836   2.163   2.441   8.485
17198WAT     H251837   2.058   2.564   8.463
17199WAT      O51838   1.530   1.949   7.027
17199WAT     H151839   1.545   2.007   7.107
17199WAT     H251840   1.582   1.864   7.038
17200WAT      O51841   8.344   8.718   0.060
17200WAT     H151842   8.278   8.663   0.111
17200WAT     H251843   8.303   8.807   0.037
17201WAT      O51844   5.259   1.541   2.821
17201WAT     H151845   5.298   1.589   2.900
17201WAT     H251846   5.275   1.596   2.739
17202WAT      O51847   8.519   9.418   9.204
17202WAT     H151848   8.427   9.381   9.199
17202WAT     H251849   8.567   9.380   9.283
17203WAT      O51850   3.514   2.538   6.826
17203WAT     H151851   3.510   2.446   6.789
17203WAT     H251852   3.554   2.535   6.918
17204WAT      O51853   3.228   4.072   1.230
17204WAT     H151854   3.134   4.101   1.214
17204WAT     H251855   3.233   4.015   1.312
17205WAT      O51856   2.955   1.273   5.485
17205WAT     H151857   2.963   1.370   5.504
17205WAT     H251858   3.035   1.242   5.433
17206WAT      O51859   2.312   9.658   9.171
17206WAT     H151860   2.313   9.752   9.137
17206WAT     H251861   2.356   9.654   9.261
17207WAT      O51862   7.684   1.000   2.699
17207WAT     H151863   7.764   1.053   2.725
17207WAT     H251864   7.705   0.903   2.705
17208WAT      O51865   3.203   7.922   6.654
17208WAT     H151866   3.178   7.980   6.578
17208WAT     H251867   3.121   7.881   6.694
17209WAT      O51868   2.559   0.890   8.902
17209WAT     H151869   2.546   0.850   8.811
17209WAT     H251870   2.557   0.817   8.971
17210WAT      O51871   6.109   5.536   6.165
17210WAT     H151872   6.076   5.454   6.119
17210WAT     H251873   6.044   5.564   6.236
17211WAT      O51874   9.143   4.821   9.652
17211WAT     H151875   9.241   4.840   9.654
17211WAT     H251876   9.125   4.731   9.691
17212WAT      O51877   0.225   8.060   9.451
17212WAT     H151878   0.209   8.089   9.545
17212WAT     H251879   0.204   7.963   9.442
17213WAT      O51880   5.920   9.222   6.527
17213WAT     H151881   6.019   9.232   6.535
17213WAT     H251882   5.877   9.244   6.615
17214WAT      O51883   3.101   9.193   4.536
17214WAT     H151884   3.026   9.257   4.517
17214WAT     H251885   3.178   9.213   4.475
17215WAT      O51886   5.966   1.650   2.766
17215WAT     H151887   5.873   1.643   2.728
17215WAT     H251888   6.027   1.589   2.715
17216WAT      O51889   1.813   2.999   5.070
17216WAT     H151890   1.881   2.954   5.012
17216WAT     H251891   1.723   2.961   5.051
17217WAT      O51892   3.347   2.476   7.742
17217WAT     H151893   3.342   2.447   7.646
17217WAT     H251894   3.256   2.474   7.782
17218WAT      O51895   4.459   8.131   0.310
17218WAT     H151896   4.378   8.077   0.287
17218WAT     H251897   4.533   8.110   0.247
17219WAT      O51898   4.738   9.536   5.418
17219WAT     H151899   4.684   9.535   5.502
17219WAT     H251900   4.683   9.573   5.343
17220WAT      O51901   7.293   2.245   8.555
17220WAT     H151902   7.240   2.204   8.629
17220WAT     H251903   7.358   2.178   8.520
17221WAT      O51904   2.073   6.545   5.093
17221WAT     H151905   2.067   6.544   4.993
17221WAT     H251906   2.022   6.468   5.130
17222WAT      O51907   8.486   0.379   5.811
17222WAT     H151908   8.411   0.348   5.752
17222WAT     H251909   8.494   0.478   5.806
17223WAT      O51910   3.691   7.266   3.664
17223WAT     H151911   3.743   7.292   3.746
17223WAT     H251912   3.749   7.211   3.604
17224WAT      O51913   6.520   9.553   9.818
17224WAT     H151914   6.540   9.599   9.732
17224WAT     H251915   6.579   9.472   9.826
17225WAT      O51916   5.251   6.386   4.595
17225WAT     H151917   5.269   6.410   4.500
17225WAT     H251918   5.237   6.469   4.648
17226WAT      O51919   7.850   4.163   9.299
17226WAT     H151920   7.942   4.201   9.296
17226WAT     H251921   7.784   4.234   9.325
17227WAT      O51922   9.058   2.324   4.026
17227WAT     H151923   9.114   2.355   4.103
17227WAT     H251924   9.078   2.227   4.008
17228WAT      O51925   8.006   0.578   8.583
17228WAT     H151926   7.921   0.560   8.632
17228WAT     H251927   8.047   0.491   8.556
17229WAT      O51928   2.101   9.338   5.646
17229WAT     H151929   2.117   9.421   5.593
17229WAT     H251930   2.098   9.360   5.744
17230WAT      O51931   4.858   9.312   2.781
17230WAT     H151932   4.812   9.272   2.861
17230WAT     H251933   4.955   9.321   2.800
17231WAT      O51934   8.838   6.537   8.596
17231WAT     H151935   8.855   6.635   8.590
17231WAT     H251936   8.776   6.510   8.522
17232WAT      O51937   4.127   7.383   2.791
17232WAT     H151938   4.217   7.378   2.749
17232WAT     H251939   4.057   7.382   2.720
17233WAT      O51940   4.205   1.943   1.752
17233WAT     H151941   4.298   1.925   1.786
17233WAT     H251942   4.151   1.860   1.758
17234WAT      O51943   3.857   1.569   8.275
17234WAT     H151944   3.901   1.634   8.213
17234WAT     H251945   3.905   1.481   8.271
17235WAT      O51946   7.921   9.508   6.862
17235WAT     H151947   7.902   9.413   6.839
17235WAT     H251948   7.901   9.566   6.782
17236WAT      O51949   9.757   6.877   4.072
17236WAT     H151950   9.821   6.949   4.046
17236WAT     H251951   9.779   6.793   4.024
17237WAT      O51952   8.425   6.431   4.819
17237WAT     H151953   8.436   6.491   4.740
17237WAT     H251954   8.514   6.393   4.845
17238WAT      O51955   1.284   6.205   2.057
17238WAT     H151956   1.245   6.120   2.093
17238WAT     H251957   1.341   6.184   1.978
17239WAT      O51958   4.750   3.665   0.335
17239WAT     H151959   4.680   3.598   0.358
17239WAT     H251960   4.708   3.743   0.288
17240WAT      O51961   9.341   3.401   2.668
17240WAT     H151962   9.432   3.377   2.702
17240WAT     H251963   9.340   3.496   2.639
17241WAT      O51964   6.723   0.601   0.229
17241WAT     H151965   6.635   0.600   0.276
17241WAT     H251966   6.725   0.529   0.160
17242WAT      O51967   9.412   0.254   2.757
17242WAT     H151968   9.351   0.318   2.711
17242WAT     H251969   9.377   0.234   2.848
17243WAT      O51970   0.026   7.669   1.232
17243WAT     H151971  -0.008   7.706   1.146
17243WAT     H251972  -0.049   7.659   1.297
17244WAT      O51973   0.258   5.757   0.870
17244WAT     H151974   0.299   5.685   0.813
17244WAT     H251975   0.305   5.843   0.853
17245WAT      O51976   1.300   9.568   9.304
17245WAT     H151977   1.228   9.545   9.370
17245WAT     H251978   1.349   9.484   9.278
17246WAT      O51979   0.629   2.599   4.603
17246WAT     H151980   0.563   2.532   4.636
17246WAT     H251981   0.722   2.562   4.612
17247WAT      O51982   1.085   8.611   8.951
17247WAT     H151983   1.047   8.634   8.862
17247WAT     H251984   1.184   8.623   8.950
17248WAT      O51985   4.963   6.697   6.581
17248WAT     H151986   4.894   6.718   6.651
17248WAT     H251987   5.011   6.781   6.556
17249WAT      O51988   2.766   3.849   2.433
17249WAT     H151989   2.866   3.855   2.433
17249WAT     H251990   2.734   3.825   2.341
17250WAT      O51991   6.323   9.685   4.674
17250WAT     H151992   6.305   9.643   4.586
17250WAT     H251993   6.393   9.632   4.723
17251WAT      O51994   6.753   7.157   3.296
17251WAT     H151995   6.676   7.095   3.301
17251WAT     H251996   6.803   7.156   3.383
17252WAT      O51997   8.674   3.742   7.332
17252WAT     H151998   8.732   3.801   7.277
17252WAT     H251999   8.730   3.677   7.382
17253WAT      O52000   2.475   4.169   2.577
17253WAT     H152001   2.449   4.081   2.615
17253WAT     H252002   2.478   4.162   2.477
17254WAT      O52003   1.088   2.737   6.001
17254WAT     H152004   1.084   2.739   5.901
17254WAT     H252005   1.164   2.678   6.029
17255WAT      O52006   4.180   8.913   2.008
17255WAT     H152007   4.180   8.831   1.950
17255WAT     H252008   4.254   8.975   1.979
17256WAT      O52009   8.908   9.702   0.197
17256WAT     H152010   8.978   9.659   0.141
17256WAT     H252011   8.817   9.677   0.162
17257WAT      O52012   6.609   8.472   6.801
17257WAT     H152013   6.560   8.535   6.861
17257WAT     H252014   6.685   8.519   6.757
17258WAT      O52015   6.434   4.228   8.846
17258WAT     H152016   6.378   4.146   8.830
17258WAT     H252017   6.515   4.225   8.787
17259WAT      O52018   9.756   6.019   3.700
17259WAT     H152019   9.720   6.107   3.731
17259WAT     H252020   9.794   6.029   3.608
17260WAT      O52021   3.114   0.141   2.288
17260WAT     H152022   3.163   0.082   2.352
17260WAT     H252023   3.168   0.223   2.270
17261WAT      O52024   2.238   1.927   5.421
17261WAT     H152025   2.168   1.859   5.443
17261WAT     H252026   2.326   1.897   5.459
17262WAT      O52027   5.224   6.473   9.217
17262WAT     H152028   5.209   6.382   9.254
17262WAT     H252029   5.145   6.531   9.236
17263WAT      O52030   0.384   4.803   4.871
17263WAT     H152031   0.290   4.767   4.872
17263WAT     H252032   0.410   4.825   4.778
17264WAT      O52033   8.406   6.261   7.998
17264WAT     H152034   8.476   6.200   8.033
17264WAT     H252035   8.357   6.217   7.922
17265WAT      O52036   4.242   6.628   7.322
17265WAT     H152037   4.318   6.574   7.287
17265WAT     H252038   4.222   6.702   7.258
17266WAT      O52039   0.776   0.862   3.233
17266WAT     H152040   0.700   0.897   3.178
17266WAT     H252041   0.778   0.763   3.226
17267WAT      O52042   0.148   3.705   4.626
17267WAT     H152043   0.155   3.719   4.527
17267WAT     H252044   0.111   3.614   4.644
17268WAT      O52045   0.713   4.277   3.165
17268WAT     H152046   0.760   4.279   3.077
17268WAT     H252047   0.669   4.188   3.178
17269WAT      O52048   8.055   4.103   8.935
17269WAT     H152049   7.996   4.045   8.878
17269WAT     H252050   8.113   4.044   8.992
17270WAT      O52051   4.746   8.652   9.390
17270WAT     H152052   4.843   8.629   9.398
17270WAT     H252053   4.705   8.658   9.481
17271WAT      O52054   5.617   6.079   4.691
17271WAT     H152055   5.619   6.157   4.754
17271WAT     H252056   5.688   6.014   4.716
17272WAT      O52057   6.846   9.143   5.806
17272WAT     H152058   6.834   9.139   5.707
17272WAT     H252059   6.881   9.232   5.832
17273WAT      O52060   6.063   8.025   7.319
17273WAT     H152061   5.983   8.038   7.260
17273WAT     H252062   6.109   7.939   7.295
17274WAT      O52063   3.297   7.017   5.437
17274WAT     H152064   3.285   7.108   5.397
17274WAT     H252065   3.305   6.949   5.364
17275WAT      O52066   3.720   3.130   6.293
17275WAT     H152067   3.764   3.166   6.211
17275WAT     H252068   3.718   3.201   6.364
17276WAT      O52069   4.992   2.249   2.458
17276WAT     H152070   4.945   2.310   2.395
17276WAT     H252071   5.056   2.302   2.514
17277WAT      O52072   7.297   6.441   3.144
17277WAT     H152073   7.371   6.374   3.132
17277WAT     H252074   7.235   6.437   3.066
17278WAT      O52075   1.251   4.718   6.700
17278WAT     H152076   1.196   4.681   6.626
17278WAT     H252077   1.335   4.665   6.708
17279WAT      O52078   1.935   1.397   0.075
17279WAT     H152079   1.849   1.347   0.088
17279WAT     H252080   1.965   1.436   0.162
17280WAT      O52081   1.945   8.037   6.426
17280WAT     H152082   1.912   7.974   6.355
17280WAT     H252083   1.893   8.122   6.422
17281WAT      O52084   8.202   6.470   7.989
17281WAT     H152085   8.295   6.433   7.991
17281WAT     H252086   8.204   6.561   7.947
17282WAT      O52087   5.225   1.462   7.657
17282WAT     H152088   5.259   1.548   7.696
17282WAT     H252089   5.303   1.403   7.635
17283WAT      O52090   2.916   0.638   5.411
17283WAT     H152091   2.915   0.655   5.313
17283WAT     H252092   2.972   0.708   5.457
17284WAT      O52093   2.470   0.543   2.053
17284WAT     H152094   2.482   0.590   2.140
17284WAT     H252095   2.374   0.550   2.024
17285WAT      O52096   6.899   2.380   5.603
17285WAT     H152097   6.930   2.304   5.660
17285WAT     H252098   6.802   2.398   5.621
17286WAT      O52099   5.891   4.652   7.257
17286WAT     H152100   5.860   4.733   7.305
17286WAT     H252101   5.991   4.656   7.246
17287WAT      O52102   8.647   2.863   3.247
17287WAT     H152103   8.586   2.810   3.188
17287WAT     H252104   8.707   2.920   3.191
17288WAT      O52105   7.597   2.761   5.280
17288WAT     H152106   7.648   2.840   5.247
17288WAT     H252107   7.577   2.773   5.377
17289WAT      O52108   6.803   2.713   8.977
17289WAT     H152109   6.706   2.705   8.996
17289WAT     H252110   6.854   2.648   9.034
17290WAT      O52111   7.246   2.231   1.258
17290WAT     H152112   7.190   2.215   1.177
17290WAT     H252113   7.187   2.235   1.339
17291WAT      O52114   4.481   3.399   2.545
17291WAT     H152115   4.388   3.402   2.581
17291WAT     H252116   4.533   3.328   2.593
17292WAT      O52117   5.437   0.230   1.149
17292WAT     H152118   5.381   0.148   1.159
17292WAT     H252119   5.529   0.213   1.185
17293WAT      O52120   6.841   5.536   8.376
17293WAT     H152121   6.865   5.562   8.282
17293WAT     H252122   6.904   5.465   8.408
17294WAT      O52123   0.526   6.647   6.154
17294WAT     H152124   0.590   6.632   6.230
17294WAT     H252125   0.477   6.562   6.135
17295WAT      O52126   6.230   8.021   9.652
17295WAT     H152127   6.272   8.111   9.646
17295WAT     H252128   6.300   7.951   9.642
17296WAT      O52129   6.864   7.595   1.777
17296WAT     H152130   6.791   7.544   1.821
17296WAT     H252131   6.934   7.617   1.845
17297WAT      O52132   0.015   4.874   3.668
17297WAT     H152133   0.016   4.966   3.708
17297WAT     H252134  -0.077   4.835   3.675
17298WAT      O52135   6.185   1.243   4.751
17298WAT     H152136   6.106   1.302   4.763
17298WAT     H252137   6.246   1.281   4.682
17299WAT      O52138   1.435   8.966   9.502
17299WAT     H152139   1.377   8.885   9.503
17299WAT     H252140   1.467   8.985   9.595
17300WAT      O52141   2.336   5.362   9.235
17300WAT     H152142   2.342   5.394   9.330
17300WAT     H252143   2.403   5.288   9.221
17301WAT      O52144   1.318   8.378   9.697
17301WAT     H152145   1.234   8.433   9.699
17301WAT     H252146   1.328   8.337   9.606
17302WAT      O52147   5.121   2.186   7.418
17302WAT     H152148   5.128   2.102   7.364
17302WAT     H252149   5.177   2.257   7.376
17303WAT      O52150   2.636   8.289   4.660
17303WAT     H152151   2.611   8.380   4.626
17303WAT     H252152   2.711   8.298   4.725
17304WAT      O52153   8.355   7.996   1.073
17304WAT     H152154   8.298   8.078   1.075
17304WAT     H252155   8.431   8.009   1.009
17305WAT      O52156   3.598   8.871   9.543
17305WAT     H152157   3.511   8.830   9.573
17305WAT     H252158   3.602   8.966   9.575
17306WAT      O52159   1.747   5.568   0.525
17306WAT     H152160   1.758   5.638   0.454
17306WAT     H252161   1.759   5.609   0.615
17307WAT      O52162   5.075   3.515   7.083
17307WAT     H152163   5.121   3.604   7.083
17307WAT     H252164   5.036   3.498   6.993
17308WAT      O52165   7.814   3.303   6.669
17308WAT     H152166   7.739   3.239   6.655
17308WAT     H252167   7.818   3.329   6.765
17309WAT      O52168   2.890   0.665   7.218
17309WAT     H152169   2.872   0.593   7.286
17309WAT     H252170   2.826   0.655   7.142
17310WAT      O52171   3.480   1.718   8.016
17310WAT     H152172   3.523   1.678   7.935
17310WAT     H252173   3.412   1.785   7.988
17311WAT      O52174   1.227   1.570   0.093
17311WAT     H152175   1.311   1.601   0.049
17311WAT     H252176   1.199   1.637   0.162
17312WAT      O52177   5.101   6.648   1.459
17312WAT     H152178   5.060   6.559   1.440
17312WAT     H252179   5.077   6.712   1.386
17313WAT      O52180   5.680   3.234   2.439
17313WAT     H152181   5.692   3.135   2.433
17313WAT     H252182   5.641   3.268   2.353
17314WAT      O52183   5.483   8.225   5.370
17314WAT     H152184   5.551   8.246   5.440
17314WAT     H252185   5.468   8.305   5.312
17315WAT      O52186   7.015   7.400   3.846
17315WAT     H152187   6.974   7.396   3.755
17315WAT     H252188   7.014   7.494   3.879
17316WAT      O52189   4.014   4.218   7.404
17316WAT     H152190   4.085   4.286   7.421
17316WAT     H252191   3.924   4.257   7.423
17317WAT      O52192   3.053   1.070   6.511
17317WAT     H152193   3.030   1.166   6.530
17317WAT     H252194   2.975   1.012   6.534
17318WAT      O52195   1.763   8.761   4.030
17318WAT     H152196   1.731   8.856   4.029
17318WAT     H252197   1.785   8.732   3.937
17319WAT      O52198   3.074   8.640   0.382
17319WAT     H152199   3.144   8.569   0.395
17319WAT     H252200   2.988   8.597   0.357
17320WAT      O52201   8.365   7.585   6.486
17320WAT     H152202   8.393   7.502   6.437
17320WAT     H252203   8.442   7.617   6.542
17321WAT      O52204   8.790   0.750   9.475
17321WAT     H152205   8.835   0.740   9.564
17321WAT     H252206   8.813   0.673   9.416
17322WAT      O52207   8.198   6.591   8.780
17322WAT     H152208   8.267   6.562   8.847
17322WAT     H252209   8.119   6.628   8.828
17323WAT      O52210   5.946   4.803   2.717
17323WAT     H152211   5.950   4.892   2.764
17323WAT     H252212   5.951   4.817   2.619
17324WAT      O52213   1.241   9.401   0.639
17324WAT     H152214   1.262   9.308   0.610
17324WAT     H252215   1.196   9.450   0.565
17325WAT      O52216   2.733   4.370   6.223
17325WAT     H152217   2.760   4.465   6.236
17325WAT     H252218   2.634   4.364   6.216
17326WAT      O52219   1.220   2.035   2.798
17326WAT     H152220   1.142   2.095   2.780
17326WAT     H252221   1.296   2.089   2.834
17327WAT      O52222   3.682   6.831   7.259
17327WAT     H152223   3.765   6.806   7.310
17327WAT     H252224   3.606   6.773   7.290
17328WAT      O52225   1.212   4.187   6.129
17328WAT     H152226   1.295   4.199   6.183
17328WAT     H252227   1.227   4.118   6.058
17329WAT      O52228   0.643   9.123   4.392
17329WAT     H152229   0.719   9.186   4.406
17329WAT     H252230   0.612   9.130   4.297
17330WAT      O52231   8.732   3.703   4.416
17330WAT     H152232   8.731   3.664   4.324
17330WAT     H252233   8.773   3.639   4.480
17331WAT      O52234   8.719   5.667   1.549
17331WAT     H152235   8.707   5.607   1.628
17331WAT     H252236   8.677   5.625   1.469
17332WAT      O52237   0.824   9.209   6.368
17332WAT     H152238   0.746   9.209   6.430
17332WAT     H252239   0.833   9.119   6.325
17333WAT      O52240   4.609   0.752   4.775
17333WAT     H152241   4.701   0.712   4.771
17333WAT     H252242   4.554   0.701   4.841
17334WAT      O52243   9.053   5.959   5.975
17334WAT     H152244   9.105   5.962   6.060
17334WAT     H252245   9.074   5.875   5.925
17335WAT      O52246   1.259   3.206   4.452
17335WAT     H152247   1.355   3.231   4.444
17335WAT     H252248   1.235   3.140   4.381
17336WAT      O52249   6.636   3.857   6.912
17336WAT     H152250   6.627   3.776   6.969
17336WAT     H252251   6.709   3.915   6.948
17337WAT      O52252   0.273   4.907   0.838
17337WAT     H152253   0.287   4.808   0.833
17337WAT     H252254   0.327   4.944   0.913
17338WAT      O52255   6.237   9.485   3.151
17338WAT     H152256   6.151   9.449   3.187
17338WAT     H252257   6.275   9.419   3.086
17339WAT      O52258   7.098   6.184   3.807
17339WAT     H152259   7.104   6.248   3.731
17339WAT     H252260   7.155   6.104   3.788
17340WAT      O52261   6.043   8.818   8.286
17340WAT     H152262   5.984   8.768   8.349
17340WAT     H252263   6.050   8.768   8.199
17341WAT      O52264   0.408   0.392   8.758
17341WAT     H152265   0.470   0.392   8.837
17341WAT     H252266   0.357   0.478   8.756
17342WAT      O52267   7.599   0.982   7.675
17342WAT     H152268   7.618   1.010   7.769
17342WAT     H252269   7.606   0.883   7.667
17343WAT      O52270   1.240   6.374   1.706
17343WAT     H152271   1.175   6.387   1.781
17343WAT     H252272   1.199   6.313   1.637
17344WAT      O52273   7.875   6.897   2.745
17344WAT     H152274   7.794   6.839   2.749
17344WAT     H252275   7.929   6.885   2.829
17345WAT      O52276   4.862   8.093   8.534
17345WAT     H152277   4.924   8.171   8.540
17345WAT     H252278   4.915   8.009   8.517
17346WAT      O52279   2.656   9.796   0.574
17346WAT     H152280   2.697   9.849   0.648
17346WAT     H252281   2.556   9.804   0.579
17347WAT      O52282   8.670   6.285   3.391
17347WAT     H152283   8.690   6.377   3.358
17347WAT     H252284   8.680   6.220   3.316
17348WAT      O52285   2.502   7.588   6.098
17348WAT     H152286   2.588   7.613   6.053
17348WAT     H252287   2.468   7.503   6.057
17349WAT      O52288   1.272   5.867   0.634
17349WAT     H152289   1.209   5.828   0.702
17349WAT     H252290   1.221   5.926   0.571
17350WAT      O52291   1.690   5.774   5.542
17350WAT     H152292   1.661   5.780   5.447
17350WAT     H252293   1.656   5.853   5.593
17351WAT      O52294   3.081   4.699   1.772
17351WAT     H152295   3.076   4.786   1.724
17351WAT     H252296   3.153   4.643   1.732
17352WAT      O52297   8.790   4.574   0.770
17352WAT     H152298   8.829   4.593   0.859
17352WAT     H252299   8.747   4.656   0.734
17353WAT      O52300   5.097   3.216   1.609
17353WAT     H152301   5.000   3.196   1.592
17353WAT     H252302   5.104   3.274   1.690
17354WAT      O52303   3.658   1.375   3.965
17354WAT     H152304   3.687   1.280   3.959
17354WAT     H252305   3.620   1.404   3.878
17355WAT      O52306   6.746   4.631   5.198
17355WAT     H152307   6.842   4.623   5.173
17355WAT     H252308   6.739   4.653   5.295
17356WAT      O52309   1.417   1.756   9.618
17356WAT     H152310   1.322   1.730   9.601
17356WAT     H252311   1.478   1.691   9.573
17357WAT      O52312   8.938   7.627   2.353
17357WAT     H152313   8.845   7.661   2.339
17357WAT     H252314   8.981   7.608   2.264
17358WAT      O52315   2.073   1.375   3.195
17358WAT     H152316   2.079   1.423   3.107
17358WAT     H252317   2.163   1.339   3.219
17359WAT      O52318   6.765   5.775   0.711
17359WAT     H152319   6.737   5.680   0.728
17359WAT     H252320   6.865   5.779   0.702
17360WAT      O52321   6.726   8.045   2.598
17360WAT     H152322   6.796   8.056   2.527
17360WAT     H252323   6.770   8.033   2.687
17361WAT      O52324   3.852   7.615   9.665
17361WAT     H152325   3.834   7.516   9.673
17361WAT     H252326   3.776   7.665   9.707
17362WAT      O52327   3.005   1.304   0.548
17362WAT     H152328   3.016   1.213   0.588
17362WAT     H252329   2.964   1.365   0.615
17363WAT      O52330   8.626   6.281   4.611
17363WAT     H152331   8.622   6.355   4.544
17363WAT     H252332   8.653   6.318   4.701
17364WAT      O52333   3.559   1.928   0.876
17364WAT     H152334   3.598   1.843   0.840
17364WAT     H252335   3.599   1.947   0.966
17365WAT      O52336   6.440   5.095   0.142
17365WAT     H152337   6.432   5.004   0.183
17365WAT     H252338   6.402   5.163   0.204
17366WAT      O52339   7.349   8.997   6.391
17366WAT     H152340   7.290   9.010   6.471
17366WAT     H252341   7.313   8.921   6.336
17367WAT      O52342   6.041   0.829   7.315
17367WAT     H152343   6.066   0.852   7.409
17367WAT     H252344   5.958   0.879   7.289
17368WAT      O52345   1.976   2.238   6.964
17368WAT     H152346   2.019   2.264   6.878
17368WAT     H252347   2.037   2.261   7.040
17369WAT      O52348   1.388   5.537   1.036
17369WAT     H152349   1.370   5.533   1.134
17369WAT     H252350   1.476   5.494   1.016
17370WAT      O52351   5.655   7.977   6.289
17370WAT     H152352   5.753   7.956   6.287
17370WAT     H252353   5.608   7.905   6.340
17371WAT      O52354   1.297   9.756   0.632
17371WAT     H152355   1.230   9.745   0.705
17371WAT     H252356   1.381   9.796   0.670
17372WAT      O52357   6.377   2.416   9.110
17372WAT     H152358   6.282   2.447   9.112
17372WAT     H252359   6.383   2.325   9.152
17373WAT      O52360   9.544   0.080   1.106
17373WAT     H152361   9.596   0.075   1.020
17373WAT     H252362   9.595   0.035   1.178
17374WAT      O52363   8.112   3.116   7.023
17374WAT     H152364   8.013   3.113   7.016
17374WAT     H252365   8.150   3.026   7.002
17375WAT      O52366   6.987   8.205   3.610
17375WAT     H152367   6.925   8.278   3.581
17375WAT     H252368   7.064   8.199   3.547
17376WAT      O52369   7.896   1.911   2.100
17376WAT     H152370   7.975   1.849   2.101
17376WAT     H252371   7.842   1.894   2.017
17377WAT      O52372   6.269   3.198   8.877
17377WAT     H152373   6.187   3.140   8.881
17377WAT     H252374   6.348   3.142   8.855
17378WAT      O52375   8.387   6.235   6.194
17378WAT     H152376   8.472   6.184   6.178
17378WAT     H252377   8.312   6.172   6.213
17379WAT      O52378   9.616   4.910   8.848
17379WAT     H152379   9.601   5.008   8.844
17379WAT     H252380   9.651   4.885   8.938
17380WAT      O52381   7.472   3.163   7.045
17380WAT     H152382   7.375   3.167   7.021
17380WAT     H252383   7.513   3.082   7.004
17381WAT      O52384   4.635   7.207   6.035
17381WAT     H152385   4.605   7.301   6.048
17381WAT     H252386   4.581   7.164   5.962
17382WAT      O52387   2.983   1.255   3.309
17382WAT     H152388   2.929   1.297   3.383
17382WAT     H252389   2.931   1.260   3.224
17383WAT      O52390   8.437   4.486   1.666
17383WAT     H152391   8.346   4.479   1.625
17383WAT     H252392   8.447   4.414   1.735
17384WAT      O52393   4.203   0.730   8.980
17384WAT     H152394   4.208   0.648   8.922
17384WAT     H252395   4.166   0.705   9.070
17385WAT      O52396   3.730   3.683   5.410
17385WAT     H152397   3.778   3.674   5.497
17385WAT     H252398   3.665   3.607   5.400
17386WAT      O52399   2.201   8.874   5.611
17386WAT     H152400   2.143   8.802   5.574
17386WAT     H252401   2.220   8.854   5.707
17387WAT      O52402   1.717   2.083   6.796
17387WAT     H152403   1.620   2.082   6.770
17387WAT     H252404   1.724   2.094   6.896
17388WAT      O52405   1.554   1.328   8.423
17388WAT     H152406   1.554   1.427   8.407
17388WAT     H252407   1.467   1.302   8.464
17389WAT      O52408   9.844   5.057   6.711
17389WAT     H152409   9.780   5.088   6.641
17389WAT     H252410   9.937   5.063   6.677
17390WAT      O52411   4.671   0.338   6.233
17390WAT     H152412   4.677   0.437   6.229
17390WAT     H252413   4.602   0.311   6.301
17391WAT      O52414   1.220   0.880   7.094
17391WAT     H152415   1.274   0.870   7.010
17391WAT     H252416   1.128   0.844   7.078
17392WAT      O52417   5.008   7.758   8.262
17392WAT     H152418   5.102   7.780   8.238
17392WAT     H252419   4.975   7.682   8.206
17393WAT      O52420   4.716   8.605   5.949
17393WAT     H152421   4.816   8.599   5.956
17393WAT     H252422   4.684   8.546   5.875
17394WAT      O52423   7.063   8.075   7.380
17394WAT     H152424   7.040   8.165   7.345
17394WAT     H252425   7.162   8.069   7.393
17395WAT      O52426   4.710   2.906   6.249
17395WAT     H152427   4.614   2.917   6.273
17395WAT     H252428   4.745   2.993   6.214
17396WAT      O52429   6.469   4.160   6.057
17396WAT     H152430   6.386   4.198   6.098
17396WAT     H252431   6.515   4.101   6.124
17397WAT      O52432   7.188   3.044   0.329
17397WAT     H152433   7.267   3.106   0.329
17397WAT     H252434   7.214   2.956   0.369
17398WAT      O52435   2.679   9.637   4.260
17398WAT     H152436   2.726   9.551   4.244
17398WAT     H252437   2.743   9.713   4.249
17399WAT      O52438   2.237   9.365   0.928
17399WAT     H152439   2.178   9.316   0.864
17399WAT     H252440   2.263   9.305   1.003
17400WAT      O52441   1.993   6.290   3.128
17400WAT     H152442   2.002   6.332   3.037
17400WAT     H252443   2.029   6.197   3.125
17401WAT      O52444   3.983   6.203   9.653
17401WAT     H152445   4.037   6.264   9.595
17401WAT     H252446   3.925   6.146   9.595
17402WAT      O52447   5.771   7.165   7.610
17402WAT     H152448   5.681   7.198   7.639
17402WAT     H252449   5.771   7.066   7.606
17403WAT      O52450   8.855   5.165   8.573
17403WAT     H152451   8.783   5.099   8.596
17403WAT     H252452   8.916   5.176   8.651
17404WAT      O52453   2.527   6.304   7.070
17404WAT     H152454   2.598   6.273   7.133
17404WAT     H252455   2.462   6.363   7.118
17405WAT      O52456   4.692   7.679   4.179
17405WAT     H152457   4.754   7.715   4.248
17405WAT     H252458   4.598   7.688   4.212
17406WAT      O52459   0.331   0.012   0.501
17406WAT     H152460   0.326  -0.041   0.586
17406WAT     H252461   0.242   0.055   0.483
17407WAT      O52462   0.138   8.365   8.685
17407WAT     H152463   0.137   8.446   8.744
17407WAT     H252464   0.201   8.297   8.723
17408WAT      O52465   7.323   2.497   2.875
17408WAT     H152466   7.278   2.555   2.943
17408WAT     H252467   7.338   2.406   2.913
17409WAT      O52468   0.074   0.622   1.457
17409WAT     H152469   0.105   0.529   1.438
17409WAT     H252470   0.019   0.655   1.380
17410WAT      O52471   6.394   2.302   0.305
17410WAT     H152472   6.402   2.271   0.210
17410WAT     H252473   6.339   2.237   0.357
17411WAT      O52474   5.444   1.646   9.779
17411WAT     H152475   5.440   1.707   9.700
17411WAT     H252476   5.517   1.579   9.765
17412WAT      O52477   3.358   9.274   7.297
17412WAT     H152478   3.266   9.278   7.335
17412WAT     H252479   3.355   9.236   7.205
17413WAT      O52480   2.562   1.360   7.242
17413WAT     H152481   2.548   1.457   7.264
17413WAT     H252482   2.513   1.304   7.308
17414WAT      O52483   4.422   1.819   3.349
17414WAT     H152484   4.487   1.743   3.347
17414WAT     H252485   4.354   1.806   3.277
17415WAT      O52486   5.823   7.589   8.746
17415WAT     H152487   5.884   7.639   8.683
17415WAT     H252488   5.877   7.551   8.821
17416WAT      O52489   9.272   3.593   5.978
17416WAT     H152490   9.321   3.507   5.964
17416WAT     H252491   9.185   3.590   5.929
17417WAT      O52492   6.397   1.042   6.353
17417WAT     H152493   6.301   1.026   6.375
17417WAT     H252494   6.405   1.064   6.256
17418WAT      O52495   3.081   6.696   9.684
17418WAT     H152496   3.093   6.783   9.636
17418WAT     H252497   3.146   6.690   9.759
17419WAT      O52498   8.648   9.057   3.695
17419WAT     H152499   8.701   9.127   3.742
17419WAT     H252500   8.680   9.048   3.600
17420WAT      O52501   4.756   2.171   4.581
17420WAT     H152502   4.689   2.231   4.538
17420WAT     H252503   4.746   2.078   4.546
17421WAT      O52504   6.270   6.739   1.874
17421WAT     H152505   6.368   6.718   1.876
17421WAT     H252506   6.223   6.683   1.943
17422WAT      O52507   6.186   8.465   0.827
17422WAT     H152508   6.177   8.561   0.852
17422WAT     H252509   6.209   8.411   0.909
17423WAT      O52510   6.290   0.439   3.342
17423WAT     H152511   6.348   0.521   3.343
17423WAT     H252512   6.305   0.387   3.427
17424WAT      O52513   8.773   5.903   8.693
17424WAT     H152514   8.766   5.856   8.781
17424WAT     H252515   8.686   5.897   8.644
17425WAT      O52516   8.636   0.530   8.353
17425WAT     H152517   8.605   0.604   8.413
17425WAT     H252518   8.730   0.507   8.375
17426WAT      O52519   7.614   9.295   7.235
17426WAT     H152520   7.621   9.315   7.332
17426WAT     H252521   7.576   9.374   7.187
17427WAT      O52522   0.429   7.719   2.429
17427WAT     H152523   0.490   7.663   2.485
17427WAT     H252524   0.408   7.670   2.344
17428WAT      O52525   7.692   9.439   1.733
17428WAT     H152526   7.705   9.418   1.830
17428WAT     H252527   7.740   9.524   1.711
17429WAT      O52528   2.415   1.806   7.853
17429WAT     H152529   2.380   1.792   7.946
17429WAT     H252530   2.397   1.724   7.798
17430WAT      O52531   8.409   4.173   1.322
17430WAT     H152532   8.501   4.179   1.362
17430WAT     H252533   8.349   4.241   1.364
17431WAT      O52534   8.294   7.505   9.109
17431WAT     H152535   8.247   7.431   9.062
17431WAT     H252536   8.363   7.467   9.171
17432WAT      O52537   6.045   5.182   6.975
17432WAT     H152538   6.140   5.154   6.989
17432WAT     H252539   5.985   5.102   6.985
17433WAT      O52540   9.078   2.640   5.547
17433WAT     H152541   9.052   2.553   5.505
17433WAT     H252542   9.144   2.687   5.488
17434WAT      O52543   8.581   5.375   7.847
17434WAT     H152544   8.656   5.319   7.882
17434WAT     H252545   8.612   5.469   7.835
17435WAT      O52546   2.255   8.576   5.633
17435WAT     H152547   2.159   8.554   5.647
17435WAT     H252548   2.306   8.493   5.612
17436WAT      O52549   6.741   4.351   3.246
17436WAT     H152550   6.795   4.369   3.328
17436WAT     H252551   6.738   4.253   3.228
17437WAT      O52552   6.418   0.326   7.778
17437WAT     H152553   6.452   0.283   7.694
17437WAT     H252554   6.472   0.295   7.856
17438WAT      O52555   2.816   6.197   9.242
17438WAT     H152556   2.864   6.110   9.253
17438WAT     H252557   2.882   6.271   9.230
17439WAT      O52558   8.479   0.416   1.623
17439WAT     H152559   8.398   0.411   1.683
17439WAT     H252560   8.470   0.348   1.551
17440WAT      O52561   3.346   3.431   2.550
17440WAT     H152562   3.273   3.365   2.566
17440WAT     H252563   3.378   3.468   2.637
17441WAT      O52564   4.904   2.514   8.857
17441WAT     H152565   4.857   2.603   8.854
17441WAT     H252566   4.861   2.452   8.792
17442WAT      O52567   2.123   8.704   4.410
17442WAT     H152568   2.099   8.660   4.323
17442WAT     H252569   2.097   8.800   4.407
17443WAT      O52570   5.654   0.046   9.743
17443WAT     H152571   5.670  -0.001   9.655
17443WAT     H252572   5.741   0.064   9.787
17444WAT      O52573   2.274   1.431   6.702
17444WAT     H152574   2.355   1.465   6.749
17444WAT     H252575   2.195   1.487   6.724
17445WAT      O52576   8.420   8.266   5.183
17445WAT     H152577   8.411   8.245   5.280
17445WAT     H252578   8.363   8.204   5.129
17446WAT      O52579   7.440   7.728   4.852
17446WAT     H152580   7.465   7.729   4.949
17446WAT     H252581   7.518   7.695   4.798
17447WAT      O52582   9.582   1.447   7.788
17447WAT     H152583   9.521   1.486   7.857
17447WAT     H252584   9.656   1.397   7.834
17448WAT      O52585   1.758   0.674   2.048
17448WAT     H152586   1.682   0.710   1.994
17448WAT     H252587   1.843   0.718   2.018
17449WAT      O52588   4.356   9.764   0.666
17449WAT     H152589   4.454   9.749   0.676
17449WAT     H252590   4.307   9.708   0.732
17450WAT      O52591   5.034   6.973   4.945
17450WAT     H152592   5.022   7.073   4.940
17450WAT     H252593   4.952   6.931   4.984
17451WAT      O52594   2.933   7.756   9.090
17451WAT     H152595   2.936   7.700   9.007
17451WAT     H252596   2.883   7.841   9.072
17452WAT      O52597   9.300   0.953   8.084
17452WAT     H152598   9.368   0.879   8.084
17452WAT     H252599   9.337   1.031   8.034
17453WAT      O52600   5.194   6.906   4.718
17453WAT     H152601   5.113   6.881   4.771
17453WAT     H252602   5.234   6.990   4.756
17454WAT      O52603   5.651   9.609   3.125
17454WAT     H152604   5.632   9.666   3.205
17454WAT     H252605   5.748   9.618   3.099
17455WAT      O52606   4.145   9.467   5.625
17455WAT     H152607   4.225   9.508   5.581
17455WAT     H252608   4.072   9.535   5.629
17456WAT      O52609   8.263   3.305   8.500
17456WAT     H152610   8.170   3.301   8.465
17456WAT     H252611   8.266   3.265   8.591
17457WAT      O52612   5.177   1.714   8.654
17457WAT     H152613   5.207   1.804   8.687
17457WAT     H252614   5.094   1.724   8.599
17458WAT      O52615   7.446   1.883   5.856
17458WAT     H152616   7.504   1.845   5.784
17458WAT     H252617   7.456   1.829   5.940
17459WAT      O52618   0.932   2.003   5.101
17459WAT     H152619   0.863   1.983   5.031
17459WAT     H252620   0.992   1.924   5.111
17460WAT      O52621   6.965   5.375   1.064
17460WAT     H152622   6.879   5.355   1.110
17460WAT     H252623   7.039   5.325   1.110
17461WAT      O52624   3.020   3.764   3.869
17461WAT     H152625   2.923   3.771   3.895
17461WAT     H252626   3.077   3.781   3.949
17462WAT      O52627   6.758   9.603   7.388
17462WAT     H152628   6.827   9.572   7.323
17462WAT     H252629   6.803   9.644   7.467
17463WAT      O52630   2.873   9.403   0.919
17463WAT     H152631   2.837   9.420   0.827
17463WAT     H252632   2.800   9.418   0.986
17464WAT      O52633   1.478   0.820   1.463
17464WAT     H152634   1.430   0.905   1.441
17464WAT     H252635   1.525   0.831   1.550
17465WAT      O52636   4.443   4.509   3.512
17465WAT     H152637   4.364   4.567   3.492
17465WAT     H252638   4.524   4.566   3.525
17466WAT      O52639   7.893   0.028   6.925
17466WAT     H152640   7.912  -0.062   6.964
17466WAT     H252641   7.976   0.084   6.927
17467WAT      O52642   9.258   3.363   5.368
17467WAT     H152643   9.180   3.311   5.334
17467WAT     H252644   9.331   3.362   5.301
17468WAT      O52645   0.405   3.993   8.539
17468WAT     H152646   0.450   4.078   8.513
17468WAT     H252647   0.320   4.014   8.589
17469WAT      O52648   8.801   1.370   1.485
17469WAT     H152649   8.731   1.307   1.520
17469WAT     H252650   8.865   1.320   1.427
17470WAT      O52651   7.017   6.475   8.148
17470WAT     H152652   7.021   6.403   8.079
17470WAT     H252653   6.988   6.436   8.235
17471WAT      O52654   0.160   5.817   4.801
17471WAT     H152655   0.154   5.785   4.896
17471WAT     H252656   0.128   5.912   4.796
17472WAT      O52657   0.486   9.650   4.961
17472WAT     H152658   0.431   9.652   5.044
17472WAT     H252659   0.545   9.731   4.957
17473WAT      O52660   5.891   7.745   1.781
17473WAT     H152661   5.968   7.750   1.717
17473WAT     H252662   5.822   7.682   1.746
17474WAT      O52663   5.489   3.411   3.388
17474WAT     H152664   5.519   3.316   3.383
17474WAT     H252665   5.552   3.463   3.446
17475WAT      O52666   8.463   0.467   0.603
17475WAT     H152667   8.492   0.562   0.597
17475WAT     H252668   8.404   0.455   0.682
17476WAT      O52669   3.442   2.067   1.886
17476WAT     H152670   3.510   2.015   1.937
17476WAT     H252671   3.352   2.053   1.927
17477WAT      O52672   5.118   5.974   0.734
17477WAT     H152673   5.135   6.061   0.690
17477WAT     H252674   5.024   5.971   0.768
17478WAT      O52675   8.397   9.204   0.938
17478WAT     H152676   8.417   9.287   0.886
17478WAT     H252677   8.347   9.229   1.021
17479WAT      O52678   9.405   1.888   4.114
17479WAT     H152679   9.436   1.983   4.112
17479WAT     H252680   9.388   1.860   4.208
17480WAT      O52681   2.947   8.511   7.586
17480WAT     H152682   2.945   8.498   7.487
17480WAT     H252683   3.000   8.437   7.627
17481WAT      O52684   1.051   6.784   1.600
17481WAT     H152685   1.070   6.881   1.610
17481WAT     H252686   1.135   6.731   1.609
17482WAT      O52687   6.048   3.456   0.719
17482WAT     H152688   6.041   3.437   0.621
17482WAT     H252689   5.959   3.439   0.761
17483WAT      O52690   8.788   0.040   7.672
17483WAT     H152691   8.745   0.005   7.755
17483WAT     H252692   8.834  -0.034   7.624
17484WAT      O52693   5.523   7.227   6.973
17484WAT     H152694   5.590   7.163   6.935
17484WAT     H252695   5.562   7.272   7.053
17485WAT      O52696   2.145   5.786   5.529
17485WAT     H152697   2.147   5.695   5.570
17485WAT     H252698   2.236   5.809   5.495
17486WAT      O52699   2.936   5.923   7.774
17486WAT     H152700   3.027   5.961   7.759
17486WAT     H252701   2.868   5.997   7.771
17487WAT      O52702   1.968   1.349   5.879
17487WAT     H152703   1.968   1.278   5.809
17487WAT     H252704   2.014   1.316   5.961
17488WAT      O52705   6.432   4.799   5.663
17488WAT     H152706   6.404   4.703   5.663
17488WAT     H252707   6.450   4.829   5.757
17489WAT      O52708   3.200   5.292   1.333
17489WAT     H152709   3.297   5.277   1.318
17489WAT     H252710   3.178   5.274   1.429
17490WAT      O52711   0.525   0.452   2.622
17490WAT     H152712   0.444   0.461   2.681
17490WAT     H252713   0.607   0.477   2.674
17491WAT      O52714   7.772   6.624   7.340
17491WAT     H152715   7.710   6.571   7.398
17491WAT     H252716   7.837   6.673   7.397
17492WAT      O52717   1.258   6.319   5.713
17492WAT     H152718   1.307   6.253   5.656
17492WAT     H252719   1.322   6.388   5.747
17493WAT      O52720   3.264   3.600   3.768
17493WAT     H152721   3.312   3.543   3.834
17493WAT     H252722   3.178   3.632   3.807
17494WAT      O52723   6.444   6.463   8.100
17494WAT     H152724   6.447   6.512   8.188
17494WAT     H252725   6.516   6.498   8.041
17495WAT      O52726   7.483   7.297   8.693
17495WAT     H152727   7.570   7.331   8.730
17495WAT     H252728   7.426   7.375   8.668
17496WAT      O52729   8.125   8.822   3.750
17496WAT     H152730   8.150   8.773   3.833
17496WAT     H252731   8.187   8.899   3.736
17497WAT      O52732   6.509   4.663   9.787
17497WAT     H152733   6.544   4.624   9.873
17497WAT     H252734   6.577   4.652   9.715
17498WAT      O52735   1.527   0.939   7.397
17498WAT     H152736   1.435   0.912   7.368
17498WAT     H252737   1.521   1.010   7.466
17499WAT      O52738   1.122   5.777   7.663
17499WAT     H152739   1.024   5.796   7.650
17499WAT     H252740   1.170   5.789   7.576
17500WAT      O52741   7.575   6.285   7.134
17500WAT     H152742   7.515   6.304   7.056
17500WAT     H252743   7.559   6.352   7.206
17501WAT      O52744   9.282   0.154   5.515
17501WAT     H152745   9.276   0.128   5.419
17501WAT     H252746   9.366   0.206   5.530
17502WAT      O52747   5.038   0.296   0.958
17502WAT     H152748   5.091   0.332   1.034
17502WAT     H252749   4.965   0.360   0.934
17503WAT      O52750   8.708   5.887   6.247
17503WAT     H152751   8.618   5.843   6.250
17503WAT     H252752   8.760   5.863   6.329
17504WAT      O52753   5.686   6.824   3.754
17504WAT     H152754   5.679   6.868   3.664
17504WAT     H252755   5.600   6.835   3.803
17505WAT      O52756   9.347   9.522   7.103
17505WAT     H152757   9.430   9.504   7.156
17505WAT     H252758   9.267   9.497   7.157
17506WAT      O52759   4.835   9.288   2.030
17506WAT     H152760   4.760   9.325   1.976
17506WAT     H252761   4.829   9.320   2.124
17507WAT      O52762   5.460   6.880   0.551
17507WAT     H152763   5.479   6.930   0.467
17507WAT     H252764   5.407   6.798   0.531
17508WAT      O52765   6.436   0.436   2.659
17508WAT     H152766   6.412   0.531   2.679
17508WAT     H252767   6.388   0.376   2.724
17509WAT      O52768   4.223   8.988   4.664
17509WAT     H152769   4.222   8.897   4.705
17509WAT     H252770   4.156   8.992   4.590
17510WAT      O52771   2.413   4.941   4.394
17510WAT     H152772   2.358   4.857   4.389
17510WAT     H252773   2.424   4.968   4.489
17511WAT      O52774   8.512   6.185   5.333
17511WAT     H152775   8.525   6.252   5.406
17511WAT     H252776   8.462   6.106   5.369
17512WAT      O52777   0.586   7.289   9.000
17512WAT     H152778   0.605   7.245   8.913
17512WAT     H252779   0.598   7.223   9.074
17513WAT      O52780   5.429   7.144   9.212
17513WAT     H152781   5.503   7.106   9.156
17513WAT     H252782   5.465   7.168   9.302
17514WAT      O52783   5.469   1.277   1.221
17514WAT     H152784   5.480   1.286   1.320
17514WAT     H252785   5.506   1.358   1.176
17515WAT      O52786   5.780   0.284   1.550
17515WAT     H152787   5.755   0.229   1.629
17515WAT     H252788   5.776   0.381   1.574
17516WAT      O52789   9.695   5.908   5.467
17516WAT     H152790   9.711   5.922   5.370
17516WAT     H252791   9.781   5.885   5.513
17517WAT      O52792   4.887   7.255   8.105
17517WAT     H152793   4.922   7.347   8.125
17517WAT     H252794   4.823   7.260   8.029
17518WAT      O52795   2.011   2.647   4.402
17518WAT     H152796   1.919   2.651   4.439
17518WAT     H252797   2.024   2.722   4.336
17519WAT      O52798   8.234   1.185   3.498
17519WAT     H152799   8.206   1.277   3.526
17519WAT     H252800   8.170   1.150   3.430
17520WAT      O52801   6.599   5.687   0.098
17520WAT     H152802   6.636   5.674   0.006
17520WAT     H252803   6.672   5.714   0.161
17521WAT      O52804   7.645   8.641   0.944
17521WAT     H152805   7.639   8.741   0.942
17521WAT     H252806   7.629   8.608   1.037
17522WAT      O52807   9.509   4.302   1.909
17522WAT     H152808   9.449   4.368   1.863
17522WAT     H252809   9.599   4.343   1.922
17523WAT      O52810   5.215   1.644   3.364
17523WAT     H152811   5.187   1.709   3.293
17523WAT     H252812   5.154   1.654   3.443
17524WAT      O52813   0.822   5.536   3.385
17524WAT     H152814   0.735   5.580   3.362
17524WAT     H252815   0.872   5.594   3.450
17525WAT      O52816   7.141   8.117   2.333
17525WAT     H152817   7.180   8.163   2.252
17525WAT     H252818   7.198   8.038   2.357
17526WAT      O52819   7.474   5.156   6.185
17526WAT     H152820   7.377   5.179   6.197
17526WAT     H252821   7.499   5.083   6.249
17527WAT      O52822   7.224   4.835   2.310
17527WAT     H152823   7.163   4.838   2.231
17527WAT     H252824   7.228   4.742   2.346
17528WAT      O52825   3.420   0.819   4.808
17528WAT     H152826   3.328   0.786   4.828
17528WAT     H252827   3.466   0.754   4.747
17529WAT      O52828   3.717   8.488   6.974
17529WAT     H152829   3.774   8.429   6.915
17529WAT     H252830   3.725   8.458   7.069
17530WAT      O52831   6.134   4.005   9.108
17530WAT     H152832   6.210   4.046   9.159
17530WAT     H252833   6.166   3.978   9.017
17531WAT      O52834   0.804   6.879   5.553
17531WAT     H152835   0.831   6.817   5.627
17531WAT     H252836   0.825   6.837   5.465
17532WAT      O52837   0.390   6.497   7.661
17532WAT     H152838   0.319   6.566   7.677
17532WAT     H252839   0.392   6.474   7.564
17533WAT      O52840   8.917   4.652   2.794
17533WAT     H152841   8.963   4.741   2.801
17533WAT     H252842   8.874   4.645   2.703
17534WAT      O52843   5.548   3.704   5.924
17534WAT     H152844   5.568   3.796   5.957
17534WAT     H252845   5.459   3.675   5.958
17535WAT      O52846   5.452   7.499   2.612
17535WAT     H152847   5.504   7.439   2.673
17535WAT     H252848   5.360   7.462   2.600
17536WAT      O52849   6.212   0.051   5.947
17536WAT     H152850   6.127   0.002   5.933
17536WAT     H252851   6.287   0.001   5.904
17537WAT      O52852   7.612   2.931   1.721
17537WAT     H152853   7.569   2.971   1.639
17537WAT     H252854   7.615   3.000   1.793
17538WAT      O52855   4.648   4.865   4.841
17538WAT     H152856   4.663   4.830   4.748
17538WAT     H252857   4.651   4.790   4.906
17539WAT      O52858   7.104   0.636   3.767
17539WAT     H152859   7.058   0.634   3.679
17539WAT     H252860   7.064   0.566   3.827
17540WAT      O52861   2.779   7.929   8.278
17540WAT     H152862   2.864   7.969   8.245
17540WAT     H252863   2.798   7.867   8.354
17541WAT      O52864   2.624   2.520   2.121
17541WAT     H152865   2.538   2.469   2.131
17541WAT     H252866   2.688   2.491   2.192
17542WAT      O52867   7.051   2.852   1.315
17542WAT     H152868   7.066   2.780   1.383
17542WAT     H252869   7.040   2.940   1.362
17543WAT      O52870   5.999   1.235   8.619
17543WAT     H152871   5.946   1.152   8.604
17543WAT     H252872   6.004   1.253   8.718
17544WAT      O52873   1.555   3.549   4.103
17544WAT     H152874   1.626   3.500   4.052
17544WAT     H252875   1.480   3.486   4.124
17545WAT      O52876   8.505   7.857   8.337
17545WAT     H152877   8.530   7.841   8.241
17545WAT     H252878   8.586   7.884   8.388
17546WAT      O52879   4.518   6.064   4.673
17546WAT     H152880   4.595   6.001   4.675
17546WAT     H252881   4.474   6.061   4.583
17547WAT      O52882   0.764   4.384   0.552
17547WAT     H152883   0.755   4.329   0.635
17547WAT     H252884   0.674   4.392   0.507
17548WAT      O52885   4.252   3.982   2.882
17548WAT     H152886   4.166   3.962   2.835
17548WAT     H252887   4.326   3.928   2.841
17549WAT      O52888   2.734   1.068   6.348
17549WAT     H152889   2.813   1.062   6.287
17549WAT     H252890   2.662   1.122   6.304
17550WAT      O52891   5.273   4.680   0.659
17550WAT     H152892   5.177   4.706   0.648
17550WAT     H252893   5.304   4.633   0.577
17551WAT      O52894   6.938   5.164   4.689
17551WAT     H152895   6.959   5.174   4.592
17551WAT     H252896   7.001   5.219   4.743
17552WAT      O52897   2.542   7.960   5.260
17552WAT     H152898   2.522   7.864   5.277
17552WAT     H252899   2.470   8.000   5.203
17553WAT      O52900   9.542   0.927   8.440
17553WAT     H152901   9.501   0.897   8.526
17553WAT     H252902   9.584   1.017   8.452
17554WAT      O52903   7.664   3.394   6.183
17554WAT     H152904   7.724   3.330   6.135
17554WAT     H252905   7.582   3.411   6.129
17555WAT      O52906   0.347   4.059   5.795
17555WAT     H152907   0.302   4.093   5.712
17555WAT     H252908   0.419   3.994   5.770
17556WAT      O52909   3.482   1.753   4.855
17556WAT     H152910   3.457   1.688   4.783
17556WAT     H252911   3.555   1.813   4.822
17557WAT      O52912   8.865   9.015   1.594
17557WAT     H152913   8.879   8.942   1.662
17557WAT     H252914   8.852   8.974   1.504
17558WAT      O52915   1.031   6.271   4.351
17558WAT     H152916   1.110   6.218   4.381
17558WAT     H252917   1.047   6.368   4.368
17559WAT      O52918   0.813   4.124   3.605
17559WAT     H152919   0.898   4.154   3.562
17559WAT     H252920   0.736   4.173   3.563
17560WAT      O52921   0.164   0.284   5.610
17560WAT     H152922   0.196   0.338   5.688
17560WAT     H252923   0.208   0.194   5.611
17561WAT      O52924   3.206   2.548   5.583
17561WAT     H152925   3.202   2.579   5.489
17561WAT     H252926   3.131   2.484   5.600
17562WAT      O52927   8.778   7.228   3.605
17562WAT     H152928   8.762   7.130   3.588
17562WAT     H252929   8.789   7.275   3.517
17563WAT      O52930   3.109   4.549   9.165
17563WAT     H152931   3.124   4.453   9.143
17563WAT     H252932   3.189   4.603   9.137
17564WAT      O52933   2.256   9.601   7.632
17564WAT     H152934   2.195   9.662   7.581
17564WAT     H252935   2.210   9.567   7.714
17565WAT      O52936   3.321   9.085   8.323
17565WAT     H152937   3.402   9.027   8.333
17565WAT     H252938   3.333   9.168   8.378
17566WAT      O52939   1.921   4.969   0.820
17566WAT     H152940   1.870   4.983   0.735
17566WAT     H252941   1.991   5.039   0.829
17567WAT      O52942   8.302   2.668   4.290
17567WAT     H152943   8.347   2.587   4.254
17567WAT     H252944   8.215   2.641   4.333
17568WAT      O52945   9.576   3.702   7.027
17568WAT     H152946   9.641   3.699   6.951
17568WAT     H252947   9.577   3.793   7.068
17569WAT      O52948   4.541   7.547   6.656
17569WAT     H152949   4.640   7.560   6.645
17569WAT     H252950   4.523   7.494   6.739
17570WAT      O52951   7.397   5.283   6.523
17570WAT     H152952   7.493   5.260   6.506
17570WAT     H252953   7.361   5.223   6.595
17571WAT      O52954   4.114   4.763   2.848
17571WAT     H152955   4.155   4.791   2.761
17571WAT     H252956   4.135   4.667   2.865
17572WAT      O52957   8.431   9.651   0.375
17572WAT     H152958   8.387   9.737   0.398
17572WAT     H252959   8.528   9.655   0.398
17573WAT      O52960   4.162   6.035   1.170
17573WAT     H152961   4.192   6.035   1.074
17573WAT     H252962   4.161   6.129   1.204
17574WAT      O52963   2.908   4.135   3.539
17574WAT     H152964   2.963   4.104   3.462
17574WAT     H252965   2.859   4.218   3.514
17575WAT      O52966   2.822   7.075   5.494
17575WAT     H152967   2.917   7.051   5.515
17575WAT     H252968   2.775   7.103   5.577
17576WAT      O52969   6.594   6.073   3.948
17576WAT     H152970   6.663   6.012   3.908
17576WAT     H252971   6.610   6.167   3.917
17577WAT      O52972   2.462   6.455   8.987
17577WAT     H152973   2.402   6.506   9.050
17577WAT     H252974   2.513   6.520   8.930
17578WAT      O52975   3.248   7.708   5.039
17578WAT     H152976   3.236   7.681   4.944
17578WAT     H252977   3.297   7.637   5.089
17579WAT      O52978   5.167   6.572   0.770
17579WAT     H152979   5.120   6.606   0.852
17579WAT     H252980   5.258   6.540   0.794
17580WAT      O52981   8.568   3.959   2.607
17580WAT     H152982   8.660   3.930   2.580
17580WAT     H252983   8.520   3.882   2.650
17581WAT      O52984   9.640   0.692   5.201
17581WAT     H152985   9.564   0.702   5.264
17581WAT     H252986   9.619   0.620   5.135
17582WAT      O52987   4.260   3.625   5.733
17582WAT     H152988   4.170   3.633   5.775
17582WAT     H252989   4.284   3.528   5.723
17583WAT      O52990   8.520   9.715   5.688
17583WAT     H152991   8.551   9.760   5.772
17583WAT     H252992   8.525   9.780   5.612
17584WAT      O52993   0.003   1.351   7.123
17584WAT     H152994   0.095   1.342   7.162
17584WAT     H252995  -0.051   1.414   7.179
17585WAT      O52996   0.715   1.168   1.651
17585WAT     H152997   0.766   1.164   1.737
17585WAT     H252998   0.705   1.076   1.614
17586WAT      O52999   5.777   2.813   2.809
17586WAT     H153000   5.809   2.869   2.732
17586WAT     H253001   5.682   2.838   2.831
17587WAT      O53002   5.072   8.841   5.979
17587WAT     H153003   5.099   8.816   6.072
17587WAT     H253004   5.093   8.766   5.917
17588WAT      O53005   3.388   3.731   2.515
17588WAT     H153006   3.390   3.632   2.522
17588WAT     H253007   3.481   3.767   2.520
17589WAT      O53008   3.742   8.227   4.463
17589WAT     H153009   3.666   8.222   4.397
17589WAT     H253010   3.744   8.143   4.517
17590WAT      O53011   9.576   1.688   0.297
17590WAT     H153012   9.506   1.753   0.326
17590WAT     H253013   9.662   1.736   0.283
17591WAT      O53014   1.786   4.996   1.553
17591WAT     H153015   1.695   5.000   1.511
17591WAT     H253016   1.831   5.084   1.542
17592WAT      O53017   5.903   6.409   7.046
17592WAT     H153018   5.962   6.463   6.985
17592WAT     H253019   5.922   6.312   7.033
17593WAT      O53020   3.578   4.178   5.230
17593WAT     H153021   3.605   4.089   5.194
17593WAT     H253022   3.570   4.172   5.330
17594WAT      O53023   9.235   0.180   4.988
17594WAT     H153024   9.175   0.261   4.983
17594WAT     H253025   9.196   0.107   4.932
17595WAT      O53026   4.168   0.727   2.177
17595WAT     H153027   4.093   0.769   2.128
17595WAT     H253028   4.255   0.757   2.139
17596WAT      O53029   4.757   2.419   4.377
17596WAT     H153030   4.760   2.324   4.346
17596WAT     H253031   4.779   2.479   4.301
17597WAT      O53032   2.734   3.675   0.106
17597WAT     H153033   2.750   3.640   0.014
17597WAT     H253034   2.648   3.638   0.142
17598WAT      O53035   0.916   5.311   3.718
17598WAT     H153036   1.009   5.287   3.745
17598WAT     H253037   0.909   5.410   3.705
17599WAT      O53038   7.311   8.757   2.910
17599WAT     H153039   7.393   8.743   2.855
17599WAT     H253040   7.320   8.843   2.961
17600WAT      O53041   4.532   1.768   5.045
17600WAT     H153042   4.555   1.792   4.951
17600WAT     H253043   4.470   1.837   5.083
17601WAT      O53044   2.698   3.251   7.413
17601WAT     H153045   2.667   3.319   7.479
17601WAT     H253046   2.798   3.254   7.407
17602WAT      O53047   1.913   7.821   8.160
17602WAT     H153048   1.992   7.798   8.104
17602WAT     H253049   1.940   7.884   8.233
17603WAT      O53050   9.272   5.882   2.254
17603WAT     H153051   9.325   5.907   2.173
17603WAT     H253052   9.194   5.825   2.226
17604WAT      O53053   0.268   7.927   1.059
17604WAT     H153054   0.266   8.024   1.082
17604WAT     H253055   0.277   7.874   1.144
17605WAT      O53056   9.671   1.279   9.455
17605WAT     H153057   9.618   1.197   9.479
17605WAT     H253058   9.674   1.341   9.534
17606WAT      O53059   8.137   1.984   6.119
17606WAT     H153060   8.117   2.076   6.150
17606WAT     H253061   8.091   1.917   6.179
17607WAT      O53062   4.634   7.355   5.721
17607WAT     H153063   4.565   7.328   5.789
17607WAT     H253064   4.722   7.315   5.746
17608WAT      O53065   1.125   3.681   3.327
17608WAT     H153066   1.065   3.746   3.280
17608WAT     H253067   1.105   3.588   3.295
17609WAT      O53068   1.760   8.753   1.369
17609WAT     H153069   1.684   8.815   1.388
17609WAT     H253070   1.839   8.806   1.339
17610WAT      O53071   8.113   2.378   5.586
17610WAT     H153072   8.202   2.387   5.630
17610WAT     H253073   8.041   2.383   5.656
17611WAT      O53074   8.674   4.313   3.273
17611WAT     H153075   8.607   4.380   3.244
17611WAT     H253076   8.752   4.313   3.211
17612WAT      O53077   6.740   3.203   6.440
17612WAT     H153078   6.756   3.295   6.404
17612WAT     H253079   6.733   3.207   6.540
17613WAT      O53080   4.400   2.886   6.579
17613WAT     H153081   4.432   2.906   6.486
17613WAT     H253082   4.306   2.921   6.589
17614WAT      O53083   4.014   4.570   9.155
17614WAT     H153084   3.964   4.550   9.071
17614WAT     H253085   3.997   4.665   9.182
17615WAT      O53086   3.706   0.852   9.760
17615WAT     H153087   3.662   0.775   9.807
17615WAT     H253088   3.648   0.933   9.768
17616WAT      O53089   0.887   4.879   0.290
17616WAT     H153090   0.894   4.793   0.341
17616WAT     H253091   0.951   4.878   0.213
17617WAT      O53092   8.404   2.324   3.404
17617WAT     H153093   8.473   2.378   3.356
17617WAT     H253094   8.444   2.238   3.435
17618WAT      O53095   5.504   2.889   2.799
17618WAT     H153096   5.486   2.846   2.711
17618WAT     H253097   5.450   2.972   2.808
17619WAT      O53098   9.506   6.942   5.731
17619WAT     H153099   9.447   6.894   5.796
17619WAT     H253100   9.580   6.987   5.780
17620WAT      O53101   0.503   3.816   1.998
17620WAT     H153102   0.561   3.896   1.981
17620WAT     H253103   0.560   3.733   1.997
17621WAT      O53104   2.765   6.159   5.938
17621WAT     H153105   2.694   6.204   5.885
17621WAT     H253106   2.807   6.086   5.884
17622WAT      O53107   9.181   0.612   1.160
17622WAT     H153108   9.138   0.693   1.122
17622WAT     H253109   9.197   0.545   1.088
17623WAT      O53110   4.408   5.199   1.835
17623WAT     H153111   4.458   5.152   1.908
17623WAT     H253112   4.357   5.276   1.874
17624WAT      O53113   7.428   9.536   6.522
17624WAT     H153114   7.478   9.563   6.604
17624WAT     H253115   7.471   9.576   6.441
17625WAT      O53116   5.283   2.755   7.020
17625WAT     H153117   5.184   2.746   7.025
17625WAT     H253118   5.320   2.772   7.112
17626WAT      O53119   3.711   6.205   9.697
17626WAT     H153120   3.624   6.247   9.721
17626WAT     H253121   3.786   6.257   9.737
17627WAT      O53122   1.296   5.533   9.638
17627WAT     H153123   1.336   5.596   9.572
17627WAT     H253124   1.366   5.466   9.666
17628WAT      O53125   2.051   8.161   2.756
17628WAT     H153126   1.996   8.208   2.824
17628WAT     H253127   2.030   8.196   2.665
17629WAT      O53128   1.206   8.981   0.975
17629WAT     H153129   1.199   9.032   0.890
17629WAT     H253130   1.249   8.892   0.957
17630WAT      O53131   5.711   4.035   3.295
17630WAT     H153132   5.752   3.992   3.214
17630WAT     H253133   5.691   3.965   3.363
17631WAT      O53134   9.878   1.792   9.273
17631WAT     H153135   9.862   1.866   9.206
17631WAT     H253136   9.965   1.808   9.320
17632WAT      O53137   5.488   7.280   8.190
17632WAT     H153138   5.453   7.206   8.248
17632WAT     H253139   5.423   7.298   8.117
17633WAT      O53140   9.860   0.967   8.853
17633WAT     H153141   9.926   0.895   8.875
17633WAT     H253142   9.849   1.027   8.932
17634WAT      O53143   9.204   0.434   6.043
17634WAT     H153144   9.212   0.526   6.005
17634WAT     H253145   9.114   0.396   6.021
17635WAT      O53146   7.830   3.546   0.180
17635WAT     H153147   7.817   3.493   0.264
17635WAT     H253148   7.872   3.634   0.202
17636WAT      O53149   1.401   8.165   4.742
17636WAT     H153150   1.414   8.203   4.834
17636WAT     H253151   1.384   8.067   4.748
17637WAT      O53152   4.929   7.491   0.173
17637WAT     H153153   4.910   7.545   0.255
17637WAT     H253154   4.954   7.398   0.200
17638WAT      O53155   0.552   3.270   3.042
17638WAT     H153156   0.651   3.270   3.056
17638WAT     H253157   0.532   3.268   2.944
17639WAT      O53158   8.982   2.071   6.910
17639WAT     H153159   9.058   2.133   6.931
17639WAT     H253160   8.955   2.084   6.815
17640WAT      O53161   3.113   6.446   8.636
17640WAT     H153162   3.145   6.352   8.640
17640WAT     H253163   3.029   6.450   8.581
17641WAT      O53164   5.192   8.494   5.321
17641WAT     H153165   5.222   8.522   5.230
17641WAT     H253166   5.206   8.396   5.333
17642WAT      O53167   1.671   6.019   3.491
17642WAT     H153168   1.584   5.993   3.531
17642WAT     H253169   1.746   5.975   3.541
17643WAT      O53170   9.446   6.324   4.821
17643WAT     H153171   9.448   6.239   4.770
17643WAT     H253172   9.494   6.395   4.769
17644WAT      O53173   3.323   1.693   1.876
17644WAT     H153174   3.397   1.743   1.831
17644WAT     H253175   3.248   1.679   1.811
17645WAT      O53176   4.475   6.804   8.738
17645WAT     H153177   4.438   6.729   8.683
17645WAT     H253178   4.492   6.771   8.831
17646WAT      O53179   7.143   1.285   5.071
17646WAT     H153180   7.238   1.288   5.040
17646WAT     H253181   7.094   1.364   5.035
17647WAT      O53182   1.641   2.797   9.341
17647WAT     H153183   1.694   2.836   9.266
17647WAT     H253184   1.687   2.716   9.377
17648WAT      O53185   2.341   8.272   1.981
17648WAT     H153186   2.297   8.335   2.046
17648WAT     H253187   2.378   8.194   2.031
17649WAT      O53188   7.619   0.827   3.364
17649WAT     H153189   7.554   0.902   3.370
17649WAT     H253190   7.710   0.860   3.389
17650WAT      O53191   2.020   4.037   0.750
17650WAT     H153192   2.046   4.074   0.839
17650WAT     H253193   2.095   3.981   0.714
17651WAT      O53194   4.634   5.256   9.236
17651WAT     H153195   4.575   5.337   9.230
17651WAT     H253196   4.698   5.268   9.312
17652WAT      O53197   4.363   6.811   3.833
17652WAT     H153198   4.393   6.890   3.887
17652WAT     H253199   4.278   6.775   3.871
17653WAT      O53200   1.877   3.901   8.097
17653WAT     H153201   1.902   3.903   8.000
17653WAT     H253202   1.936   3.963   8.148
17654WAT      O53203   7.197   0.276   2.346
17654WAT     H153204   7.119   0.254   2.287
17654WAT     H253205   7.278   0.293   2.289
17655WAT      O53206   3.919   6.031   1.792
17655WAT     H153207   3.852   6.082   1.846
17655WAT     H253208   3.898   6.040   1.695
17656WAT      O53209   8.251   2.559   1.182
17656WAT     H153210   8.277   2.471   1.143
17656WAT     H253211   8.327   2.624   1.173
17657WAT      O53212   0.234   9.135   3.523
17657WAT     H153213   0.189   9.198   3.587
17657WAT     H253214   0.290   9.070   3.574
17658WAT      O53215   5.547   5.428   0.262
17658WAT     H153216   5.478   5.497   0.242
17658WAT     H253217   5.504   5.351   0.309
17659WAT      O53218   3.223   2.873   3.471
17659WAT     H153219   3.213   2.969   3.498
17659WAT     H253220   3.164   2.854   3.392
17660WAT      O53221   3.055   0.021   6.009
17660WAT     H153222   2.977   0.044   6.066
17660WAT     H253223   3.140   0.038   6.060
17661WAT      O53224   1.640   9.689   1.286
17661WAT     H153225   1.608   9.615   1.227
17661WAT     H253226   1.733   9.669   1.317
17662WAT      O53227   4.106   1.962   6.956
17662WAT     H153228   4.186   1.998   6.909
17662WAT     H253229   4.113   1.862   6.964
17663WAT      O53230   0.256   6.551   3.116
17663WAT     H153231   0.214   6.465   3.086
17663WAT     H253232   0.291   6.540   3.209
17664WAT      O53233   7.757   1.400   0.457
17664WAT     H153234   7.673   1.385   0.508
17664WAT     H253235   7.743   1.472   0.389
17665WAT      O53236   1.402   2.199   3.718
17665WAT     H153237   1.361   2.218   3.807
17665WAT     H253238   1.465   2.273   3.695
17666WAT      O53239   7.083   4.111   0.887
17666WAT     H153240   7.046   4.168   0.961
17666WAT     H253241   7.017   4.039   0.864
17667WAT      O53242   7.581   8.905   1.007
17667WAT     H153243   7.615   8.884   1.099
17667WAT     H253244   7.632   8.983   0.970
17668WAT      O53245   5.086   6.508   8.601
17668WAT     H153246   5.057   6.423   8.558
17668WAT     H253247   5.181   6.528   8.576
17669WAT      O53248   6.644   8.598   9.673
17669WAT     H153249   6.712   8.656   9.719
17669WAT     H253250   6.566   8.583   9.735
17670WAT      O53251   7.997   7.705   7.858
17670WAT     H153252   8.066   7.643   7.820
17670WAT     H253253   7.976   7.776   7.791
17671WAT      O53254   4.229   9.774   9.147
17671WAT     H153255   4.196   9.828   9.225
17671WAT     H253256   4.316   9.812   9.114
17672WAT      O53257   0.329   1.836   8.360
17672WAT     H153258   0.390   1.807   8.287
17672WAT     H253259   0.312   1.759   8.422
17673WAT      O53260   0.863   5.576   8.609
17673WAT     H153261   0.832   5.547   8.519
17673WAT     H253262   0.867   5.676   8.613
17674WAT      O53263   8.881   2.071   1.111
17674WAT     H153264   8.832   2.063   1.197
17674WAT     H253265   8.846   2.003   1.046
17675WAT      O53266   2.129   1.343   2.284
17675WAT     H153267   2.065   1.309   2.353
17675WAT     H253268   2.096   1.317   2.193
17676WAT      O53269   0.234   6.469   6.573
17676WAT     H153270   0.227   6.503   6.667
17676WAT     H253271   0.322   6.424   6.560
17677WAT      O53272   4.138   3.773   5.318
17677WAT     H153273   4.193   3.763   5.236
17677WAT     H253274   4.065   3.840   5.302
17678WAT      O53275   0.812   1.236   5.360
17678WAT     H153276   0.811   1.336   5.369
17678WAT     H253277   0.829   1.211   5.265
17679WAT      O53278   4.229   7.748   5.568
17679WAT     H153279   4.224   7.841   5.603
17679WAT     H253280   4.323   7.717   5.568
17680WAT      O53281   5.995   2.092   5.516
17680WAT     H153282   5.950   2.083   5.605
17680WAT     H253283   6.060   2.168   5.519
17681WAT      O53284   4.452   2.643   4.227
17681WAT     H153285   4.401   2.664   4.143
17681WAT     H253286   4.412   2.563   4.271
17682WAT      O53287   1.068   1.707   6.535
17682WAT     H153288   1.007   1.657   6.597
17682WAT     H253289   1.044   1.685   6.440
17683WAT      O53290   3.658   6.528   3.360
17683WAT     H153291   3.647   6.604   3.424
17683WAT     H253292   3.740   6.475   3.385
17684WAT      O53293   2.769   2.559   3.281
17684WAT     H153294   2.803   2.542   3.189
17684WAT     H253295   2.704   2.635   3.280
17685WAT      O53296   3.866   5.875   2.332
17685WAT     H153297   3.939   5.841   2.391
17685WAT     H253298   3.833   5.963   2.366
17686WAT      O53299   8.253   7.546   0.404
17686WAT     H153300   8.307   7.519   0.484
17686WAT     H253301   8.164   7.500   0.407
17687WAT      O53302   6.199   3.709   2.426
17687WAT     H153303   6.133   3.684   2.497
17687WAT     H253304   6.218   3.629   2.368
17688WAT      O53305   7.214   9.535   1.018
17688WAT     H153306   7.272   9.487   1.083
17688WAT     H253307   7.232   9.502   0.926
17689WAT      O53308   5.623   1.161   0.537
17689WAT     H153309   5.624   1.061   0.538
17689WAT     H253310   5.660   1.196   0.623
17690WAT      O53311   8.930   8.609   0.124
17690WAT     H153312   8.867   8.682   0.150
17690WAT     H253313   8.928   8.596   0.025
17691WAT      O53314   5.236   0.718   5.897
17691WAT     H153315   5.244   0.644   5.963
17691WAT     H253316   5.301   0.704   5.822
17692WAT      O53317   8.270   7.723   7.219
17692WAT     H153318   8.341   7.748   7.285
17692WAT     H253319   8.218   7.645   7.255
17693WAT      O53320   9.244   1.733   7.163
17693WAT     H153321   9.298   1.710   7.082
17693WAT     H253322   9.181   1.658   7.182
17694WAT      O53323   2.607   3.628   7.883
17694WAT     H153324   2.586   3.538   7.844
17694WAT     H253325   2.533   3.656   7.944
17695WAT      O53326   9.758   4.432   7.316
17695WAT     H153327   9.811   4.351   7.340
17695WAT     H253328   9.820   4.506   7.292
17696WAT      O53329   5.022   7.714   4.325
17696WAT     H153330   5.036   7.684   4.231
17696WAT     H253331   4.930   7.754   4.333
17697WAT      O53332   8.452   8.051   4.268
17697WAT     H153333   8.413   8.095   4.348
17697WAT     H253334   8.540   8.009   4.293
17698WAT      O53335   2.209   2.475   8.099
17698WAT     H153336   2.187   2.419   8.178
17698WAT     H253337   2.307   2.467   8.078
17699WAT      O53338   8.718   1.928   8.341
17699WAT     H153339   8.775   1.848   8.323
17699WAT     H253340   8.740   2.000   8.275
17700WAT      O53341   0.756   7.477   5.566
17700WAT     H153342   0.706   7.562   5.548
17700WAT     H253343   0.836   7.497   5.622
17701WAT      O53344   4.106   8.721   7.096
17701WAT     H153345   4.055   8.650   7.145
17701WAT     H253346   4.124   8.691   7.002
17702WAT      O53347   0.623   9.675   5.533
17702WAT     H153348   0.561   9.713   5.465
17702WAT     H253349   0.602   9.578   5.547
17703WAT      O53350   1.991   7.196   0.396
17703WAT     H153351   2.033   7.286   0.407
17703WAT     H253352   1.895   7.206   0.371
17704WAT      O53353   3.675   6.415   3.075
17704WAT     H153354   3.750   6.350   3.088
17704WAT     H253355   3.667   6.473   3.156
17705WAT      O53356   5.131   5.669   8.564
17705WAT     H153357   5.099   5.692   8.657
17705WAT     H253358   5.134   5.753   8.509
17706WAT      O53359   0.566   8.261   9.692
17706WAT     H153360   0.485   8.305   9.730
17706WAT     H253361   0.608   8.321   9.624
17707WAT      O53362   2.320   2.802   1.576
17707WAT     H153363   2.331   2.741   1.655
17707WAT     H253364   2.227   2.839   1.576
17708WAT      O53365   5.960   8.495   0.507
17708WAT     H153366   5.881   8.449   0.547
17708WAT     H253367   6.043   8.444   0.527
17709WAT      O53368   6.708   9.628   2.160
17709WAT     H153369   6.701   9.726   2.176
17709WAT     H253370   6.805   9.601   2.163
17710WAT      O53371   4.459   6.293   5.292
17710WAT     H153372   4.400   6.279   5.212
17710WAT     H253373   4.437   6.382   5.334
17711WAT      O53374   1.031   8.995   8.999
17711WAT     H153375   1.092   9.074   9.008
17711WAT     H253376   0.999   8.988   8.904
17712WAT      O53377   9.214   6.821   3.634
17712WAT     H153378   9.287   6.887   3.651
17712WAT     H253379   9.131   6.850   3.681
17713WAT      O53380   0.940   9.378   6.800
17713WAT     H153381   0.967   9.296   6.750
17713WAT     H253382   1.022   9.420   6.840
17714WAT      O53383   6.217   2.979   2.020
17714WAT     H153384   6.169   3.045   2.077
17714WAT     H253385   6.305   3.017   1.991
17715WAT      O53386   0.052   8.216   1.957
17715WAT     H153387   0.076   8.287   2.023
17715WAT     H253388  -0.041   8.230   1.925
17716WAT      O53389   0.499   1.553   4.344
17716WAT     H153390   0.580   1.533   4.288
17716WAT     H253391   0.417   1.524   4.296
17717WAT      O53392   1.452   9.365   5.697
17717WAT     H153393   1.537   9.350   5.746
17717WAT     H253394   1.376   9.322   5.746
17718WAT      O53395   0.956   7.057   0.864
17718WAT     H153396   0.891   7.002   0.811
17718WAT     H253397   0.982   7.138   0.813
17719WAT      O53398   1.111   3.549   2.003
17719WAT     H153399   1.203   3.570   1.970
17719WAT     H253400   1.112   3.462   2.052
17720WAT      O53401   4.005   4.520   5.762
17720WAT     H153402   4.040   4.612   5.744
17720WAT     H253403   3.915   4.527   5.805
17721WAT      O53404   2.919   0.175   0.547
17721WAT     H153405   3.002   0.220   0.578
17721WAT     H253406   2.943   0.101   0.484
17722WAT      O53407   2.640   6.793   3.054
17722WAT     H153408   2.709   6.746   2.999
17722WAT     H253409   2.554   6.799   3.003
17723WAT      O53410   1.497   4.847   5.826
17723WAT     H153411   1.511   4.822   5.922
17723WAT     H253412   1.413   4.804   5.792
17724WAT      O53413   1.209   8.242   2.868
17724WAT     H153414   1.220   8.144   2.853
17724WAT     H253415   1.279   8.292   2.818
17725WAT      O53416   4.629   0.581   2.027
17725WAT     H153417   4.634   0.499   1.969
17725WAT     H253418   4.691   0.651   1.992
17726WAT      O53419   7.323   1.364   7.454
17726WAT     H153420   7.260   1.287   7.446
17726WAT     H253421   7.408   1.343   7.406
17727WAT      O53422   9.698   9.530   0.868
17727WAT     H153423   9.726   9.452   0.812
17727WAT     H253424   9.741   9.523   0.958
17728WAT      O53425   9.312   5.788   7.716
17728WAT     H153426   9.301   5.743   7.627
17728WAT     H253427   9.242   5.859   7.725
17729WAT      O53428   5.708   3.539   7.970
17729WAT     H153429   5.616   3.532   8.008
17729WAT     H253430   5.776   3.536   8.043
17730WAT      O53431   4.060   9.377   3.029
17730WAT     H153432   4.017   9.292   3.001
17730WAT     H253433   4.064   9.440   2.952
17731WAT      O53434   5.295   7.773   1.828
17731WAT     H153435   5.336   7.702   1.770
17731WAT     H253436   5.364   7.805   1.894
17732WAT      O53437   2.810   6.104   1.522
17732WAT     H153438   2.869   6.034   1.564
17732WAT     H253439   2.851   6.136   1.437
17733WAT      O53440   4.572   6.725   4.107
17733WAT     H153441   4.538   6.807   4.154
17733WAT     H253442   4.618   6.751   4.022
17734WAT      O53443   8.000   5.693   1.998
17734WAT     H153444   8.069   5.659   2.063
17734WAT     H253445   7.931   5.622   1.983
17735WAT      O53446   8.001   6.723   0.176
17735WAT     H153447   7.994   6.623   0.181
17735WAT     H253448   7.977   6.762   0.265
17736WAT      O53449   1.209   7.334   3.959
17736WAT     H153450   1.168   7.375   3.877
17736WAT     H253451   1.259   7.404   4.010
17737WAT      O53452   3.680   7.833   7.722
17737WAT     H153453   3.622   7.853   7.642
17737WAT     H253454   3.668   7.905   7.790
17738WAT      O53455   2.079   2.970   3.876
17738WAT     H153456   2.025   3.013   3.804
17738WAT     H253457   2.104   3.038   3.944
17739WAT      O53458   4.916   5.737   0.710
17739WAT     H153459   5.004   5.784   0.716
17739WAT     H253460   4.916   5.677   0.629
17740WAT      O53461   3.197   3.943   3.723
17740WAT     H153462   3.130   3.884   3.768
17740WAT     H253463   3.162   4.037   3.720
17741WAT      O53464   0.459   5.047   1.009
17741WAT     H153465   0.551   5.015   1.030
17741WAT     H253466   0.464   5.135   0.962
17742WAT      O53467   1.757   0.883   5.898
17742WAT     H153468   1.746   0.981   5.877
17742WAT     H253469   1.785   0.873   5.994
17743WAT      O53470   1.181   4.055   3.341
17743WAT     H153471   1.135   4.121   3.399
17743WAT     H253472   1.115   3.987   3.307
17744WAT      O53473   6.339   9.507   6.549
17744WAT     H153474   6.354   9.536   6.455
17744WAT     H253475   6.403   9.555   6.609
17745WAT      O53476   6.644   8.099   7.710
17745WAT     H153477   6.699   8.168   7.757
17745WAT     H253478   6.614   8.029   7.775
17746WAT      O53479   1.473   7.511   8.787
17746WAT     H153480   1.497   7.576   8.859
17746WAT     H253481   1.494   7.418   8.818
17747WAT      O53482   6.488   4.049   2.299
17747WAT     H153483   6.588   4.041   2.299
17747WAT     H253484   6.455   4.046   2.393
17748WAT      O53485   8.413   1.635   6.187
17748WAT     H153486   8.394   1.641   6.285
17748WAT     H253487   8.508   1.605   6.173
17749WAT      O53488   9.175   3.650   2.400
17749WAT     H153489   9.262   3.657   2.448
17749WAT     H253490   9.174   3.569   2.342
17750WAT      O53491   4.846   7.613   1.948
17750WAT     H153492   4.812   7.519   1.942
17750WAT     H253493   4.848   7.641   2.044
17751WAT      O53494   6.958   9.468   2.165
17751WAT     H153495   6.975   9.456   2.262
17751WAT     H253496   7.045   9.466   2.115
17752WAT      O53497   2.617   8.716   4.120
17752WAT     H153498   2.559   8.796   4.105
17752WAT     H253499   2.703   8.727   4.071
17753WAT      O53500   8.925   9.703   8.939
17753WAT     H153501   8.887   9.795   8.938
17753WAT     H253502   9.019   9.706   8.971
17754WAT      O53503   5.494   9.227   0.029
17754WAT     H153504   5.471   9.157  -0.038
17754WAT     H253505   5.416   9.289   0.040
17755WAT      O53506   7.964   6.198   1.875
17755WAT     H153507   7.973   6.209   1.974
17755WAT     H253508   7.962   6.100   1.853
17756WAT      O53509   3.173   1.830   4.814
17756WAT     H153510   3.267   1.843   4.848
17756WAT     H253511   3.176   1.785   4.725
17757WAT      O53512   5.250   7.952   0.778
17757WAT     H153513   5.290   7.925   0.690
17757WAT     H253514   5.155   7.924   0.782
17758WAT      O53515   7.717   0.963   0.270
17758WAT     H153516   7.689   0.975   0.175
17758WAT     H253517   7.807   1.005   0.284
17759WAT      O53518   2.138   0.985   8.417
17759WAT     H153519   2.106   1.070   8.460
17759WAT     H253520   2.087   0.969   8.333
17760WAT      O53521   0.244   5.821   7.522
17760WAT     H153522   0.215   5.771   7.604
17760WAT     H253523   0.228   5.764   7.441
17761WAT      O53524   8.602   3.708   4.928
17761WAT     H153525   8.504   3.693   4.937
17761WAT     H253526   8.622   3.746   4.838
17762WAT      O53527   8.037   6.458   5.921
17762WAT     H153528   8.026   6.493   5.828
17762WAT     H253529   8.026   6.533   5.986
17763WAT      O53530   4.189   6.959   4.748
17763WAT     H153531   4.179   6.982   4.845
17763WAT     H253532   4.138   7.024   4.693
17764WAT      O53533   5.978   8.414   4.063
17764WAT     H153534   5.937   8.348   4.126
17764WAT     H253535   5.938   8.504   4.077
17765WAT      O53536   8.012   5.513   8.968
17765WAT     H153537   7.982   5.529   8.874
17765WAT     H253538   7.997   5.417   8.993
17766WAT      O53539   1.070   4.703   5.596
17766WAT     H153540   1.004   4.772   5.625
17766WAT     H253541   1.159   4.722   5.637
17767WAT      O53542   1.540   4.347   0.542
17767WAT     H153543   1.546   4.432   0.490
17767WAT     H253544   1.466   4.290   0.506
17768WAT      O53545   4.727   6.462   5.514
17768WAT     H153546   4.661   6.399   5.554
17768WAT     H253547   4.790   6.411   5.455
17769WAT      O53548   5.864   9.139   1.786
17769WAT     H153549   5.790   9.087   1.829
17769WAT     H253550   5.952   9.107   1.822
17770WAT      O53551   3.748   0.817   6.214
17770WAT     H153552   3.710   0.834   6.305
17770WAT     H253553   3.725   0.893   6.153
17771WAT      O53554   3.862   9.095   7.276
17771WAT     H153555   3.813   9.168   7.229
17771WAT     H253556   3.797   9.038   7.327
17772WAT      O53557   8.420   7.494   6.779
17772WAT     H153558   8.487   7.567   6.787
17772WAT     H253559   8.459   7.409   6.814
17773WAT      O53560   3.305   2.641   1.269
17773WAT     H153561   3.294   2.690   1.355
17773WAT     H253562   3.318   2.706   1.194
17774WAT      O53563   7.729   0.407   2.923
17774WAT     H153564   7.677   0.322   2.931
17774WAT     H253565   7.742   0.430   2.827
17775WAT      O53566   7.710   2.894   6.500
17775WAT     H153567   7.724   2.958   6.576
17775WAT     H253568   7.759   2.809   6.519
17776WAT      O53569   1.143   9.695   1.081
17776WAT     H153570   1.207   9.771   1.072
17776WAT     H253571   1.189   9.618   1.125
17777WAT      O53572   7.776   8.244   0.642
17777WAT     H153573   7.750   8.302   0.719
17777WAT     H253574   7.702   8.181   0.620
17778WAT      O53575   8.309   0.552   4.759
17778WAT     H153576   8.372   0.595   4.694
17778WAT     H253577   8.256   0.481   4.712
17779WAT      O53578   3.281   0.670   7.637
17779WAT     H153579   3.366   0.681   7.585
17779WAT     H253580   3.215   0.739   7.608
17780WAT      O53581   5.120   0.841   8.057
17780WAT     H153582   5.141   0.785   7.977
17780WAT     H253583   5.135   0.937   8.035
17781WAT      O53584   9.483   5.295   9.221
17781WAT     H153585   9.422   5.288   9.143
17781WAT     H253586   9.504   5.392   9.238
17782WAT      O53587   2.191   8.138   3.200
17782WAT     H153588   2.270   8.182   3.157
17782WAT     H253589   2.147   8.202   3.263
17783WAT      O53590   6.053   8.837   2.390
17783WAT     H153591   6.138   8.887   2.407
17783WAT     H253592   6.015   8.805   2.477
17784WAT      O53593   5.514   2.444   6.006
17784WAT     H153594   5.431   2.411   5.961
17784WAT     H253595   5.593   2.424   5.948
17785WAT      O53596   4.287   7.155   5.586
17785WAT     H153597   4.308   7.216   5.662
17785WAT     H253598   4.254   7.067   5.622
17786WAT      O53599   3.020   4.958   2.171
17786WAT     H153600   3.084   4.895   2.127
17786WAT     H253601   2.993   5.029   2.107
17787WAT      O53602   0.968   2.836   2.774
17787WAT     H153603   1.043   2.892   2.809
17787WAT     H253604   1.005   2.749   2.740
17788WAT      O53605   9.054   4.579   4.199
17788WAT     H153606   9.029   4.602   4.105
17788WAT     H253607   9.154   4.570   4.206
17789WAT      O53608   9.610   3.952   4.737
17789WAT     H153609   9.606   3.970   4.638
17789WAT     H253610   9.690   3.896   4.757
17790WAT      O53611   7.217   9.512   6.144
17790WAT     H153612   7.235   9.442   6.074
17790WAT     H253613   7.304   9.546   6.179
17791WAT      O53614   3.033   7.390   4.164
17791WAT     H153615   2.939   7.424   4.164
17791WAT     H253616   3.095   7.462   4.131
17792WAT      O53617   7.601   5.037   2.362
17792WAT     H153618   7.628   5.128   2.332
17792WAT     H253619   7.627   4.970   2.292
17793WAT      O53620   2.749   7.446   4.568
17793WAT     H153621   2.837   7.423   4.524
17793WAT     H253622   2.696   7.362   4.581
17794WAT      O53623   1.313   4.889   1.001
17794WAT     H153624   1.359   4.847   0.923
17794WAT     H253625   1.307   4.823   1.076
17795WAT      O53626   2.427   8.188   0.613
17795WAT     H153627   2.512   8.158   0.656
17795WAT     H253628   2.439   8.190   0.514
17796WAT      O53629   3.342   0.558   5.745
17796WAT     H153630   3.342   0.656   5.762
17796WAT     H253631   3.278   0.536   5.671
17797WAT      O53632   7.526   3.170   5.711
17797WAT     H153633   7.584   3.203   5.786
17797WAT     H253634   7.462   3.242   5.685
17798WAT      O53635   3.307   0.476   8.851
17798WAT     H153636   3.326   0.552   8.788
17798WAT     H253637   3.328   0.390   8.806
17799WAT      O53638   9.165   9.140   0.034
17799WAT     H153639   9.096   9.074   0.061
17799WAT     H253640   9.255   9.110   0.067
17800WAT      O53641   0.680   6.861   8.809
17800WAT     H153642   0.639   6.806   8.882
17800WAT     H253643   0.776   6.835   8.798
17801WAT      O53644   7.896   4.454   1.187
17801WAT     H153645   7.833   4.530   1.172
17801WAT     H253646   7.891   4.426   1.283
17802WAT      O53647   2.533   7.248   7.924
17802WAT     H153648   2.436   7.272   7.926
17802WAT     H253649   2.566   7.249   7.830
17803WAT      O53650   4.288   6.103   4.415
17803WAT     H153651   4.230   6.180   4.391
17803WAT     H253652   4.364   6.097   4.350
17804WAT      O53653   7.834   1.223   1.932
17804WAT     H153654   7.758   1.213   1.868
17804WAT     H253655   7.863   1.133   1.964
17805WAT      O53656   7.428   3.322   5.267
17805WAT     H153657   7.335   3.323   5.231
17805WAT     H253658   7.480   3.398   5.227
17806WAT      O53659   5.001   3.782   3.675
17806WAT     H153660   5.049   3.798   3.589
17806WAT     H253661   4.943   3.861   3.696
17807WAT      O53662   9.054   7.523   9.888
17807WAT     H153663   8.958   7.500   9.901
17807WAT     H253664   9.062   7.615   9.849
17808WAT      O53665   1.410   6.662   3.436
17808WAT     H153666   1.453   6.591   3.492
17808WAT     H253667   1.366   6.730   3.495
17809WAT      O53668   4.438   2.398   0.352
17809WAT     H153669   4.434   2.434   0.259
17809WAT     H253670   4.426   2.472   0.417
17810WAT      O53671   0.761   0.895   9.685
17810WAT     H153672   0.682   0.836   9.669
17810WAT     H253673   0.830   0.845   9.738
17811WAT      O53674   2.500   3.578   4.366
17811WAT     H153675   2.523   3.627   4.450
17811WAT     H253676   2.544   3.622   4.288
17812WAT      O53677   8.547   1.111   5.479
17812WAT     H153678   8.587   1.060   5.555
17812WAT     H253679   8.490   1.185   5.516
17813WAT      O53680   0.282   2.598   7.830
17813WAT     H153681   0.334   2.612   7.746
17813WAT     H253682   0.212   2.528   7.815
17814WAT      O53683   7.278   5.174   0.613
17814WAT     H153684   7.233   5.140   0.531
17814WAT     H253685   7.215   5.168   0.691
17815WAT      O53686   1.979   7.599   8.333
17815WAT     H153687   1.943   7.674   8.278
17815WAT     H253688   1.927   7.515   8.314
17816WAT      O53689   4.719   0.061   3.148
17816WAT     H153690   4.659   0.125   3.196
17816WAT     H253691   4.743   0.099   3.058
17817WAT      O53692   7.869   9.080   5.375
17817WAT     H153693   7.894   9.176   5.382
17817WAT     H253694   7.778   9.067   5.415
17818WAT      O53695   4.864   2.372   8.422
17818WAT     H153696   4.792   2.442   8.431
17818WAT     H253697   4.881   2.331   8.512
17819WAT      O53698   6.662   3.912   0.666
17819WAT     H153699   6.627   3.825   0.701
17819WAT     H253700   6.587   3.974   0.647
17820WAT      O53701   6.401   5.580   7.973
17820WAT     H153702   6.432   5.671   7.998
17820WAT     H253703   6.306   5.568   8.002
17821WAT      O53704   7.371   9.315   2.237
17821WAT     H153705   7.301   9.247   2.214
17821WAT     H253706   7.349   9.401   2.191
17822WAT      O53707   2.830   4.661   4.876
17822WAT     H153708   2.843   4.709   4.790
17822WAT     H253709   2.888   4.701   4.947
17823WAT      O53710   2.452   8.083   7.278
17823WAT     H153711   2.399   8.080   7.363
17823WAT     H253712   2.524   8.151   7.286
17824WAT      O53713   2.407   6.038   9.535
17824WAT     H153714   2.463   5.980   9.476
17824WAT     H253715   2.343   6.091   9.480
17825WAT      O53716   8.935   3.533   9.084
17825WAT     H153717   8.930   3.433   9.080
17825WAT     H253718   8.902   3.565   9.173
17826WAT      O53719   2.421   8.003   6.389
17826WAT     H153720   2.414   8.040   6.482
17826WAT     H253721   2.330   7.998   6.348
17827WAT      O53722   6.107   7.750   1.991
17827WAT     H153723   6.021   7.731   1.944
17827WAT     H253724   6.094   7.825   2.055
17828WAT      O53725   0.305   8.169   8.787
17828WAT     H153726   0.313   8.131   8.879
17828WAT     H253727   0.394   8.167   8.742
17829WAT      O53728   6.513   5.560   7.176
17829WAT     H153729   6.487   5.510   7.258
17829WAT     H253730   6.470   5.518   7.096
17830WAT      O53731   1.786   8.661   4.874
17830WAT     H153732   1.698   8.612   4.866
17830WAT     H253733   1.861   8.595   4.870
17831WAT      O53734   6.133   7.588   4.933
17831WAT     H153735   6.107   7.570   4.838
17831WAT     H253736   6.219   7.640   4.935
17832WAT      O53737   0.717   5.450   0.011
17832WAT     H153738   0.729   5.351   0.004
17832WAT     H253739   0.758   5.495  -0.068
17833WAT      O53740   5.034   2.192   5.677
17833WAT     H153741   5.029   2.129   5.600
17833WAT     H253742   5.055   2.141   5.761
17834WAT      O53743   6.192   3.405   8.196
17834WAT     H153744   6.197   3.396   8.295
17834WAT     H253745   6.244   3.485   8.167
17835WAT      O53746   5.034   8.371   1.723
17835WAT     H153747   4.958   8.347   1.783
17835WAT     H253748   5.004   8.368   1.628
17836WAT      O53749   0.148   7.494   8.723
17836WAT     H153750   0.188   7.501   8.632
17836WAT     H253751   0.060   7.541   8.724
17837WAT      O53752   3.889   3.413   5.636
17837WAT     H153753   3.919   3.399   5.542
17837WAT     H253754   3.789   3.414   5.640
17838WAT      O53755   3.923   5.265   4.044
17838WAT     H153756   3.971   5.341   4.088
17838WAT     H253757   3.846   5.300   3.991
17839WAT      O53758   8.731   5.777   2.170
17839WAT     H153759   8.766   5.857   2.220
17839WAT     H253760   8.646   5.746   2.212
17840WAT      O53761   6.545   1.487   6.322
17840WAT     H153762   6.641   1.510   6.342
17840WAT     H253763   6.534   1.473   6.223
17841WAT      O53764   2.693   2.814   4.310
17841WAT     H153765   2.740   2.900   4.287
17841WAT     H253766   2.627   2.792   4.238
17842WAT      O53767   4.635   1.431   6.733
17842WAT     H153768   4.675   1.361   6.793
17842WAT     H253769   4.633   1.518   6.781
17843WAT      O53770   8.432   3.175   7.497
17843WAT     H153771   8.508   3.124   7.538
17843WAT     H253772   8.424   3.264   7.541
17844WAT      O53773   0.041   4.208   6.618
17844WAT     H153774   0.012   4.303   6.609
17844WAT     H253775  -0.037   4.148   6.600
17845WAT      O53776   3.138   6.518   7.570
17845WAT     H153777   3.042   6.543   7.557
17845WAT     H253778   3.181   6.507   7.480
17846WAT      O53779   5.552   0.889   4.767
17846WAT     H153780   5.565   0.812   4.830
17846WAT     H253781   5.527   0.971   4.819
17847WAT      O53782   2.029   5.944   7.300
17847WAT     H153783   1.938   5.974   7.330
17847WAT     H253784   2.076   6.020   7.256
17848WAT      O53785   2.495   6.198   6.259
17848WAT     H153786   2.494   6.101   6.285
17848WAT     H253787   2.497   6.254   6.341
17849WAT      O53788   2.421   2.390   3.339
17849WAT     H153789   2.408   2.443   3.255
17849WAT     H253790   2.505   2.335   3.331
17850WAT      O53791   5.204   1.868   0.643
17850WAT     H153792   5.109   1.872   0.674
17850WAT     H253793   5.242   1.777   0.664
17851WAT      O53794   4.664   1.041   7.455
17851WAT     H153795   4.742   1.021   7.395
17851WAT     H253796   4.690   1.113   7.519
17852WAT      O53797   8.799   1.847   6.892
17852WAT     H153798   8.772   1.844   6.796
17852WAT     H253799   8.836   1.937   6.914
17853WAT      O53800   8.780   2.617   9.189
17853WAT     H153801   8.764   2.713   9.168
17853WAT     H253802   8.816   2.608   9.282
17854WAT      O53803   0.352   1.131   9.844
17854WAT     H153804   0.324   1.222   9.815
17854WAT     H253805   0.433   1.138   9.903
17855WAT      O53806   1.056   5.620   4.039
17855WAT     H153807   1.016   5.677   4.110
17855WAT     H253808   1.024   5.525   4.049
17856WAT      O53809   3.094   5.897   5.576
17856WAT     H153810   3.115   5.993   5.594
17856WAT     H253811   3.149   5.865   5.498
17857WAT      O53812   0.919   3.110   3.765
17857WAT     H153813   0.948   3.173   3.838
17857WAT     H253814   0.940   3.016   3.792
17858WAT      O53815   5.987   6.724   5.912
17858WAT     H153816   5.999   6.816   5.948
17858WAT     H253817   5.900   6.718   5.863
17859WAT      O53818   6.143   6.159   4.913
17859WAT     H153819   6.225   6.108   4.886
17859WAT     H253820   6.170   6.239   4.967
17860WAT      O53821   3.987   4.297   2.650
17860WAT     H153822   4.010   4.229   2.580
17860WAT     H253823   4.021   4.267   2.739
17861WAT      O53824   4.497   9.691   9.527
17861WAT     H153825   4.456   9.687   9.618
17861WAT     H253826   4.435   9.651   9.460
17862WAT      O53827   3.145   8.614   5.018
17862WAT     H153828   3.227   8.661   4.988
17862WAT     H253829   3.083   8.680   5.062
17863WAT      O53830   5.222   7.191   6.376
17863WAT     H153831   5.139   7.225   6.419
17863WAT     H253832   5.199   7.120   6.309
17864WAT      O53833   3.938   5.747   3.300
17864WAT     H153834   3.965   5.757   3.204
17864WAT     H253835   3.922   5.651   3.320
17865WAT      O53836   4.396   9.024   5.206
17865WAT     H153837   4.367   9.118   5.224
17865WAT     H253838   4.413   8.977   5.293
17866WAT      O53839   5.317   4.848   5.349
17866WAT     H153840   5.361   4.787   5.415
17866WAT     H253841   5.345   4.943   5.367
17867WAT      O53842   7.606   0.187   6.168
17867WAT     H153843   7.538   0.114   6.159
17867WAT     H253844   7.585   0.242   6.249
17868WAT      O53845   7.610   3.453   2.721
17868WAT     H153846   7.692   3.502   2.751
17868WAT     H253847   7.546   3.517   2.678
17869WAT      O53848   0.668   2.649   0.991
17869WAT     H153849   0.686   2.631   1.088
17869WAT     H253850   0.584   2.702   0.982
17870WAT      O53851   8.991   4.227   2.079
17870WAT     H153852   9.046   4.211   2.161
17870WAT     H253853   8.898   4.193   2.095
17871WAT      O53854   2.254   5.112   2.883
17871WAT     H153855   2.248   5.012   2.875
17871WAT     H253856   2.166   5.153   2.860
17872WAT      O53857   8.880   1.043   8.242
17872WAT     H153858   8.899   0.945   8.244
17872WAT     H253859   8.802   1.061   8.183
17873WAT      O53860   7.061   5.198   8.685
17873WAT     H153861   7.079   5.261   8.609
17873WAT     H253862   7.013   5.117   8.650
17874WAT      O53863   9.863   7.318   8.094
17874WAT     H153864   9.861   7.229   8.048
17874WAT     H253865   9.824   7.388   8.035
17875WAT      O53866   1.896   3.761   0.320
17875WAT     H153867   1.970   3.772   0.253
17875WAT     H253868   1.878   3.663   0.333
17876WAT      O53869   6.271   4.281   2.464
17876WAT     H153870   6.210   4.304   2.540
17876WAT     H253871   6.343   4.219   2.496
17877WAT      O53872   7.556   7.689   3.795
17877WAT     H153873   7.473   7.742   3.811
17877WAT     H253874   7.635   7.750   3.793
17878WAT      O53875   7.160   0.472   2.522
17878WAT     H153876   7.159   0.390   2.464
17878WAT     H253877   7.215   0.454   2.604
17879WAT      O53878   6.941   2.843   2.822
17879WAT     H153879   6.954   2.751   2.784
17879WAT     H253880   6.990   2.910   2.766
17880WAT      O53881   6.510   7.397   2.485
17880WAT     H153882   6.587   7.380   2.424
17880WAT     H253883   6.431   7.344   2.453
17881WAT      O53884   6.430   9.266   0.210
17881WAT     H153885   6.443   9.169   0.188
17881WAT     H253886   6.365   9.306   0.146
17882WAT      O53887   2.086   4.347   8.732
17882WAT     H153888   2.013   4.288   8.768
17882WAT     H253889   2.068   4.442   8.760
17883WAT      O53890   0.603   0.106   3.843
17883WAT     H153891   0.695   0.132   3.873
17883WAT     H253892   0.574   0.166   3.769
17884WAT      O53893   0.598   1.097   8.458
17884WAT     H153894   0.557   1.167   8.401
17884WAT     H253895   0.683   1.065   8.415
17885WAT      O53896   4.572   6.670   1.835
17885WAT     H153897   4.631   6.598   1.799
17885WAT     H253898   4.625   6.731   1.893
17886WAT      O53899   7.115   3.928   4.980
17886WAT     H153900   7.021   3.895   4.976
17886WAT     H253901   7.123   3.995   5.054
17887WAT      O53902   5.273   6.062   9.413
17887WAT     H153903   5.361   6.108   9.424
17887WAT     H253904   5.199   6.124   9.439
17888WAT      O53905   7.740   5.750   4.158
17888WAT     H153906   7.707   5.739   4.065
17888WAT     H253907   7.682   5.696   4.220
17889WAT      O53908   7.155   9.069   1.617
17889WAT     H153909   7.159   9.167   1.635
17889WAT     H253910   7.067   9.045   1.577
17890WAT      O53911   2.871   2.835   4.707
17890WAT     H153912   2.853   2.762   4.772
17890WAT     H253913   2.868   2.798   4.614
17891WAT      O53914   4.724   7.027   3.985
17891WAT     H153915   4.730   7.092   3.909
17891WAT     H253916   4.642   7.046   4.039
17892WAT      O53917   5.997   3.488   1.616
17892WAT     H153918   5.961   3.463   1.706
17892WAT     H253919   5.921   3.490   1.550
17893WAT      O53920   3.049   9.269   6.985
17893WAT     H153921   2.979   9.198   6.979
17893WAT     H253922   3.032   9.325   7.066
17894WAT      O53923   0.775   8.476   9.444
17894WAT     H153924   0.786   8.555   9.504
17894WAT     H253925   0.859   8.420   9.446
17895WAT      O53926   6.330   5.201   1.398
17895WAT     H153927   6.405   5.159   1.346
17895WAT     H253928   6.253   5.137   1.402
17896WAT      O53929   8.118   7.177   3.184
17896WAT     H153930   8.087   7.089   3.221
17896WAT     H253931   8.217   7.178   3.176
17897WAT      O53932   0.281   0.517   5.797
17897WAT     H153933   0.305   0.433   5.844
17897WAT     H253934   0.221   0.572   5.856
17898WAT      O53935   2.078   9.698   5.215
17898WAT     H153936   2.146   9.628   5.236
17898WAT     H253937   2.124   9.786   5.201
17899WAT      O53938   6.888   4.337   4.168
17899WAT     H153939   6.802   4.355   4.215
17899WAT     H253940   6.899   4.238   4.154
17900WAT      O53941   6.366   2.682   3.900
17900WAT     H153942   6.301   2.641   3.964
17900WAT     H253943   6.403   2.611   3.841
17901WAT      O53944   8.492   2.232   4.031
17901WAT     H153945   8.484   2.135   4.056
17901WAT     H253946   8.492   2.241   3.932
17902WAT      O53947   2.409   3.664   2.024
17902WAT     H153948   2.429   3.577   2.068
17902WAT     H253949   2.311   3.682   2.026
17903WAT      O53950   5.270   6.300   6.029
17903WAT     H153951   5.216   6.359   6.089
17903WAT     H253952   5.367   6.312   6.051
17904WAT      O53953   2.451   8.526   3.192
17904WAT     H153954   2.544   8.554   3.167
17904WAT     H253955   2.386   8.595   3.162
17905WAT      O53956   9.242   7.729   8.764
17905WAT     H153957   9.232   7.828   8.762
17905WAT     H253958   9.316   7.704   8.826
17906WAT      O53959   1.945   6.646   2.228
17906WAT     H153960   1.974   6.651   2.133
17906WAT     H253961   2.023   6.667   2.288
17907WAT      O53962   4.561   0.993   5.437
17907WAT     H153963   4.571   0.902   5.398
17907WAT     H253964   4.584   1.062   5.368
17908WAT      O53965   2.327   1.009   6.930
17908WAT     H153966   2.305   0.993   6.834
17908WAT     H253967   2.283   1.093   6.961
17909WAT      O53968   5.532   3.023   1.650
17909WAT     H153969   5.569   2.934   1.675
17909WAT     H253970   5.539   3.086   1.727
17910WAT      O53971   9.317   6.761   2.596
17910WAT     H153972   9.250   6.825   2.557
17910WAT     H253973   9.403   6.770   2.547
17911WAT      O53974   3.970   0.918   1.004
17911WAT     H153975   3.995   0.846   1.069
17911WAT     H253976   3.927   0.994   1.053
17912WAT      O53977   4.346   9.184   1.267
17912WAT     H153978   4.274   9.233   1.217
17912WAT     H253979   4.428   9.241   1.269
17913WAT      O53980   5.636   9.654   0.579
17913WAT     H153981   5.585   9.661   0.493
17913WAT     H253982   5.595   9.716   0.646
17914WAT      O53983   0.659   0.143   5.206
17914WAT     H153984   0.724   0.083   5.251
17914WAT     H253985   0.683   0.239   5.224
17915WAT      O53986   5.102   2.146   7.912
17915WAT     H153987   5.020   2.130   7.967
17915WAT     H253988   5.170   2.193   7.968
17916WAT      O53989   8.527   3.651   2.401
17916WAT     H153990   8.627   3.660   2.397
17916WAT     H253991   8.486   3.694   2.320
17917WAT      O53992   4.822   0.225   9.628
17917WAT     H153993   4.753   0.296   9.647
17917WAT     H253994   4.807   0.147   9.687
17918WAT      O53995   9.572   6.566   6.602
17918WAT     H153996   9.534   6.577   6.694
17918WAT     H253997   9.672   6.571   6.606
17919WAT      O53998   2.544   1.660   7.299
17919WAT     H153999   2.517   1.738   7.243
17919WAT     H254000   2.625   1.684   7.352
17920WAT      O54001   9.351   4.483   5.986
17920WAT     H154002   9.349   4.539   6.070
17920WAT     H254003   9.263   4.488   5.940
17921WAT      O54004   5.623   7.239   0.325
17921WAT     H154005   5.592   7.147   0.300
17921WAT     H254006   5.588   7.306   0.260
17922WAT      O54007   2.995   4.587   6.906
17922WAT     H154008   3.002   4.556   6.811
17922WAT     H254009   3.063   4.539   6.962
17923WAT      O54010   2.324   7.655   3.978
17923WAT     H154011   2.404   7.650   3.919
17923WAT     H254012   2.255   7.589   3.947
17924WAT      O54013   7.877   5.871   8.499
17924WAT     H154014   7.878   5.868   8.599
17924WAT     H254015   7.785   5.896   8.468
17925WAT      O54016   8.046   7.766   4.172
17925WAT     H154017   8.048   7.666   4.180
17925WAT     H254018   8.139   7.800   4.162
17926WAT      O54019   6.031   6.124   0.490
17926WAT     H154020   6.097   6.120   0.564
17926WAT     H254021   6.025   6.035   0.445
17927WAT      O54022   4.321   7.946   3.768
17927WAT     H154023   4.271   8.015   3.716
17927WAT     H254024   4.257   7.896   3.827
17928WAT      O54025   4.808   3.332   5.387
17928WAT     H154026   4.789   3.415   5.335
17928WAT     H254027   4.750   3.258   5.353
17929WAT      O54028   4.084   6.813   2.504
17929WAT     H154029   3.987   6.838   2.499
17929WAT     H254030   4.092   6.721   2.542
17930WAT      O54031   8.819   9.646   2.683
17930WAT     H154032   8.759   9.566   2.690
17930WAT     H254033   8.907   9.617   2.646
17931WAT      O54034   3.258   4.727   5.701
17931WAT     H154035   3.280   4.687   5.790
17931WAT     H254036   3.268   4.658   5.630
17932WAT      O54037   6.818   2.477   4.851
17932WAT     H154038   6.875   2.554   4.821
17932WAT     H254039   6.776   2.499   4.939
17933WAT      O54040   1.487   4.140   6.181
17933WAT     H154041   1.497   4.078   6.260
17933WAT     H254042   1.576   4.154   6.138
17934WAT      O54043   4.867   2.868   5.548
17934WAT     H154044   4.844   2.878   5.644
17934WAT     H254045   4.840   2.778   5.516
17935WAT      O54046   6.206   2.657   8.857
17935WAT     H154047   6.136   2.664   8.786
17935WAT     H254048   6.167   2.615   8.939
17936WAT      O54049   1.156   8.765   5.588
17936WAT     H154050   1.110   8.852   5.603
17936WAT     H254051   1.217   8.773   5.509
17937WAT      O54052   6.930   6.486   3.731
17937WAT     H154053   6.912   6.400   3.683
17937WAT     H254054   6.997   6.540   3.679
17938WAT      O54055   6.535   5.616   2.157
17938WAT     H154056   6.543   5.716   2.151
17938WAT     H254057   6.571   5.574   2.074
17939WAT      O54058   6.340   4.129   3.480
17939WAT     H154059   6.267   4.195   3.500
17939WAT     H254060   6.387   4.156   3.397
17940WAT      O54061   2.624   9.758   5.882
17940WAT     H154062   2.577   9.680   5.841
17940WAT     H254063   2.700   9.785   5.823
17941WAT      O54064   4.385   5.677   4.516
17941WAT     H154065   4.335   5.716   4.439
17941WAT     H254066   4.422   5.751   4.573
17942WAT      O54067   4.372   3.659   7.130
17942WAT     H154068   4.311   3.606   7.189
17942WAT     H254069   4.342   3.650   7.035
17943WAT      O54070   1.390   4.605   8.680
17943WAT     H154071   1.402   4.681   8.744
17943WAT     H254072   1.414   4.635   8.587
17944WAT      O54073   8.105   2.777   6.824
17944WAT     H154074   8.072   2.844   6.757
17944WAT     H254075   8.179   2.818   6.878
17945WAT      O54076   6.906   4.443   5.521
17945WAT     H154077   6.815   4.485   5.509
17945WAT     H254078   6.972   4.490   5.462
17946WAT      O54079   1.039   5.673   1.463
17946WAT     H154080   0.988   5.717   1.536
17946WAT     H254081   1.070   5.583   1.493
17947WAT      O54082   2.142   1.183   6.060
17947WAT     H154083   2.113   1.248   6.130
17947WAT     H254084   2.161   1.094   6.101
17948WAT      O54085   1.685   8.908   2.084
17948WAT     H154086   1.611   8.889   2.149
17948WAT     H254087   1.752   8.833   2.088
17949WAT      O54088   6.854   1.725   0.708
17949WAT     H154089   6.765   1.768   0.722
17949WAT     H254090   6.907   1.731   0.792
17950WAT      O54091   3.333   9.614   4.245
17950WAT     H154092   3.402   9.580   4.182
17950WAT     H254093   3.370   9.614   4.338
17951WAT      O54094   8.605   4.270   7.274
17951WAT     H154095   8.602   4.282   7.175
17951WAT     H254096   8.556   4.187   7.301
17952WAT      O54097   3.682   1.264   3.070
17952WAT     H154098   3.770   1.217   3.061
17952WAT     H254099   3.650   1.293   2.979
17953WAT      O54100   3.670   4.159   0.315
17953WAT     H154101   3.747   4.197   0.265
17953WAT     H254102   3.587   4.210   0.292
17954WAT      O54103   3.552   2.616   0.562
17954WAT     H154104   3.575   2.522   0.586
17954WAT     H254105   3.601   2.643   0.479
17955WAT      O54106   9.008   6.771   9.852
17955WAT     H154107   8.995   6.754   9.754
17955WAT     H254108   8.955   6.704   9.905
17956WAT      O54109   9.255   7.908   4.811
17956WAT     H154110   9.227   7.846   4.737
17956WAT     H254111   9.177   7.962   4.841
17957WAT      O54112   4.297   5.240   1.150
17957WAT     H154113   4.379   5.275   1.195
17957WAT     H254114   4.249   5.314   1.104
17958WAT      O54115   2.405   5.169   5.614
17958WAT     H154116   2.433   5.262   5.637
17958WAT     H254117   2.379   5.120   5.697
17959WAT      O54118   6.714   5.020   3.617
17959WAT     H154119   6.730   5.043   3.521
17959WAT     H254120   6.801   4.996   3.661
17960WAT      O54121   9.655   2.893   7.512
17960WAT     H154122   9.638   2.830   7.437
17960WAT     H254123   9.598   2.974   7.501
17961WAT      O54124   2.339   9.157   2.971
17961WAT     H154125   2.311   9.210   3.052
17961WAT     H254126   2.402   9.084   3.000
17962WAT      O54127   3.242   5.821   3.644
17962WAT     H154128   3.286   5.771   3.719
17962WAT     H254129   3.312   5.854   3.580
17963WAT      O54130   2.830   9.292   2.492
17963WAT     H154131   2.870   9.383   2.481
17963WAT     H254132   2.853   9.236   2.412
17964WAT      O54133   6.424   0.104   2.690
17964WAT     H154134   6.398   0.008   2.701
17964WAT     H254135   6.378   0.158   2.761
17965WAT      O54136   3.124   5.976   2.030
17965WAT     H154137   3.197   5.937   2.086
17965WAT     H254138   3.164   6.025   1.952
17966WAT      O54139   6.791   1.683   7.048
17966WAT     H154140   6.736   1.604   7.021
17966WAT     H254141   6.826   1.729   6.966
17967WAT      O54142   9.387   2.198   7.149
17967WAT     H154143   9.475   2.194   7.196
17967WAT     H254144   9.313   2.186   7.216
17968WAT      O54145   1.711   1.740   5.654
17968WAT     H154146   1.659   1.804   5.710
17968WAT     H254147   1.695   1.759   5.557
17969WAT      O54148   1.946   7.128   5.624
17969WAT     H154149   1.983   7.090   5.539
17969WAT     H254150   1.898   7.056   5.674
17970WAT      O54151   4.998   9.737   4.178
17970WAT     H154152   4.924   9.715   4.114
17970WAT     H254153   5.062   9.660   4.183
17971WAT      O54154   1.376   8.869   0.239
17971WAT     H154155   1.364   8.822   0.327
17971WAT     H254156   1.295   8.923   0.218
17972WAT      O54157   2.116   2.554   1.404
17972WAT     H154158   2.085   2.646   1.429
17972WAT     H254159   2.072   2.487   1.464
17973WAT      O54160   9.516   1.621   1.410
17973WAT     H154161   9.578   1.551   1.375
17973WAT     H254162   9.457   1.581   1.480
17974WAT      O54163   4.065   5.257   3.746
17974WAT     H154164   3.987   5.227   3.800
17974WAT     H254165   4.131   5.304   3.804
17975WAT      O54166   0.198   5.724   7.272
17975WAT     H154167   0.155   5.674   7.197
17975WAT     H254168   0.186   5.822   7.259
17976WAT      O54169   9.438   4.826   5.000
17976WAT     H154170   9.534   4.828   4.973
17976WAT     H254171   9.397   4.916   4.987
17977WAT      O54172   2.873   3.261   5.811
17977WAT     H154173   2.788   3.268   5.863
17977WAT     H254174   2.951   3.271   5.874
17978WAT      O54175   3.999   0.562   5.156
17978WAT     H154176   3.933   0.613   5.101
17978WAT     H254177   4.066   0.625   5.194
17979WAT      O54178   0.305   7.935   5.384
17979WAT     H154179   0.226   7.992   5.361
17979WAT     H254180   0.354   7.910   5.301
17980WAT      O54181   7.641   6.150   6.765
17980WAT     H154182   7.632   6.151   6.665
17980WAT     H254183   7.572   6.211   6.805
17981WAT      O54184   5.432   8.026   3.653
17981WAT     H154185   5.399   8.040   3.747
17981WAT     H254186   5.354   8.010   3.593
17982WAT      O54187   8.528   6.128   4.834
17982WAT     H154188   8.620   6.095   4.855
17982WAT     H254189   8.477   6.057   4.786
17983WAT      O54190   3.602   3.199   6.840
17983WAT     H154191   3.593   3.102   6.821
17983WAT     H254192   3.511   3.241   6.840
17984WAT      O54193   4.632   1.845   5.808
17984WAT     H154194   4.616   1.756   5.765
17984WAT     H254195   4.662   1.832   5.902
17985WAT      O54196   0.648   7.485   0.501
17985WAT     H154197   0.619   7.524   0.589
17985WAT     H254198   0.593   7.405   0.479
17986WAT      O54199   4.512   0.099   7.134
17986WAT     H154200   4.432   0.048   7.104
17986WAT     H254201   4.484   0.186   7.175
17987WAT      O54202   8.419   1.299   9.086
17987WAT     H154203   8.373   1.380   9.121
17987WAT     H254204   8.497   1.276   9.144
17988WAT      O54205   0.107   3.259   3.570
17988WAT     H154206   0.013   3.224   3.570
17988WAT     H254207   0.129   3.296   3.660
17989WAT      O54208   9.364   2.124   6.393
17989WAT     H154209   9.349   2.152   6.298
17989WAT     H254210   9.380   2.205   6.449
17990WAT      O54211   8.382   5.730   7.260
17990WAT     H154212   8.413   5.670   7.187
17990WAT     H254213   8.324   5.802   7.223
17991WAT      O54214   2.038   5.138   9.063
17991WAT     H154215   2.100   5.095   9.128
17991WAT     H254216   2.042   5.237   9.074
17992WAT      O54217   1.776   2.995   1.218
17992WAT     H154218   1.750   3.079   1.172
17992WAT     H254219   1.831   3.016   1.298
17993WAT      O54220   7.866   5.602   3.615
17993WAT     H154221   7.905   5.688   3.584
17993WAT     H254222   7.766   5.606   3.609
17994WAT      O54223   5.468   0.220   4.565
17994WAT     H154224   5.552   0.246   4.516
17994WAT     H254225   5.486   0.218   4.663
17995WAT      O54226   9.552   9.242   3.004
17995WAT     H154227   9.506   9.180   3.068
17995WAT     H254228   9.633   9.196   2.967
17996WAT      O54229   1.845   6.437   3.284
17996WAT     H154230   1.802   6.376   3.350
17996WAT     H254231   1.903   6.383   3.221
17997WAT      O54232   6.664   6.546   3.038
17997WAT     H154233   6.585   6.567   3.095
17997WAT     H254234   6.705   6.460   3.068
17998WAT      O54235   9.319   6.487   5.020
17998WAT     H154236   9.246   6.438   5.068
17998WAT     H254237   9.334   6.446   4.930
17999WAT      O54238   5.311   0.236   2.322
17999WAT     H154239   5.265   0.241   2.411
17999WAT     H254240   5.276   0.158   2.271
18000WAT      O54241   9.325   3.008   4.412
18000WAT     H154242   9.403   2.974   4.359
18000WAT     H254243   9.348   3.004   4.509
18001WAT      O54244   8.315   8.676   0.475
18001WAT     H154245   8.295   8.656   0.379
18001WAT     H254246   8.394   8.737   0.479
18002WAT      O54247   4.479   2.009   4.817
18002WAT     H154248   4.465   2.085   4.752
18002WAT     H254249   4.553   1.951   4.783
18003WAT      O54250   1.133   7.355   0.982
18003WAT     H154251   1.115   7.361   0.884
18003WAT     H254252   1.161   7.262   1.006
18004WAT      O54253   3.846   3.035   7.474
18004WAT     H154254   3.823   3.024   7.377
18004WAT     H254255   3.822   2.952   7.524
18005WAT      O54256   5.816   5.171   7.274
18005WAT     H154257   5.873   5.239   7.226
18005WAT     H254258   5.720   5.194   7.261
18006WAT      O54259   1.793   8.722   0.387
18006WAT     H154260   1.737   8.800   0.359
18006WAT     H254261   1.877   8.755   0.429
18007WAT      O54262   6.025   6.739   5.104
18007WAT     H154263   5.989   6.831   5.088
18007WAT     H254264   6.110   6.728   5.053
18008WAT      O54265   5.969   4.455   0.302
18008WAT     H154266   6.019   4.520   0.244
18008WAT     H254267   5.903   4.405   0.246
18009WAT      O54268   3.372   3.948   5.332
18009WAT     H154269   3.391   4.030   5.386
18009WAT     H254270   3.446   3.934   5.265
18010WAT      O54271   3.888   2.789   3.599
18010WAT     H154272   3.813   2.852   3.617
18010WAT     H254273   3.855   2.695   3.607
18011WAT      O54274   2.690   0.428   5.054
18011WAT     H154275   2.644   0.389   4.974
18011WAT     H254276   2.789   0.427   5.040
18012WAT      O54277   1.982   9.579   9.695
18012WAT     H154278   2.009   9.640   9.769
18012WAT     H254279   2.015   9.616   9.608
18013WAT      O54280   5.785   2.551   2.739
18013WAT     H154281   5.689   2.524   2.727
18013WAT     H254282   5.789   2.644   2.775
18014WAT      O54283   8.541   5.855   8.572
18014WAT     H154284   8.457   5.866   8.625
18014WAT     H254285   8.549   5.760   8.541
18015WAT      O54286   2.603   3.572   0.894
18015WAT     H154287   2.627   3.656   0.846
18015WAT     H254288   2.543   3.516   0.836
18016WAT      O54289   0.321   9.600   5.167
18016WAT     H154290   0.274   9.545   5.237
18016WAT     H254291   0.328   9.694   5.199
18017WAT      O54292   7.035   7.871   0.701
18017WAT     H154293   7.125   7.904   0.730
18017WAT     H254294   6.971   7.877   0.778
18018WAT      O54295   1.210   1.484   0.813
18018WAT     H154296   1.179   1.519   0.725
18018WAT     H254297   1.309   1.494   0.820
18019WAT      O54298   4.100   9.311   9.224
18019WAT     H154299   4.060   9.248   9.291
18019WAT     H254300   4.076   9.405   9.250
18020WAT      O54301   1.539   0.861   5.674
18020WAT     H154302   1.608   0.791   5.652
18020WAT     H254303   1.468   0.821   5.730
18021WAT      O54304   4.947   8.239   0.014
18021WAT     H154305   5.027   8.181  -0.002
18021WAT     H254306   4.880   8.224  -0.059
18022WAT      O54307   3.775   6.323   5.359
18022WAT     H154308   3.760   6.417   5.389
18022WAT     H254309   3.702   6.265   5.394
18023WAT      O54310   2.559   1.152   8.040
18023WAT     H154311   2.525   1.246   8.040
18023WAT     H254312   2.533   1.106   8.125
18024WAT      O54313   2.164   7.174   0.883
18024WAT     H154314   2.226   7.118   0.939
18024WAT     H254315   2.218   7.225   0.815
18025WAT      O54316   7.875   7.451   2.434
18025WAT     H154317   7.942   7.421   2.365
18025WAT     H254318   7.789   7.473   2.389
18026WAT      O54319   0.412   8.910   5.920
18026WAT     H154320   0.321   8.876   5.899
18026WAT     H254321   0.478   8.835   5.912
18027WAT      O54322   2.552   8.376   7.940
18027WAT     H154323   2.529   8.289   7.984
18027WAT     H254324   2.644   8.403   7.967
18028WAT      O54325   2.444   4.330   0.332
18028WAT     H154326   2.385   4.292   0.261
18028WAT     H254327   2.396   4.403   0.380
18029WAT      O54328   4.719   4.450   0.096
18029WAT     H154329   4.789   4.379   0.088
18029WAT     H254330   4.672   4.461   0.009
18030WAT      O54331   8.361   4.272   4.196
18030WAT     H154332   8.380   4.191   4.140
18030WAT     H254333   8.281   4.319   4.160
18031WAT      O54334   8.268   5.838   8.648
18031WAT     H154335   8.245   5.928   8.685
18031WAT     H254336   8.219   5.824   8.562
18032WAT      O54337   5.155   5.934   5.233
18032WAT     H154338   5.212   5.852   5.226
18032WAT     H254339   5.084   5.932   5.162
18033WAT      O54340   3.539   8.598   8.435
18033WAT     H154341   3.561   8.662   8.509
18033WAT     H254342   3.592   8.621   8.354
18034WAT      O54343   9.810   0.767   6.369
18034WAT     H154344   9.831   0.770   6.467
18034WAT     H254345   9.780   0.675   6.344
18035WAT      O54346   7.131   4.911  -0.000
18035WAT     H154347   7.072   4.830   0.007
18035WAT     H254348   7.087   4.988   0.046
18036WAT      O54349   7.457   1.845   6.578
18036WAT     H154350   7.399   1.765   6.564
18036WAT     H254351   7.553   1.818   6.565
18037WAT      O54352   0.613   2.505   3.247
18037WAT     H154353   0.606   2.544   3.155
18037WAT     H254354   0.637   2.408   3.241
18038WAT      O54355   9.390   3.002   4.656
18038WAT     H154356   9.348   2.953   4.733
18038WAT     H254357   9.484   3.026   4.680
18039WAT      O54358   7.653   2.786   8.637
18039WAT     H154359   7.615   2.763   8.548
18039WAT     H254360   7.583   2.773   8.708
18040WAT      O54361   4.704   6.653   0.882
18040WAT     H154362   4.774   6.592   0.919
18040WAT     H254363   4.613   6.618   0.905
18041WAT      O54364   4.296   4.038   4.956
18041WAT     H154365   4.392   4.062   4.942
18041WAT     H254366   4.289   3.946   4.994
18042WAT      O54367   2.116   6.865   1.182
18042WAT     H154368   2.059   6.935   1.140
18042WAT     H254369   2.134   6.889   1.278
18043WAT      O54370   9.163   4.109   2.654
18043WAT     H154371   9.077   4.147   2.621
18043WAT     H254372   9.233   4.117   2.583
18044WAT      O54373   7.598   5.595   3.605
18044WAT     H154374   7.533   5.570   3.533
18044WAT     H254375   7.557   5.664   3.665
18045WAT      O54376   1.835   4.657   1.079
18045WAT     H154377   1.764   4.610   1.132
18045WAT     H254378   1.888   4.716   1.140
18046WAT      O54379   2.028   4.451   5.781
18046WAT     H154380   1.972   4.380   5.738
18046WAT     H254381   2.111   4.409   5.818
18047WAT      O54382   9.700   6.774   0.849
18047WAT     H154383   9.737   6.687   0.882
18047WAT     H254384   9.661   6.825   0.925
18048WAT      O54385   5.596   6.129   5.113
18048WAT     H154386   5.636   6.053   5.165
18048WAT     H254387   5.656   6.152   5.036
18049WAT      O54388   3.147   5.040   9.495
18049WAT     H154389   3.170   4.949   9.529
18049WAT     H254390   3.230   5.095   9.489
18050WAT      O54391   4.825   5.330   1.497
18050WAT     H154392   4.921   5.356   1.484
18050WAT     H254393   4.780   5.322   1.408
18051WAT      O54394   7.607   9.695   0.887
18051WAT     H154395   7.689   9.741   0.851
18051WAT     H254396   7.634   9.630   0.957
18052WAT      O54397   1.766   1.381   5.175
18052WAT     H154398   1.710   1.317   5.228
18052WAT     H254399   1.710   1.426   5.106
18053WAT      O54400   6.360   1.616   1.882
18053WAT     H154401   6.356   1.673   1.963
18053WAT     H254402   6.443   1.559   1.885
18054WAT      O54403   4.383   8.230   0.973
18054WAT     H154404   4.303   8.284   0.950
18054WAT     H254405   4.354   8.144   1.016
18055WAT      O54406   5.216   0.431   8.929
18055WAT     H154407   5.132   0.447   8.877
18055WAT     H254408   5.291   0.413   8.866
18056WAT      O54409   0.569   3.171   1.378
18056WAT     H154410   0.479   3.211   1.398
18056WAT     H254411   0.637   3.244   1.370
18057WAT      O54412   4.218   8.054   5.666
18057WAT     H154413   4.131   8.099   5.681
18057WAT     H254414   4.259   8.029   5.754
18058WAT      O54415   4.688   1.005   6.807
18058WAT     H154416   4.738   0.920   6.796
18058WAT     H254417   4.743   1.081   6.772
18059WAT      O54418   5.301   6.597   0.117
18059WAT     H154419   5.394   6.573   0.088
18059WAT     H254420   5.252   6.638   0.039
18060WAT      O54421   5.564   6.411   6.823
18060WAT     H154422   5.657   6.441   6.842
18060WAT     H254423   5.512   6.408   6.909
18061WAT      O54424   2.479   9.030   3.702
18061WAT     H154425   2.405   9.012   3.767
18061WAT     H254426   2.440   9.067   3.618
18062WAT      O54427   8.242   7.633   3.349
18062WAT     H154428   8.188   7.625   3.265
18062WAT     H254429   8.332   7.591   3.336
18063WAT      O54430   7.634   6.458   1.458
18063WAT     H154431   7.654   6.553   1.477
18063WAT     H254432   7.617   6.446   1.360
18064WAT      O54433   0.950   3.300   5.674
18064WAT     H154434   0.860   3.331   5.644
18064WAT     H254435   1.000   3.377   5.715
18065WAT      O54436   4.515   6.633   7.970
18065WAT     H154437   4.593   6.694   7.981
18065WAT     H254438   4.509   6.571   8.048
18066WAT      O54439   7.598   2.612   2.733
18066WAT     H154440   7.591   2.684   2.664
18066WAT     H254441   7.629   2.527   2.690
18067WAT      O54442   7.140   8.731   8.544
18067WAT     H154443   7.116   8.764   8.453
18067WAT     H254444   7.094   8.787   8.613
18068WAT      O54445   7.161   1.297   8.805
18068WAT     H154446   7.220   1.362   8.854
18068WAT     H254447   7.195   1.285   8.712
18069WAT      O54448   9.344   7.900   4.144
18069WAT     H154449   9.272   7.906   4.214
18069WAT     H254450   9.414   7.969   4.162
18070WAT      O54451   6.861   8.368   2.614
18070WAT     H154452   6.841   8.367   2.712
18070WAT     H254453   6.786   8.414   2.566
18071WAT      O54454   6.509   1.558   0.267
18071WAT     H154455   6.608   1.567   0.257
18071WAT     H254456   6.486   1.548   0.364
18072WAT      O54457   8.045   4.988   3.355
18072WAT     H154458   8.061   4.890   3.347
18072WAT     H254459   8.062   5.032   3.267
18073WAT      O54460   1.750   2.974   9.539
18073WAT     H154461   1.698   2.918   9.475
18073WAT     H254462   1.699   2.984   9.624
18074WAT      O54463   0.166   4.578   0.193
18074WAT     H154464   0.209   4.576   0.283
18074WAT     H254465   0.234   4.602   0.123
18075WAT      O54466   3.872   1.323   5.043
18075WAT     H154467   3.840   1.255   5.109
18075WAT     H254468   3.932   1.279   4.976
18076WAT      O54469   8.329   1.864   9.363
18076WAT     H154470   8.266   1.941   9.375
18076WAT     H254471   8.314   1.822   9.274
18077WAT      O54472   9.223   6.185   4.976
18077WAT     H154473   9.216   6.211   5.072
18077WAT     H254474   9.308   6.221   4.937
18078WAT      O54475   6.514   0.715   8.731
18078WAT     H154476   6.421   0.745   8.748
18078WAT     H254477   6.558   0.777   8.666
18079WAT      O54478   8.782   2.515   8.334
18079WAT     H154479   8.774   2.488   8.430
18079WAT     H254480   8.829   2.602   8.328
18080WAT      O54481   9.198   6.836   0.126
18080WAT     H154482   9.137   6.801   0.055
18080WAT     H254483   9.190   6.779   0.208
18081WAT      O54484   2.530   7.638   3.796
18081WAT     H154485   2.568   7.597   3.713
18081WAT     H254486   2.603   7.657   3.861
18082WAT      O54487   9.874   1.482   0.128
18082WAT     H154488   9.870   1.542   0.048
18082WAT     H254489   9.859   1.537   0.210
18083WAT      O54490   3.208   6.576   6.101
18083WAT     H154491   3.149   6.647   6.139
18083WAT     H254492   3.208   6.497   6.162
18084WAT      O54493   4.183   7.625   1.155
18084WAT     H154494   4.254   7.636   1.085
18084WAT     H254495   4.225   7.617   1.245
18085WAT      O54496   6.268   6.383   5.332
18085WAT     H154497   6.327   6.405   5.254
18085WAT     H254498   6.311   6.416   5.416
18086WAT      O54499   1.497   2.546   0.897
18086WAT     H154500   1.416   2.603   0.888
18086WAT     H254501   1.495   2.474   0.827
18087WAT      O54502   4.987   3.724   0.207
18087WAT     H154503   4.898   3.733   0.250
18087WAT     H254504   5.043   3.660   0.261
18088WAT      O54505   3.779   3.143   8.390
18088WAT     H154506   3.849   3.092   8.442
18088WAT     H254507   3.715   3.079   8.349
18089WAT      O54508   1.424   7.339   8.128
18089WAT     H154509   1.406   7.437   8.134
18089WAT     H254510   1.473   7.309   8.210
18090WAT      O54511   1.720   8.486   8.204
18090WAT     H154512   1.694   8.556   8.270
18090WAT     H254513   1.645   8.421   8.192
18091WAT      O54514   7.659   6.562   4.633
18091WAT     H154515   7.702   6.597   4.550
18091WAT     H254516   7.575   6.513   4.609
18092WAT      O54517   2.021   8.128   8.222
18092WAT     H154518   1.966   8.106   8.141
18092WAT     H254519   1.962   8.125   8.303
18093WAT      O54520   0.776   0.109   9.214
18093WAT     H154521   0.798   0.059   9.298
18093WAT     H254522   0.743   0.044   9.145
18094WAT      O54523   6.952   2.792   5.127
18094WAT     H154524   6.868   2.739   5.117
18094WAT     H254525   6.932   2.878   5.174
18095WAT      O54526   1.732   5.476   7.428
18095WAT     H154527   1.682   5.478   7.514
18095WAT     H254528   1.820   5.522   7.439
18096WAT      O54529   6.394   7.809   5.768
18096WAT     H154530   6.325   7.739   5.748
18096WAT     H254531   6.350   7.888   5.810
18097WAT      O54532   2.490   4.236   6.785
18097WAT     H154533   2.539   4.301   6.726
18097WAT     H254534   2.439   4.172   6.727
18098WAT      O54535   1.598   6.250   5.184
18098WAT     H154536   1.599   6.340   5.228
18098WAT     H254537   1.506   6.212   5.188
18099WAT      O54538   7.452   9.016   9.634
18099WAT     H154539   7.519   8.984   9.567
18099WAT     H254540   7.363   8.977   9.613
18100WAT      O54541   8.064   5.281   6.241
18100WAT     H154542   8.114   5.366   6.251
18100WAT     H254543   7.968   5.294   6.267
18101WAT      O54544   2.775   7.464   4.200
18101WAT     H154545   2.742   7.370   4.197
18101WAT     H254546   2.731   7.512   4.276
18102WAT      O54547   3.170   1.841   7.748
18102WAT     H154548   3.250   1.781   7.748
18102WAT     H254549   3.168   1.894   7.663
18103WAT      O54550   4.428   2.234   4.690
18103WAT     H154551   4.488   2.308   4.657
18103WAT     H254552   4.345   2.232   4.636
18104WAT      O54553   8.665   7.682   9.261
18104WAT     H154554   8.630   7.762   9.212
18104WAT     H254555   8.643   7.599   9.209
18105WAT      O54556   8.779   7.684   8.361
18105WAT     H154557   8.817   7.769   8.324
18105WAT     H254558   8.748   7.627   8.286
18106WAT      O54559   8.458   9.471   2.225
18106WAT     H154560   8.434   9.375   2.215
18106WAT     H254561   8.396   9.515   2.290
18107WAT      O54562   0.082   2.830   8.585
18107WAT     H154563   0.175   2.809   8.614
18107WAT     H254564   0.057   2.771   8.508
18108WAT      O54565   7.678   6.048   3.208
18108WAT     H154566   7.619   5.979   3.251
18108WAT     H254567   7.736   6.004   3.140
18109WAT      O54568   1.713   3.824   7.203
18109WAT     H154569   1.663   3.866   7.278
18109WAT     H254570   1.807   3.805   7.231
18110WAT      O54571   1.565   6.986   6.290
18110WAT     H154572   1.644   6.931   6.316
18110WAT     H254573   1.595   7.061   6.231
18111WAT      O54574   3.831   3.043   4.798
18111WAT     H154575   3.851   2.957   4.845
18111WAT     H254576   3.792   3.109   4.863
18112WAT      O54577   3.037   0.609   6.228
18112WAT     H154578   3.124   0.642   6.264
18112WAT     H254579   2.970   0.602   6.302
18113WAT      O54580   4.924   1.879   6.153
18113WAT     H154581   4.884   1.948   6.213
18113WAT     H254582   4.852   1.827   6.109
18114WAT      O54583   7.292   2.266   0.415
18114WAT     H154584   7.276   2.357   0.452
18114WAT     H254585   7.298   2.271   0.315
18115WAT      O54586   5.412   6.269   1.449
18115WAT     H154587   5.318   6.239   1.438
18115WAT     H254588   5.451   6.287   1.358
18116WAT      O54589   4.903   7.586   4.745
18116WAT     H154590   4.930   7.633   4.829
18116WAT     H254591   4.960   7.617   4.669
18117WAT      O54592   9.304   0.117   6.400
18117WAT     H154593   9.264   0.164   6.321
18117WAT     H254594   9.260   0.028   6.412
18118WAT      O54595   9.319   5.897   6.128
18118WAT     H154596   9.283   5.807   6.103
18118WAT     H254597   9.419   5.897   6.118
18119WAT      O54598   8.488   6.861   6.732
18119WAT     H154599   8.556   6.797   6.769
18119WAT     H254600   8.397   6.824   6.744
18120WAT      O54601   1.573   8.235   0.699
18120WAT     H154602   1.592   8.145   0.662
18120WAT     H254603   1.479   8.261   0.677
18121WAT      O54604   5.189   6.929   9.433
18121WAT     H154605   5.207   6.929   9.335
18121WAT     H254606   5.264   6.883   9.481
18122WAT      O54607   8.003   3.076   3.343
18122WAT     H154608   7.904   3.064   3.336
18122WAT     H254609   8.028   3.165   3.306
18123WAT      O54610   0.782   2.885   3.579
18123WAT     H154611   0.710   2.955   3.574
18123WAT     H254612   0.754   2.813   3.643
18124WAT      O54613   5.949   6.456   9.315
18124WAT     H154614   5.874   6.393   9.293
18124WAT     H254615   5.920   6.550   9.297
18125WAT      O54616   8.349   1.050   2.305
18125WAT     H154617   8.381   1.126   2.362
18125WAT     H254618   8.282   0.997   2.356
18126WAT      O54619   3.625   0.461   5.735
18126WAT     H154620   3.526   0.476   5.746
18126WAT     H254621   3.675   0.524   5.794
18127WAT      O54622   9.350   3.603   7.140
18127WAT     H154623   9.446   3.622   7.120
18127WAT     H254624   9.327   3.642   7.229
18128WAT      O54625   1.406   9.173   0.561
18128WAT     H154626   1.449   9.187   0.472
18128WAT     H254627   1.474   9.135   0.625
18129WAT      O54628   0.122   1.102   5.783
18129WAT     H154629   0.164   1.024   5.830
18129WAT     H254630   0.051   1.068   5.721
18130WAT      O54631   7.945   3.817   1.873
18130WAT     H154632   7.938   3.833   1.971
18130WAT     H254633   7.923   3.722   1.853
18131WAT      O54634   2.680   6.934   9.774
18131WAT     H154635   2.720   6.871   9.841
18131WAT     H254636   2.720   7.025   9.786
18132WAT      O54637   3.382   7.406   0.896
18132WAT     H154638   3.344   7.382   0.985
18132WAT     H254639   3.386   7.324   0.839
18133WAT      O54640   5.221   0.978   2.400
18133WAT     H154641   5.317   0.988   2.373
18133WAT     H254642   5.194   1.056   2.457
18134WAT      O54643   9.292   2.513   8.610
18134WAT     H154644   9.270   2.608   8.589
18134WAT     H254645   9.253   2.453   8.540
18135WAT      O54646   8.175   9.272   9.522
18135WAT     H154647   8.141   9.299   9.612
18135WAT     H254648   8.191   9.354   9.467
18136WAT      O54649   3.818   6.675   8.459
18136WAT     H154650   3.876   6.630   8.527
18136WAT     H254651   3.872   6.694   8.377
18137WAT      O54652   0.109   9.311   5.534
18137WAT     H154653   0.014   9.283   5.521
18137WAT     H254654   0.170   9.238   5.503
18138WAT      O54655   3.493   5.288   3.348
18138WAT     H154656   3.533   5.368   3.303
18138WAT     H254657   3.539   5.205   3.315
18139WAT      O54658   7.695   7.510   1.180
18139WAT     H154659   7.721   7.439   1.246
18139WAT     H254660   7.774   7.567   1.159
18140WAT      O54661   1.321   2.622   9.576
18140WAT     H154662   1.302   2.681   9.655
18140WAT     H254663   1.346   2.530   9.608
18141WAT      O54664   5.838   4.575   0.507
18141WAT     H154665   5.799   4.651   0.455
18141WAT     H254666   5.909   4.530   0.452
18142WAT      O54667   2.539   6.060   1.404
18142WAT     H154668   2.500   5.968   1.411
18142WAT     H254669   2.628   6.062   1.449
18143WAT      O54670   3.944   3.167   5.732
18143WAT     H154671   3.912   3.259   5.710
18143WAT     H254672   3.877   3.123   5.792
18144WAT      O54673   5.901   3.941   0.640
18144WAT     H154674   5.869   4.001   0.713
18144WAT     H254675   5.826   3.921   0.577
18145WAT      O54676   3.629   1.763   6.598
18145WAT     H154677   3.696   1.718   6.539
18145WAT     H254678   3.539   1.760   6.554
18146WAT      O54679   1.597   2.919   9.048
18146WAT     H154680   1.508   2.951   9.080
18146WAT     H254681   1.670   2.957   9.105
18147WAT      O54682   6.518   0.479   3.965
18147WAT     H154683   6.468   0.540   4.027
18147WAT     H254684   6.598   0.527   3.930
18148WAT      O54685   7.774   1.641   8.715
18148WAT     H154686   7.813   1.577   8.649
18148WAT     H254687   7.675   1.630   8.716
18149WAT      O54688   5.072   5.135   9.763
18149WAT     H154689   5.019   5.072   9.707
18149WAT     H254690   5.096   5.216   9.709
18150WAT      O54691   3.217   9.333   0.040
18150WAT     H154692   3.307   9.289   0.028
18150WAT     H254693   3.207   9.407  -0.027
18151WAT      O54694   4.126   0.434   6.646
18151WAT     H154695   4.045   0.437   6.704
18151WAT     H254696   4.198   0.382   6.692
18152WAT      O54697   5.382   6.153   6.796
18152WAT     H154698   5.311   6.105   6.848
18152WAT     H254699   5.431   6.216   6.857
18153WAT      O54700   9.532   9.648   5.809
18153WAT     H154701   9.604   9.717   5.800
18153WAT     H254702   9.450   9.680   5.761
18154WAT      O54703   1.072   2.042   6.023
18154WAT     H154704   1.004   1.973   5.999
18154WAT     H254705   1.028   2.132   6.022
18155WAT      O54706   4.759   0.788   6.544
18155WAT     H154707   4.834   0.723   6.559
18155WAT     H254708   4.786   0.878   6.577
18156WAT      O54709   0.399   2.219   4.137
18156WAT     H154710   0.465   2.255   4.072
18156WAT     H254711   0.328   2.167   4.088
18157WAT      O54712   2.609   0.236   3.847
18157WAT     H154713   2.572   0.295   3.919
18157WAT     H254714   2.536   0.179   3.809
18158WAT      O54715   4.395   3.850   3.313
18158WAT     H154716   4.490   3.821   3.328
18158WAT     H254717   4.338   3.815   3.387
18159WAT      O54718   9.603   4.135   1.659
18159WAT     H154719   9.522   4.176   1.701
18159WAT     H254720   9.684   4.158   1.713
18160WAT      O54721   3.206   9.438   6.214
18160WAT     H154722   3.175   9.516   6.268
18160WAT     H254723   3.282   9.465   6.155
18161WAT      O54724   8.849   0.932   5.866
18161WAT     H154725   8.798   1.009   5.825
18161WAT     H254726   8.792   0.886   5.933
18162WAT      O54727   3.061   8.009   9.539
18162WAT     H154728   3.143   7.976   9.586
18162WAT     H254729   3.024   7.936   9.482
18163WAT      O54730   1.084   3.482   5.854
18163WAT     H154731   1.109   3.389   5.883
18163WAT     H254732   1.084   3.543   5.933
18164WAT      O54733   0.751   5.822   1.776
18164WAT     H154734   0.674   5.830   1.712
18164WAT     H254735   0.716   5.807   1.868
18165WAT      O54736   1.485   8.108   9.740
18165WAT     H154737   1.574   8.133   9.779
18165WAT     H254738   1.434   8.191   9.717
18166WAT      O54739   3.740   6.175   7.706
18166WAT     H154740   3.646   6.204   7.692
18166WAT     H254741   3.792   6.188   7.621
18167WAT      O54742   8.183   1.150   1.169
18167WAT     H154743   8.168   1.157   1.071
18167WAT     H254744   8.213   1.057   1.192
18168WAT      O54745   0.134   0.261   9.290
18168WAT     H154746   0.068   0.331   9.317
18168WAT     H254747   0.211   0.260   9.355
18169WAT      O54748   2.739   0.856   5.838
18169WAT     H154749   2.743   0.954   5.824
18169WAT     H254750   2.824   0.825   5.880
18170WAT      O54751   8.414   6.489   2.738
18170WAT     H154752   8.348   6.564   2.734
18170WAT     H254753   8.443   6.476   2.833
18171WAT      O54754   7.794   3.423   0.911
18171WAT     H154755   7.807   3.336   0.959
18171WAT     H254756   7.884   3.466   0.897
18172WAT      O54757   6.013   0.429   1.009
18172WAT     H154758   6.050   0.355   0.953
18172WAT     H254759   5.990   0.506   0.950
18173WAT      O54760   9.669   4.761   5.614
18173WAT     H154761   9.726   4.679   5.618
18173WAT     H254762   9.614   4.767   5.697
18174WAT      O54763   8.863   5.723   1.955
18174WAT     H154764   8.824   5.757   1.870
18174WAT     H254765   8.796   5.731   2.029
18175WAT      O54766   1.890   0.497   1.532
18175WAT     H154767   1.916   0.568   1.597
18175WAT     H254768   1.831   0.538   1.461
18176WAT      O54769   6.960   1.836   4.640
18176WAT     H154770   7.002   1.917   4.680
18176WAT     H254771   6.865   1.856   4.615
18177WAT      O54772   8.177   5.963   4.452
18177WAT     H154773   8.181   5.973   4.352
18177WAT     H254774   8.266   5.931   4.485
18178WAT      O54775   8.237   7.665   8.089
18178WAT     H154776   8.301   7.637   8.161
18178WAT     H254777   8.255   7.759   8.063
18179WAT      O54778   3.254   0.373   9.109
18179WAT     H154779   3.289   0.419   9.027
18179WAT     H254780   3.207   0.289   9.082
18180WAT      O54781   8.352   1.689   4.840
18180WAT     H154782   8.301   1.636   4.772
18180WAT     H254783   8.450   1.677   4.824
18181WAT      O54784   4.521   1.896   9.521
18181WAT     H154785   4.509   1.969   9.454
18181WAT     H254786   4.576   1.823   9.481
18182WAT      O54787   2.710   7.637   4.010
18182WAT     H154788   2.670   7.724   4.038
18182WAT     H254789   2.729   7.581   4.091
18183WAT      O54790   4.456   0.871   0.681
18183WAT     H154791   4.383   0.808   0.708
18183WAT     H254792   4.415   0.958   0.651
18184WAT      O54793   5.472   7.589   7.195
18184WAT     H154794   5.565   7.550   7.196
18184WAT     H254795   5.466   7.655   7.119
18185WAT      O54796   4.269   3.092   8.576
18185WAT     H154797   4.311   3.085   8.486
18185WAT     H254798   4.291   3.181   8.617
18186WAT      O54799   4.235   1.651   0.524
18186WAT     H154800   4.167   1.577   0.519
18186WAT     H254801   4.268   1.672   0.433
18187WAT      O54802   6.991   0.609   7.159
18187WAT     H154803   7.000   0.601   7.258
18187WAT     H254804   6.914   0.552   7.128
18188WAT      O54805   1.639   2.769   4.312
18188WAT     H154806   1.683   2.694   4.262
18188WAT     H254807   1.551   2.738   4.347
18189WAT      O54808   2.913   0.257   2.415
18189WAT     H154809   2.958   0.203   2.344
18189WAT     H254810   2.921   0.210   2.503
18190WAT      O54811   8.037   3.351   6.003
18190WAT     H154812   8.094   3.431   6.023
18190WAT     H254813   8.093   3.269   6.005
18191WAT      O54814   7.895   8.645   1.258
18191WAT     H154815   7.821   8.578   1.262
18191WAT     H254816   7.972   8.612   1.312
18192WAT      O54817   7.052   1.078   8.932
18192WAT     H154818   7.107   1.137   8.873
18192WAT     H254819   7.031   0.993   8.884
18193WAT      O54820   8.001   7.322   1.706
18193WAT     H154821   8.089   7.352   1.743
18193WAT     H254822   7.927   7.359   1.761
18194WAT      O54823   2.832   5.652   7.749
18194WAT     H154824   2.850   5.750   7.758
18194WAT     H254825   2.734   5.635   7.760
18195WAT      O54826   6.371   1.716   2.135
18195WAT     H154827   6.356   1.662   2.219
18195WAT     H254828   6.463   1.756   2.138
18196WAT      O54829   9.225   4.353   7.585
18196WAT     H154830   9.307   4.296   7.583
18196WAT     H254831   9.247   4.440   7.630
18197WAT      O54832   4.731   9.145   3.744
18197WAT     H154833   4.635   9.131   3.721
18197WAT     H254834   4.783   9.161   3.660
18198WAT      O54835   6.422   2.746   1.813
18198WAT     H154836   6.441   2.669   1.751
18198WAT     H254837   6.332   2.783   1.794
18199WAT      O54838   5.506   1.593   5.416
18199WAT     H154839   5.454   1.645   5.483
18199WAT     H254840   5.604   1.611   5.429
18200WAT      O54841   6.667   0.646   5.811
18200WAT     H154842   6.652   0.709   5.887
18200WAT     H254843   6.688   0.555   5.847
18201WAT      O54844   6.060   4.799   1.027
18201WAT     H154845   6.053   4.844   0.938
18201WAT     H254846   5.976   4.813   1.078
18202WAT      O54847   3.991   3.582   5.829
18202WAT     H154848   3.983   3.528   5.745
18202WAT     H254849   4.019   3.523   5.904
18203WAT      O54850   7.771   8.875   6.270
18203WAT     H154851   7.736   8.797   6.218
18203WAT     H254852   7.811   8.941   6.207
18204WAT      O54853   8.545   2.639   3.513
18204WAT     H154854   8.511   2.732   3.502
18204WAT     H254855   8.578   2.604   3.425
18205WAT      O54856   5.687   8.799   4.515
18205WAT     H154857   5.627   8.787   4.436
18205WAT     H254858   5.782   8.795   4.485
18206WAT      O54859   4.456   7.445   5.101
18206WAT     H154860   4.378   7.433   5.040
18206WAT     H254861   4.505   7.357   5.110
18207WAT      O54862   1.624   4.181   7.449
18207WAT     H154863   1.656   4.265   7.406
18207WAT     H254864   1.534   4.197   7.490
18208WAT      O54865   0.818   2.596   1.241
18208WAT     H154866   0.861   2.683   1.266
18208WAT     H254867   0.860   2.561   1.158
18209WAT      O54868   7.424   6.132   7.399
18209WAT     H154869   7.426   6.067   7.324
18209WAT     H254870   7.406   6.224   7.364
18210WAT      O54871   3.616   2.783   9.283
18210WAT     H154872   3.707   2.771   9.322
18210WAT     H254873   3.558   2.832   9.348
18211WAT      O54874   2.926   7.588   5.048
18211WAT     H154875   2.983   7.556   5.123
18211WAT     H254876   2.925   7.519   4.975
18212WAT      O54877   0.743   1.378   7.275
18212WAT     H154878   0.717   1.382   7.372
18212WAT     H254879   0.750   1.471   7.239
18213WAT      O54880   0.565   0.712   3.786
18213WAT     H154881   0.560   0.614   3.800
18213WAT     H254882   0.625   0.732   3.709
18214WAT      O54883   9.003   2.223   9.387
18214WAT     H154884   8.928   2.271   9.340
18214WAT     H254885   9.055   2.289   9.442
18215WAT      O54886   9.531   8.106   8.152
18215WAT     H154887   9.518   8.077   8.247
18215WAT     H254888   9.629   8.114   8.134
18216WAT      O54889   2.188   7.560   4.402
18216WAT     H154890   2.149   7.468   4.393
18216WAT     H254891   2.113   7.628   4.400
18217WAT      O54892   0.555   2.828   8.158
18217WAT     H154893   0.581   2.794   8.067
18217WAT     H254894   0.457   2.848   8.158
18218WAT      O54895   1.608   7.959   7.785
18218WAT     H154896   1.524   7.906   7.801
18218WAT     H254897   1.598   8.012   7.701
18219WAT      O54898   2.625   6.044   0.604
18219WAT     H154899   2.607   6.117   0.537
18219WAT     H254900   2.538   6.005   0.635
18220WAT      O54901   5.900   6.649   0.447
18220WAT     H154902   5.836   6.574   0.429
18220WAT     H254903   5.983   6.611   0.489
18221WAT      O54904   9.111   6.026   1.984
18221WAT     H154905   9.013   6.043   1.975
18221WAT     H254906   9.157   6.052   1.900
18222WAT      O54907   5.683   6.271   7.801
18222WAT     H154908   5.725   6.302   7.885
18222WAT     H254909   5.618   6.197   7.821
18223WAT      O54910   0.900   7.739   8.725
18223WAT     H154911   0.856   7.652   8.702
18223WAT     H254912   0.957   7.726   8.806
18224WAT      O54913   3.945   9.662   1.481
18224WAT     H154914   3.956   9.620   1.391
18224WAT     H254915   3.856   9.708   1.485
18225WAT      O54916   2.759   6.502   7.840
18225WAT     H154917   2.688   6.507   7.770
18225WAT     H254918   2.822   6.578   7.829
18226WAT      O54919   5.282   3.387   6.238
18226WAT     H154920   5.235   3.460   6.286
18226WAT     H254921   5.231   3.302   6.247
18227WAT      O54922   1.743   5.994   8.846
18227WAT     H154923   1.676   5.995   8.920
18227WAT     H254924   1.721   5.920   8.782
18228WAT      O54925   9.625   4.057   7.995
18228WAT     H154926   9.651   3.984   7.932
18228WAT     H254927   9.576   4.128   7.945
18229WAT      O54928   6.069   0.935   0.764
18229WAT     H154929   6.107   0.866   0.826
18229WAT     H254930   5.984   0.971   0.803
18230WAT      O54931   3.782   2.104   3.702
18230WAT     H154932   3.849   2.098   3.776
18230WAT     H254933   3.809   2.043   3.628
18231WAT      O54934   7.544   2.652   0.009
18231WAT     H154935   7.505   2.710   0.080
18231WAT     H254936   7.525   2.556   0.030
18232WAT      O54937   3.343   8.554   4.003
18232WAT     H154938   3.248   8.572   4.027
18232WAT     H254939   3.348   8.478   3.939
18233WAT      O54940   8.655   1.966   1.524
18233WAT     H154941   8.563   1.979   1.562
18233WAT     H254942   8.648   1.920   1.436
18234WAT      O54943   1.643   7.188   4.268
18234WAT     H154944   1.649   7.121   4.342
18234WAT     H254945   1.631   7.140   4.181
18235WAT      O54946   1.560   7.151   0.396
18235WAT     H154947   1.494   7.106   0.457
18235WAT     H254948   1.533   7.247   0.384
18236WAT      O54949   5.657   8.825   4.777
18236WAT     H154950   5.682   8.809   4.682
18236WAT     H254951   5.558   8.812   4.789
18237WAT      O54952   7.374   3.306   3.129
18237WAT     H154953   7.391   3.345   3.039
18237WAT     H254954   7.367   3.379   3.197
18238WAT      O54955   1.678   4.960   0.967
18238WAT     H154956   1.635   4.984   0.880
18238WAT     H254957   1.777   4.952   0.955
18239WAT      O54958   7.859   8.468   4.488
18239WAT     H154959   7.940   8.433   4.441
18239WAT     H254960   7.836   8.408   4.564
18240WAT      O54961   1.719   4.610   7.244
18240WAT     H154962   1.803   4.630   7.193
18240WAT     H254963   1.710   4.511   7.254
18241WAT      O54964   7.573   6.516   5.659
18241WAT     H154965   7.616   6.574   5.728
18241WAT     H254966   7.534   6.574   5.587
18242WAT      O54967   8.310   7.114   3.952
18242WAT     H154968   8.354   7.048   4.013
18242WAT     H254969   8.314   7.080   3.858
18243WAT      O54970   0.761   4.909   1.681
18243WAT     H154971   0.752   4.819   1.638
18243WAT     H254972   0.751   4.981   1.611
18244WAT      O54973   5.475   6.649   3.544
18244WAT     H154974   5.502   6.744   3.555
18244WAT     H254975   5.406   6.642   3.472
18245WAT      O54976   1.513   5.379   5.812
18245WAT     H154977   1.519   5.279   5.810
18245WAT     H254978   1.417   5.406   5.822
18246WAT      O54979   8.530   8.079   5.699
18246WAT     H154980   8.585   8.064   5.781
18246WAT     H254981   8.588   8.115   5.626
18247WAT      O54982   7.562   1.649   9.882
18247WAT     H154983   7.516   1.594   9.952
18247WAT     H254984   7.647   1.603   9.855
18248WAT      O54985   5.142   3.746   0.688
18248WAT     H154986   5.183   3.787   0.769
18248WAT     H254987   5.152   3.647   0.692
18249WAT      O54988   9.540   3.063   7.259
18249WAT     H154989   9.615   3.008   7.223
18249WAT     H254990   9.566   3.160   7.258
18250WAT      O54991   0.346   3.536   9.484
18250WAT     H154992   0.306   3.497   9.401
18250WAT     H254993   0.338   3.636   9.480
18251WAT      O54994   8.645   7.859   9.018
18251WAT     H154995   8.555   7.898   8.999
18251WAT     H254996   8.703   7.928   9.060
18252WAT      O54997   2.875   5.258   3.452
18252WAT     H154998   2.817   5.227   3.376
18252WAT     H254999   2.847   5.213   3.536
18253WAT      O55000   6.418   7.853   9.597
18253WAT     H155001   6.428   7.899   9.509
18253WAT     H255002   6.394   7.757   9.582
18254WAT      O55003   2.114   2.417   0.432
18254WAT     H155004   2.188   2.408   0.499
18254WAT     H255005   2.152   2.444   0.344
18255WAT      O55006   1.916   0.236   1.562
18255WAT     H155007   1.911   0.336   1.563
18255WAT     H255008   1.843   0.200   1.504
18256WAT      O55009   6.316   2.086   5.387
18256WAT     H155010   6.370   2.166   5.413
18256WAT     H255011   6.289   2.036   5.469
18257WAT      O55012   5.754   1.670   6.892
18257WAT     H155013   5.775   1.733   6.818
18257WAT     H255014   5.656   1.675   6.914
18258WAT      O55015   6.336   9.742   0.403
18258WAT     H155016   6.350   9.716   0.307
18258WAT     H255017   6.409   9.701   0.459
18259WAT      O55018   1.507   9.014   1.062
18259WAT     H155019   1.409   9.003   1.078
18259WAT     H255020   1.553   9.033   1.148
18260WAT      O55021   2.451   9.205   4.885
18260WAT     H155022   2.392   9.167   4.814
18260WAT     H255023   2.519   9.266   4.843
18261WAT      O55024   8.855   7.704   9.457
18261WAT     H155025   8.813   7.750   9.536
18261WAT     H255026   8.797   7.714   9.377
18262WAT      O55027   5.530   8.046   4.236
18262WAT     H155028   5.475   7.968   4.208
18262WAT     H255029   5.626   8.019   4.242
18263WAT      O55030   0.301   8.273   8.436
18263WAT     H155031   0.300   8.372   8.418
18263WAT     H255032   0.291   8.258   8.535
18264WAT      O55033   4.523   9.503   1.461
18264WAT     H155034   4.569   9.416   1.447
18264WAT     H255035   4.425   9.489   1.466
18265WAT      O55036   3.678   5.472   3.192
18265WAT     H155037   3.681   5.568   3.164
18265WAT     H255038   3.755   5.453   3.253
18266WAT      O55039   7.604   7.405   9.202
18266WAT     H155040   7.552   7.484   9.236
18266WAT     H255041   7.547   7.353   9.138
18267WAT      O55042   9.534   8.515   1.984
18267WAT     H155043   9.509   8.579   2.057
18267WAT     H255044   9.452   8.473   1.946
18268WAT      O55045   8.559   3.164   5.668
18268WAT     H155046   8.553   3.245   5.610
18268WAT     H255047   8.654   3.133   5.673
18269WAT      O55048   1.765   5.319   5.277
18269WAT     H155049   1.843   5.359   5.325
18269WAT     H255050   1.695   5.292   5.343
18270WAT      O55051   4.891   6.557   5.731
18270WAT     H155052   4.824   6.537   5.659
18270WAT     H255053   4.899   6.478   5.791
18271WAT      O55054   3.100   9.723   2.442
18271WAT     H155055   3.135   9.656   2.507
18271WAT     H255056   3.033   9.782   2.487
18272WAT      O55057   8.749   5.080   7.405
18272WAT     H155058   8.708   5.048   7.319
18272WAT     H255059   8.845   5.103   7.390
18273WAT      O55060   1.475   2.093   6.679
18273WAT     H155061   1.402   2.050   6.731
18273WAT     H255062   1.452   2.090   6.581
18274WAT      O55063   7.654   3.583   1.117
18274WAT     H155064   7.705   3.602   1.201
18274WAT     H255065   7.717   3.543   1.050
18275WAT      O55066   8.303   5.533   4.330
18275WAT     H155067   8.362   5.520   4.409
18275WAT     H255068   8.342   5.604   4.271
18276WAT      O55069   8.818   8.374   2.029
18276WAT     H155070   8.753   8.306   2.061
18276WAT     H255071   8.862   8.418   2.108
18277WAT      O55072   4.246   9.457   1.451
18277WAT     H155073   4.189   9.401   1.511
18277WAT     H255074   4.203   9.466   1.362
18278WAT      O55075   2.487   3.904   5.301
18278WAT     H155076   2.414   3.943   5.359
18278WAT     H255077   2.481   3.943   5.210
18279WAT      O55078   1.871   6.210   2.054
18279WAT     H155079   1.787   6.164   2.025
18279WAT     H255080   1.943   6.142   2.070
18280WAT      O55081   1.132   8.797   7.506
18280WAT     H155082   1.125   8.812   7.604
18280WAT     H255083   1.044   8.812   7.463
18281WAT      O55084   5.671   8.003   9.572
18281WAT     H155085   5.684   7.952   9.657
18281WAT     H255086   5.701   8.098   9.585
18282WAT      O55087   6.911   7.243   7.655
18282WAT     H155088   6.838   7.238   7.587
18282WAT     H255089   6.891   7.315   7.720
18283WAT      O55090   0.815   0.876   6.346
18283WAT     H155091   0.756   0.821   6.405
18283WAT     H255092   0.901   0.828   6.330
18284WAT      O55093   1.537   3.568   3.245
18284WAT     H155094   1.474   3.572   3.322
18284WAT     H255095   1.620   3.519   3.272
18285WAT      O55096   5.247   6.064   3.832
18285WAT     H155097   5.279   6.026   3.919
18285WAT     H255098   5.251   5.994   3.761
18286WAT      O55099   8.289   7.350   4.375
18286WAT     H155100   8.330   7.364   4.465
18286WAT     H255101   8.280   7.252   4.357
18287WAT      O55102   2.569   9.011   3.076
18287WAT     H155103   2.647   8.967   3.032
18287WAT     H255104   2.600   9.062   3.156
18288WAT      O55105   2.481   2.254   5.083
18288WAT     H155106   2.382   2.248   5.071
18288WAT     H255107   2.506   2.218   5.172
18289WAT      O55108   9.238   8.249   4.138
18289WAT     H155109   9.196   8.331   4.099
18289WAT     H255110   9.282   8.273   4.225
18290WAT      O55111   5.819   8.333   8.611
18290WAT     H155112   5.816   8.347   8.512
18290WAT     H255113   5.892   8.387   8.650
18291WAT      O55114   5.048   4.433   0.865
18291WAT     H155115   5.015   4.346   0.901
18291WAT     H255116   5.015   4.507   0.924
18292WAT      O55117   4.387   6.196   7.841
18292WAT     H155118   4.439   6.271   7.801
18292WAT     H255119   4.446   6.144   7.904
18293WAT      O55120   4.809   4.114   7.157
18293WAT     H155121   4.796   4.052   7.234
18293WAT     H255122   4.803   4.061   7.072
18294WAT      O55123   1.175   5.717   2.697
18294WAT     H155124   1.234   5.681   2.624
18294WAT     H255125   1.231   5.768   2.762
18295WAT      O55126   8.537   6.111   3.006
18295WAT     H155127   8.502   6.099   2.913
18295WAT     H255128   8.470   6.162   3.061
18296WAT      O55129   1.178   4.981   0.509
18296WAT     H155130   1.187   4.947   0.416
18296WAT     H255131   1.095   4.943   0.551
18297WAT      O55132   7.848   0.034   0.815
18297WAT     H155133   7.863   0.130   0.837
18297WAT     H255134   7.904  -0.023   0.876
18298WAT      O55135   2.629   5.579   2.678
18298WAT     H155136   2.589   5.659   2.633
18298WAT     H255137   2.611   5.582   2.776
18299WAT      O55138   1.815   4.306   3.831
18299WAT     H155139   1.884   4.324   3.760
18299WAT     H255140   1.747   4.242   3.795
18300WAT      O55141   9.486   1.942   6.551
18300WAT     H155142   9.446   1.984   6.470
18300WAT     H255143   9.415   1.896   6.604
18301WAT      O55144   7.060   9.768   7.288
18301WAT     H155145   7.038   9.670   7.288
18301WAT     H255146   7.019   9.811   7.368
18302WAT      O55147   2.871   3.352   8.924
18302WAT     H155148   2.907   3.307   9.005
18302WAT     H255149   2.849   3.284   8.854
18303WAT      O55150   0.184   8.789   5.930
18303WAT     H155151   0.143   8.819   5.843
18303WAT     H255152   0.181   8.689   5.935
18304WAT      O55153   7.447   6.760   8.469
18304WAT     H155154   7.364   6.705   8.459
18304WAT     H255155   7.493   6.737   8.555
18305WAT      O55156   7.796   8.630   4.741
18305WAT     H155157   7.762   8.554   4.797
18305WAT     H255158   7.820   8.597   4.650
18306WAT      O55159   4.909   4.306   3.362
18306WAT     H155160   5.004   4.280   3.346
18306WAT     H255161   4.858   4.226   3.395
18307WAT      O55162   8.901   7.229   5.595
18307WAT     H155163   8.855   7.265   5.676
18307WAT     H255164   8.845   7.246   5.514
18308WAT      O55165   4.834   2.229   3.631
18308WAT     H155166   4.791   2.319   3.636
18308WAT     H255167   4.763   2.158   3.637
18309WAT      O55168   4.814   6.919   5.837
18309WAT     H155169   4.765   6.892   5.919
18309WAT     H255170   4.891   6.857   5.821
18310WAT      O55171   1.100   8.277   1.484
18310WAT     H155172   1.072   8.321   1.570
18310WAT     H255173   1.094   8.178   1.494
18311WAT      O55174   7.475   8.552   9.672
18311WAT     H155175   7.385   8.514   9.650
18311WAT     H255176   7.502   8.523   9.763
18312WAT      O55177   8.024   7.733   3.784
18312WAT     H155178   8.089   7.675   3.833
18312WAT     H255179   8.062   7.759   3.696
18313WAT      O55180   9.209   3.182   9.871
18313WAT     H155181   9.127   3.139   9.910
18313WAT     H255182   9.185   3.225   9.784
18314WAT      O55183   3.186   8.108   1.596
18314WAT     H155184   3.200   8.078   1.501
18314WAT     H255185   3.186   8.208   1.599
18315WAT      O55186   7.357   4.827   5.298
18315WAT     H155187   7.289   4.847   5.228
18315WAT     H255188   7.442   4.796   5.255
18316WAT      O55189   4.288   1.043   3.265
18316WAT     H155190   4.341   0.970   3.309
18316WAT     H255191   4.191   1.019   3.266
18317WAT      O55192   8.311   9.475   0.562
18317WAT     H155193   8.366   9.535   0.502
18317WAT     H255194   8.363   9.455   0.645
18318WAT      O55195   3.007   6.537   5.352
18318WAT     H155196   2.930   6.528   5.415
18318WAT     H255197   2.973   6.567   5.262
18319WAT      O55198   4.278   7.006   2.594
18319WAT     H155199   4.314   7.064   2.520
18319WAT     H255200   4.214   6.940   2.556
18320WAT      O55201   7.152   8.741   4.042
18320WAT     H155202   7.105   8.738   4.130
18320WAT     H255203   7.093   8.699   3.972
18321WAT      O55204   4.275   8.090   0.017
18321WAT     H155205   4.203   8.157   0.029
18321WAT     H255206   4.243   8.000   0.047
18322WAT      O55207   9.324   9.385   6.874
18322WAT     H155208   9.342   9.438   6.956
18322WAT     H255209   9.232   9.405   6.840
18323WAT      O55210   4.314   5.922   1.382
18323WAT     H155211   4.245   5.960   1.321
18323WAT     H255212   4.277   5.916   1.474
18324WAT      O55213   1.181   9.465   1.525
18324WAT     H155214   1.243   9.439   1.600
18324WAT     H255215   1.115   9.533   1.559
18325WAT      O55216   9.560   5.082   9.648
18325WAT     H155217   9.526   5.169   9.613
18325WAT     H255218   9.637   5.051   9.592
18326WAT      O55219   8.034   9.822   8.999
18326WAT     H155220   8.062   9.727   9.015
18326WAT     H255221   8.113   9.874   8.965
18327WAT      O55222   2.389   8.801   2.133
18327WAT     H155223   2.350   8.784   2.043
18327WAT     H255224   2.471   8.859   2.123
18328WAT      O55225   9.166   5.791   1.101
18328WAT     H155226   9.132   5.800   1.194
18328WAT     H255227   9.251   5.843   1.092
18329WAT      O55228   1.832   9.244   3.569
18329WAT     H155229   1.885   9.286   3.496
18329WAT     H255230   1.831   9.144   3.556
18330WAT      O55231   4.580   4.838   1.198
18330WAT     H155232   4.515   4.773   1.238
18330WAT     H255233   4.555   4.931   1.226
18331WAT      O55234   3.127   1.049   1.513
18331WAT     H155235   3.097   1.101   1.593
18331WAT     H255236   3.120   1.106   1.432
18332WAT      O55237   1.103   6.287   3.433
18332WAT     H155238   1.145   6.370   3.468
18332WAT     H255239   1.157   6.252   3.356
18333WAT      O55240   9.510   4.578   0.396
18333WAT     H155241   9.495   4.614   0.488
18333WAT     H255242   9.491   4.650   0.329
18334WAT      O55243   3.871   8.952   7.608
18334WAT     H155244   3.829   9.018   7.671
18334WAT     H255245   3.970   8.968   7.604
18335WAT      O55246   6.694   4.623   8.225
18335WAT     H155247   6.614   4.613   8.166
18335WAT     H255248   6.777   4.616   8.170
18336WAT      O55249   3.405   4.965   8.556
18336WAT     H155250   3.379   4.982   8.651
18336WAT     H255251   3.388   5.047   8.501
18337WAT      O55252   7.114   7.395   5.227
18337WAT     H155253   7.040   7.352   5.175
18337WAT     H255254   7.136   7.483   5.186
18338WAT      O55255   7.255   2.003   3.829
18338WAT     H155256   7.202   2.080   3.867
18338WAT     H255257   7.281   2.025   3.735
18339WAT      O55258   1.189   8.557   0.281
18339WAT     H155259   1.192   8.612   0.365
18339WAT     H255260   1.163   8.463   0.304
18340WAT      O55261   0.338   5.565   5.731
18340WAT     H155262   0.422   5.542   5.781
18340WAT     H255263   0.307   5.656   5.757
18341WAT      O55264   7.487   5.749   0.879
18341WAT     H155265   7.493   5.791   0.969
18341WAT     H255266   7.525   5.811   0.810
18342WAT      O55267   9.429   5.950   2.035
18342WAT     H155268   9.528   5.946   2.022
18342WAT     H255269   9.386   5.988   1.953
18343WAT      O55270   1.410   2.972   1.078
18343WAT     H155271   1.386   2.983   1.174
18343WAT     H255272   1.505   3.002   1.064
18344WAT      O55273   3.056   8.943   5.472
18344WAT     H155274   3.104   8.865   5.432
18344WAT     H255275   3.058   8.935   5.572
18345WAT      O55276   9.245   7.821   8.003
18345WAT     H155277   9.288   7.764   8.073
18345WAT     H255278   9.305   7.826   7.923
18346WAT      O55279   3.173   4.757   2.624
18346WAT     H155280   3.219   4.803   2.699
18346WAT     H255281   3.142   4.825   2.557
18347WAT      O55282   6.359   2.593   2.250
18347WAT     H155283   6.439   2.558   2.200
18347WAT     H255284   6.294   2.518   2.264
18348WAT      O55285   3.535   8.758   4.759
18348WAT     H155286   3.465   8.804   4.705
18348WAT     H255287   3.561   8.673   4.714
18349WAT      O55288   7.794   2.358   0.693
18349WAT     H155289   7.748   2.392   0.774
18349WAT     H255290   7.797   2.258   0.695
18350WAT      O55291   5.896   6.467   0.151
18350WAT     H155292   5.844   6.414   0.084
18350WAT     H255293   5.841   6.479   0.234
18351WAT      O55294   2.454   3.541   1.274
18351WAT     H155295   2.433   3.578   1.183
18351WAT     H255296   2.413   3.451   1.283
18352WAT      O55297   9.194   6.639   6.848
18352WAT     H155298   9.256   6.568   6.814
18352WAT     H255299   9.174   6.704   6.776
18353WAT      O55300   1.623   9.695   4.604
18353WAT     H155301   1.644   9.792   4.613
18353WAT     H255302   1.677   9.643   4.671
18354WAT      O55303   3.672   9.017   7.429
18354WAT     H155304   3.739   8.970   7.486
18354WAT     H255305   3.597   8.954   7.407
18355WAT      O55306   8.924   5.609   7.988
18355WAT     H155307   8.918   5.533   8.052
18355WAT     H255308   8.972   5.580   7.905
18356WAT      O55309   0.343   0.452   0.235
18356WAT     H155310   0.286   0.417   0.309
18356WAT     H255311   0.312   0.544   0.210
18357WAT      O55312   4.915   0.618   3.940
18357WAT     H155313   4.878   0.631   4.031
18357WAT     H255314   4.840   0.615   3.874
18358WAT      O55315   8.553   7.401   1.043
18358WAT     H155316   8.636   7.443   1.080
18358WAT     H255317   8.488   7.472   1.017
18359WAT      O55318   7.399   9.002   3.135
18359WAT     H155319   7.411   9.057   3.217
18359WAT     H255320   7.448   9.045   3.059
18360WAT      O55321   2.159   0.989   1.012
18360WAT     H155322   2.212   1.051   0.955
18360WAT     H255323   2.198   0.986   1.104
18361WAT      O55324   7.196   9.347   3.708
18361WAT     H155325   7.190   9.290   3.789
18361WAT     H255326   7.129   9.316   3.640
18362WAT      O55327   0.071   9.214   4.338
18362WAT     H155328   0.038   9.290   4.283
18362WAT     H255329  -0.006   9.155   4.362
18363WAT      O55330   8.654   3.327   0.837
18363WAT     H155331   8.652   3.380   0.922
18363WAT     H255332   8.596   3.372   0.768
18364WAT      O55333   4.142   0.850   5.536
18364WAT     H155334   4.200   0.917   5.490
18364WAT     H255335   4.071   0.896   5.589
18365WAT      O55336   6.718   5.656   4.333
18365WAT     H155337   6.690   5.617   4.420
18365WAT     H255338   6.801   5.609   4.300
18366WAT      O55339   5.523   9.320   5.914
18366WAT     H155340   5.533   9.232   5.960
18366WAT     H255341   5.545   9.394   5.978
18367WAT      O55342   9.286   9.177   1.081
18367WAT     H155343   9.205   9.172   1.023
18367WAT     H255344   9.351   9.242   1.043
18368WAT      O55345   3.475   6.978   2.945
18368WAT     H155346   3.557   6.921   2.942
18368WAT     H255347   3.486   7.049   3.014
18369WAT      O55348   1.429   7.606   8.159
18369WAT     H155349   1.515   7.625   8.112
18369WAT     H255350   1.439   7.624   8.257
18370WAT      O55351   5.521   4.886   7.403
18370WAT     H155352   5.583   4.891   7.481
18370WAT     H255353   5.569   4.914   7.320
18371WAT      O55354   7.680   7.608   4.725
18371WAT     H155355   7.611   7.574   4.661
18371WAT     H255356   7.673   7.559   4.812
18372WAT      O55357   3.008   2.296   1.183
18372WAT     H155358   3.086   2.288   1.121
18372WAT     H255359   3.029   2.360   1.256
18373WAT      O55360   7.814   5.354   6.345
18373WAT     H155361   7.775   5.284   6.404
18373WAT     H255362   7.838   5.435   6.399
18374WAT      O55363   1.612   9.801   3.090
18374WAT     H155364   1.531   9.770   3.140
18374WAT     H255365   1.599   9.784   2.992
18375WAT      O55366   0.588   5.095   4.580
18375WAT     H155367   0.680   5.131   4.598
18375WAT     H255368   0.564   5.112   4.485
18376WAT      O55369   1.605   2.494   2.140
18376WAT     H155370   1.518   2.493   2.190
18376WAT     H255371   1.586   2.498   2.042
18377WAT      O55372   0.568   3.117   2.388
18377WAT     H155373   0.608   3.081   2.304
18377WAT     H255374   0.638   3.168   2.439
18378WAT      O55375   0.226   3.987   4.899
18378WAT     H155376   0.212   4.078   4.859
18378WAT     H255377   0.301   3.941   4.851
18379WAT      O55378   5.534   2.157   9.234
18379WAT     H155379   5.494   2.084   9.178
18379WAT     H255380   5.597   2.117   9.301
18380WAT      O55381   9.008   8.622   8.653
18380WAT     H155382   8.956   8.545   8.616
18380WAT     H255383   9.053   8.594   8.738
18381WAT      O55384   4.995   6.065   7.626
18381WAT     H155385   5.090   6.086   7.603
18381WAT     H255386   4.966   6.122   7.703
18382WAT      O55387   1.419   0.861   2.404
18382WAT     H155388   1.405   0.841   2.307
18382WAT     H255389   1.465   0.784   2.447
18383WAT      O55390   2.550   9.411   0.817
18383WAT     H155391   2.608   9.427   0.896
18383WAT     H255392   2.537   9.312   0.805
18384WAT      O55393   6.777   6.128   0.660
18384WAT     H155394   6.858   6.146   0.605
18384WAT     H255395   6.803   6.115   0.755
18385WAT      O55396   0.609   4.201   4.543
18385WAT     H155397   0.562   4.146   4.612
18385WAT     H255398   0.653   4.140   4.477
18386WAT      O55399   5.923   2.594   0.367
18386WAT     H155400   5.908   2.569   0.271
18386WAT     H255401   5.843   2.569   0.421
18387WAT      O55402   6.539   2.229   8.523
18387WAT     H155403   6.622   2.231   8.579
18387WAT     H255404   6.560   2.186   8.435
18388WAT      O55405   7.294   4.055   3.477
18388WAT     H155406   7.215   4.031   3.533
18388WAT     H255407   7.354   3.976   3.465
18389WAT      O55408   5.291   6.916   5.082
18389WAT     H155409   5.307   7.006   5.123
18389WAT     H255410   5.200   6.914   5.040
18390WAT      O55411   3.217   7.236   8.722
18390WAT     H155412   3.176   7.301   8.786
18390WAT     H255413   3.301   7.275   8.684
18391WAT      O55414   1.668   9.480   1.727
18391WAT     H155415   1.707   9.479   1.635
18391WAT     H255416   1.585   9.425   1.730
18392WAT      O55417   5.163   0.496   3.963
18392WAT     H155418   5.071   0.532   3.978
18392WAT     H255419   5.230   0.565   3.992
18393WAT      O55420   3.412   4.844   3.605
18393WAT     H155421   3.430   4.768   3.543
18393WAT     H255422   3.378   4.923   3.553
18394WAT      O55423   0.698   4.049   6.218
18394WAT     H155424   0.710   4.130   6.275
18394WAT     H255425   0.750   3.972   6.257
18395WAT      O55426   6.210   7.627   5.696
18395WAT     H155427   6.142   7.609   5.624
18395WAT     H255428   6.179   7.586   5.782
18396WAT      O55429   8.207   6.779   6.746
18396WAT     H155430   8.165   6.868   6.764
18396WAT     H255431   8.155   6.708   6.794
18397WAT      O55432   0.671   4.902   4.922
18397WAT     H155433   0.698   4.896   5.018
18397WAT     H255434   0.573   4.885   4.913
18398WAT      O55435   1.789   1.951   3.994
18398WAT     H155436   1.700   1.938   3.950
18398WAT     H255437   1.790   2.039   4.043
18399WAT      O55438   7.700   0.963   6.027
18399WAT     H155439   7.608   0.974   5.992
18399WAT     H255440   7.753   1.046   6.010
18400WAT      O55441   1.116   1.565   1.621
18400WAT     H155442   1.025   1.529   1.642
18400WAT     H255443   1.134   1.646   1.676
18401WAT      O55444   8.126   1.538   5.544
18401WAT     H155445   8.092   1.449   5.513
18401WAT     H255446   8.053   1.606   5.539
18402WAT      O55447   6.798   0.550   2.343
18402WAT     H155448   6.866   0.504   2.286
18402WAT     H255449   6.815   0.648   2.345
18403WAT      O55450   4.883   8.501   4.938
18403WAT     H155451   4.817   8.467   4.871
18403WAT     H255452   4.844   8.494   5.030
18404WAT      O55453   7.241   5.602   2.874
18404WAT     H155454   7.230   5.694   2.912
18404WAT     H255455   7.227   5.534   2.946
18405WAT      O55456   8.978   6.670   4.865
18405WAT     H155457   8.957   6.685   4.961
18405WAT     H255458   9.076   6.655   4.854
18406WAT      O55459   0.232   0.792   2.706
18406WAT     H155460   0.165   0.850   2.660
18406WAT     H255461   0.213   0.696   2.685
18407WAT      O55462   1.243   3.041   3.159
18407WAT     H155463   1.190   2.987   3.225
18407WAT     H255464   1.336   3.005   3.155
18408WAT      O55465   4.620   8.520   7.482
18408WAT     H155466   4.551   8.530   7.410
18408WAT     H255467   4.707   8.557   7.449
18409WAT      O55468   1.535   6.370   8.465
18409WAT     H155469   1.451   6.422   8.478
18409WAT     H255470   1.586   6.365   8.551
18410WAT      O55471   7.032   3.466   4.755
18410WAT     H155472   6.958   3.402   4.737
18410WAT     H255473   7.058   3.511   4.670
18411WAT      O55474   5.523   6.977   3.069
18411WAT     H155475   5.451   7.033   3.109
18411WAT     H255476   5.482   6.904   3.014
18412WAT      O55477   8.212   9.427   3.544
18412WAT     H155478   8.154   9.499   3.582
18412WAT     H255479   8.192   9.417   3.446
18413WAT      O55480   0.644   6.757   7.901
18413WAT     H155481   0.567   6.802   7.945
18413WAT     H255482   0.730   6.793   7.938
18414WAT      O55483   1.987   8.193   8.988
18414WAT     H155484   1.908   8.138   9.014
18414WAT     H255485   1.983   8.281   9.035
18415WAT      O55486   9.373   8.278   3.417
18415WAT     H155487   9.447   8.261   3.351
18415WAT     H255488   9.299   8.327   3.371
18416WAT      O55489   6.772   8.046   3.721
18416WAT     H155490   6.775   8.075   3.817
18416WAT     H255491   6.859   8.066   3.678
18417WAT      O55492   3.885   3.893   1.166
18417WAT     H155493   3.899   3.801   1.128
18417WAT     H255494   3.887   3.889   1.266
18418WAT      O55495   2.485   2.834   4.140
18418WAT     H155496   2.469   2.775   4.061
18418WAT     H255497   2.414   2.904   4.145
18419WAT      O55498   5.953   1.967   7.850
18419WAT     H155499   5.896   1.935   7.926
18419WAT     H255500   6.004   1.890   7.812
18420WAT      O55501   6.150   6.286   1.671
18420WAT     H155502   6.100   6.279   1.585
18420WAT     H255503   6.098   6.344   1.735
18421WAT      O55504   0.970   7.592   5.693
18421WAT     H155505   0.975   7.682   5.736
18421WAT     H255506   1.002   7.522   5.757
18422WAT      O55507   4.426   9.373   5.838
18422WAT     H155508   4.361   9.449   5.832
18422WAT     H255509   4.394   9.298   5.780
18423WAT      O55510   8.402   3.413   6.059
18423WAT     H155511   8.499   3.395   6.077
18423WAT     H255512   8.369   3.351   5.988
18424WAT      O55513   0.961   2.156   2.758
18424WAT     H155514   0.980   2.215   2.836
18424WAT     H255515   0.925   2.069   2.790
18425WAT      O55516   3.497   2.831   5.111
18425WAT     H155517   3.397   2.823   5.109
18425WAT     H255518   3.523   2.923   5.082
18426WAT      O55519   7.164   6.998   9.575
18426WAT     H155520   7.163   7.060   9.653
18426WAT     H255521   7.078   7.005   9.525
18427WAT      O55522   7.482   8.828   7.920
18427WAT     H155523   7.493   8.901   7.988
18427WAT     H255524   7.545   8.754   7.940
18428WAT      O55525   4.059   7.604   6.100
18428WAT     H155526   4.062   7.671   6.026
18428WAT     H255527   3.996   7.530   6.075
18429WAT      O55528   4.061   8.288   2.096
18429WAT     H155529   4.043   8.249   2.186
18429WAT     H255530   4.138   8.352   2.102
18430WAT      O55531   6.995   8.577   1.402
18430WAT     H155532   6.950   8.592   1.314
18430WAT     H255533   6.957   8.494   1.445
18431WAT      O55534   1.871   5.094   5.996
18431WAT     H155535   1.877   5.168   6.064
18431WAT     H255536   1.829   5.129   5.913
18432WAT      O55537   5.573   0.310   9.852
18432WAT     H155538   5.473   0.313   9.850
18432WAT     H255539   5.605   0.231   9.799
18433WAT      O55540   4.783   3.021   5.041
18433WAT     H155541   4.826   3.014   5.131
18433WAT     H255542   4.847   2.989   4.971
18434WAT      O55543   4.009   8.884   8.800
18434WAT     H155544   4.015   8.817   8.875
18434WAT     H255545   4.067   8.855   8.724
18435WAT      O55546   7.916   8.750   4.201
18435WAT     H155547   7.965   8.803   4.271
18435WAT     H255548   7.820   8.740   4.228
18436WAT      O55549   5.199   2.376   4.397
18436WAT     H155550   5.211   2.476   4.391
18436WAT     H255551   5.255   2.332   4.327
18437WAT      O55552   8.992   2.769   7.033
18437WAT     H155553   8.894   2.749   7.029
18437WAT     H255554   9.028   2.741   7.122
18438WAT      O55555   0.692   7.801   3.519
18438WAT     H155556   0.631   7.789   3.441
18438WAT     H255557   0.770   7.858   3.492
18439WAT      O55558   4.850   5.496   0.415
18439WAT     H155559   4.779   5.501   0.485
18439WAT     H255560   4.896   5.408   0.420
18440WAT      O55561   8.767   7.862   3.364
18440WAT     H155562   8.854   7.898   3.332
18440WAT     H255563   8.764   7.764   3.350
18441WAT      O55564   0.192   2.163   6.743
18441WAT     H155565   0.234   2.237   6.796
18441WAT     H255566   0.240   2.152   6.657
18442WAT      O55567   8.809   6.820   8.673
18442WAT     H155568   8.880   6.831   8.742
18442WAT     H255569   8.840   6.860   8.586
18443WAT      O55570   4.631   4.677   4.631
18443WAT     H155571   4.661   4.735   4.555
18443WAT     H255572   4.653   4.581   4.610
18444WAT      O55573   9.430   5.383   2.444
18444WAT     H155574   9.428   5.439   2.527
18444WAT     H255575   9.477   5.297   2.464
18445WAT      O55576   2.909   8.038   7.334
18445WAT     H155577   2.926   8.063   7.239
18445WAT     H255578   2.977   7.971   7.364
18446WAT      O55579   3.826   2.222   2.694
18446WAT     H155580   3.779   2.271   2.621
18446WAT     H255581   3.826   2.279   2.777
18447WAT      O55582   0.341   6.552   6.863
18447WAT     H155583   0.427   6.553   6.913
18447WAT     H255584   0.282   6.624   6.897
18448WAT      O55585   8.340   2.329   1.069
18448WAT     H155586   8.412   2.284   1.121
18448WAT     H255587   8.379   2.367   0.984
18449WAT      O55588   1.196   2.371   9.410
18449WAT     H155589   1.113   2.350   9.358
18449WAT     H255590   1.233   2.459   9.380
18450WAT      O55591   6.888   2.441   9.044
18450WAT     H155592   6.983   2.459   9.021
18450WAT     H255593   6.860   2.354   9.003
18451WAT      O55594   3.567   0.782   8.247
18451WAT     H155595   3.600   0.776   8.341
18451WAT     H255596   3.553   0.689   8.212
18452WAT      O55597   3.724   0.338   3.889
18452WAT     H155598   3.709   0.398   3.810
18452WAT     H255599   3.819   0.309   3.891
18453WAT      O55600   3.036   2.208   7.952
18453WAT     H155601   3.097   2.163   8.018
18453WAT     H255602   2.989   2.138   7.898
18454WAT      O55603   6.136   7.380   6.790
18454WAT     H155604   6.179   7.423   6.870
18454WAT     H255605   6.037   7.382   6.800
18455WAT      O55606   4.322   2.781   0.031
18455WAT     H155607   4.287   2.772  -0.063
18455WAT     H255608   4.247   2.807   0.092
18456WAT      O55609   2.844   2.652   9.044
18456WAT     H155610   2.789   2.630   9.125
18456WAT     H255611   2.812   2.738   9.004
18457WAT      O55612   1.268   3.380   2.770
18457WAT     H155613   1.289   3.478   2.767
18457WAT     H255614   1.333   3.334   2.829
18458WAT      O55615   2.398   5.035   6.060
18458WAT     H155616   2.303   5.008   6.074
18458WAT     H255617   2.414   5.051   5.963
18459WAT      O55618   3.479   1.954   9.338
18459WAT     H155619   3.430   1.909   9.413
18459WAT     H255620   3.427   2.034   9.309
18460WAT      O55621   7.681   9.806   6.533
18460WAT     H155622   7.640   9.786   6.621
18460WAT     H255623   7.633   9.756   6.461
18461WAT      O55624   2.975   3.798   9.783
18461WAT     H155625   2.923   3.753   9.855
18461WAT     H255626   3.007   3.887   9.816
18462WAT      O55627   2.458   9.314   3.750
18462WAT     H155628   2.502   9.362   3.826
18462WAT     H255629   2.462   9.216   3.766
18463WAT      O55630   6.296   0.225   7.066
18463WAT     H155631   6.282   0.324   7.064
18463WAT     H255632   6.244   0.182   6.992
18464WAT      O55633   7.261   4.669   9.218
18464WAT     H155634   7.290   4.574   9.225
18464WAT     H255635   7.273   4.714   9.307
18465WAT      O55636   7.424   3.212   0.274
18465WAT     H155637   7.378   3.300   0.276
18465WAT     H255638   7.455   3.192   0.182
18466WAT      O55639   8.203   5.842   7.779
18466WAT     H155640   8.117   5.793   7.792
18466WAT     H255641   8.256   5.839   7.863
18467WAT      O55642   4.055   8.003   1.663
18467WAT     H155643   3.977   7.970   1.610
18467WAT     H255644   4.026   8.076   1.725
18468WAT      O55645   2.924   8.263   0.357
18468WAT     H155646   2.889   8.347   0.314
18468WAT     H255647   3.012   8.239   0.314
18469WAT      O55648   5.962   9.360   3.147
18469WAT     H155649   5.865   9.338   3.138
18469WAT     H255650   5.995   9.403   3.062
18470WAT      O55651   8.657   2.636   1.984
18470WAT     H155652   8.725   2.583   1.934
18470WAT     H255653   8.691   2.729   2.000
18471WAT      O55654   5.896   5.809   8.205
18471WAT     H155655   5.995   5.814   8.216
18471WAT     H255656   5.855   5.769   8.287
18472WAT      O55657   0.480   1.339   6.720
18472WAT     H155658   0.439   1.397   6.650
18472WAT     H255659   0.470   1.383   6.809
18473WAT      O55660   0.849   9.602   8.423
18473WAT     H155661   0.833   9.700   8.409
18473WAT     H255662   0.937   9.577   8.384
18474WAT      O55663   2.781   2.989   0.622
18474WAT     H155664   2.767   3.081   0.657
18474WAT     H255665   2.766   2.923   0.696
18475WAT      O55666   6.941   2.149   8.860
18475WAT     H155667   6.942   2.122   8.956
18475WAT     H255668   7.032   2.139   8.821
18476WAT      O55669   7.772   8.101   3.439
18476WAT     H155670   7.820   8.171   3.387
18476WAT     H255671   7.683   8.083   3.397
18477WAT      O55672   1.667   0.176   6.230
18477WAT     H155673   1.569   0.198   6.234
18477WAT     H255674   1.707   0.220   6.149
18478WAT      O55675   1.635   5.147   3.710
18478WAT     H155676   1.732   5.171   3.716
18478WAT     H255677   1.611   5.129   3.614
18479WAT      O55678   8.438   0.760   5.169
18479WAT     H155679   8.341   0.737   5.157
18479WAT     H255680   8.447   0.860   5.174
18480WAT      O55681   6.653   3.522   3.710
18480WAT     H155682   6.599   3.526   3.626
18480WAT     H255683   6.615   3.452   3.771
18481WAT      O55684   4.722   9.038   4.365
18481WAT     H155685   4.806   9.092   4.370
18481WAT     H255686   4.662   9.063   4.441
18482WAT      O55687   4.162   7.485   4.311
18482WAT     H155688   4.226   7.495   4.235
18482WAT     H255689   4.132   7.575   4.341
18483WAT      O55690   3.119   2.032   4.564
18483WAT     H155691   3.055   1.956   4.550
18483WAT     H255692   3.079   2.097   4.629
18484WAT      O55693   8.872   9.106   9.795
18484WAT     H155694   8.779   9.111   9.830
18484WAT     H255695   8.899   9.195   9.758
18485WAT      O55696   3.982   4.441   5.422
18485WAT     H155697   4.041   4.476   5.349
18485WAT     H255698   4.029   4.451   5.510
18486WAT      O55699   1.166   4.239   9.328
18486WAT     H155700   1.236   4.205   9.266
18486WAT     H255701   1.076   4.220   9.289
18487WAT      O55702   6.439   4.683   7.770
18487WAT     H155703   6.341   4.706   7.768
18487WAT     H255704   6.487   4.737   7.701
18488WAT      O55705   3.317   4.713   8.746
18488WAT     H155706   3.253   4.760   8.685
18488WAT     H255707   3.401   4.692   8.695
18489WAT      O55708   6.260   2.044   4.509
18489WAT     H155709   6.300   1.973   4.451
18489WAT     H255710   6.165   2.060   4.481
18490WAT      O55711   7.651   6.378   2.060
18490WAT     H155712   7.726   6.409   2.001
18490WAT     H255713   7.688   6.350   2.149
18491WAT      O55714   7.104   1.600   3.475
18491WAT     H155715   7.186   1.583   3.420
18491WAT     H255716   7.044   1.664   3.427
18492WAT      O55717   6.406   4.380   5.271
18492WAT     H155718   6.309   4.370   5.250
18492WAT     H255719   6.436   4.472   5.247
18493WAT      O55720   2.018   3.903   3.218
18493WAT     H155721   1.985   3.873   3.307
18493WAT     H255722   2.115   3.928   3.224
18494WAT      O55723   7.530   4.163   4.565
18494WAT     H155724   7.530   4.091   4.495
18494WAT     H255725   7.471   4.135   4.640
18495WAT      O55726   6.569   7.514   3.214
18495WAT     H155727   6.637   7.443   3.230
18495WAT     H255728   6.615   7.600   3.189
18496WAT      O55729   9.068   9.160   0.903
18496WAT     H155730   8.969   9.157   0.886
18496WAT     H255731   9.105   9.247   0.872
18497WAT      O55732   1.134   4.398   8.031
18497WAT     H155733   1.105   4.322   7.973
18497WAT     H255734   1.053   4.440   8.072
18498WAT      O55735   7.706   6.825   3.192
18498WAT     H155736   7.766   6.817   3.271
18498WAT     H255737   7.686   6.921   3.174
18499WAT      O55738   4.110   0.831   8.514
18499WAT     H155739   4.088   0.753   8.572
18499WAT     H255740   4.026   0.868   8.474
18500WAT      O55741   7.038   5.925   1.515
18500WAT     H155742   6.970   5.997   1.518
18500WAT     H255743   7.096   5.937   1.434
18501WAT      O55744   5.432   2.665   1.524
18501WAT     H155745   5.387   2.650   1.612
18501WAT     H255746   5.373   2.629   1.451
18502WAT      O55747   1.159   7.088   2.931
18502WAT     H155748   1.132   7.076   2.836
18502WAT     H255749   1.083   7.126   2.983
18503WAT      O55750   6.395   9.844   2.277
18503WAT     H155751   6.494   9.838   2.262
18503WAT     H255752   6.355   9.753   2.273
18504WAT      O55753   9.451   5.588   6.598
18504WAT     H155754   9.526   5.526   6.619
18504WAT     H255755   9.394   5.549   6.526
18505WAT      O55756   3.114   0.892   8.655
18505WAT     H155757   3.196   0.922   8.607
18505WAT     H255758   3.137   0.818   8.719
18506WAT      O55759   1.450   3.527   4.420
18506WAT     H155760   1.473   3.622   4.444
18506WAT     H255761   1.402   3.484   4.497
18507WAT      O55762   4.317   0.102   3.668
18507WAT     H155763   4.257   0.091   3.589
18507WAT     H255764   4.349   0.012   3.698
18508WAT      O55765   7.682   2.874   0.207
18508WAT     H155766   7.706   2.969   0.225
18508WAT     H255767   7.586   2.869   0.177
18509WAT      O55768   1.720   8.767   7.500
18509WAT     H155769   1.734   8.690   7.563
18509WAT     H255770   1.669   8.735   7.420
18510WAT      O55771   1.055   4.928   2.252
18510WAT     H155772   1.048   4.882   2.164
18510WAT     H255773   1.007   4.874   2.321
18511WAT      O55774   7.749   7.647   8.595
18511WAT     H155775   7.815   7.663   8.521
18511WAT     H255776   7.761   7.554   8.630
18512WAT      O55777   1.829   8.638   7.803
18512WAT     H155778   1.834   8.567   7.733
18512WAT     H255779   1.890   8.615   7.878
18513WAT      O55780   8.897   9.546   0.538
18513WAT     H155781   8.980   9.587   0.575
18513WAT     H255782   8.918   9.456   0.500
18514WAT      O55783   6.552   5.032   7.975
18514WAT     H155784   6.629   4.968   7.980
18514WAT     H255785   6.563   5.090   7.894
18515WAT      O55786   5.647   4.806   8.553
18515WAT     H155787   5.744   4.804   8.575
18515WAT     H255788   5.594   4.784   8.635
18516WAT      O55789   2.022   2.313   5.516
18516WAT     H155790   2.089   2.264   5.571
18516WAT     H255791   2.003   2.402   5.557
18517WAT      O55792   3.683   9.531   6.389
18517WAT     H155793   3.750   9.533   6.463
18517WAT     H255794   3.601   9.583   6.416
18518WAT      O55795   9.652   0.376   2.801
18518WAT     H155796   9.647   0.378   2.901
18518WAT     H255797   9.571   0.330   2.764
18519WAT      O55798   6.464   8.858   2.430
18519WAT     H155799   6.415   8.914   2.363
18519WAT     H255800   6.514   8.785   2.382
18520WAT      O55801   2.331   6.429   2.752
18520WAT     H155802   2.360   6.333   2.742
18520WAT     H255803   2.249   6.433   2.809
18521WAT      O55804   0.589   8.360   3.349
18521WAT     H155805   0.631   8.276   3.315
18521WAT     H255806   0.490   8.354   3.341
18522WAT      O55807   1.685   4.631   9.733
18522WAT     H155808   1.592   4.632   9.697
18522WAT     H255809   1.704   4.542   9.774
18523WAT      O55810   8.943   1.805   2.709
18523WAT     H155811   8.903   1.766   2.626
18523WAT     H255812   8.904   1.896   2.725
18524WAT      O55813   1.099   8.985   9.775
18524WAT     H155814   1.138   8.988   9.683
18524WAT     H255815   1.074   8.890   9.798
18525WAT      O55816   1.652   4.937   3.899
18525WAT     H155817   1.560   4.900   3.913
18525WAT     H255818   1.649   5.010   3.831
18526WAT      O55819   5.702   9.310   3.107
18526WAT     H155820   5.674   9.268   3.021
18526WAT     H255821   5.677   9.406   3.108
18527WAT      O55822   5.752   6.168   6.029
18527WAT     H155823   5.780   6.121   6.113
18527WAT     H255824   5.828   6.170   5.964
18528WAT      O55825   3.350   1.146   8.876
18528WAT     H155826   3.425   1.200   8.840
18528WAT     H255827   3.277   1.141   8.808
18529WAT      O55828   1.662   5.396   7.180
18529WAT     H155829   1.710   5.309   7.170
18529WAT     H255830   1.664   5.423   7.277
18530WAT      O55831   4.803   0.079   7.458
18530WAT     H155832   4.761   0.029   7.383
18530WAT     H255833   4.903   0.075   7.449
18531WAT      O55834   7.436   8.184   2.023
18531WAT     H155835   7.488   8.255   1.975
18531WAT     H255836   7.352   8.222   2.059
18532WAT      O55837   6.036   2.924   6.429
18532WAT     H155838   6.094   2.918   6.510
18532WAT     H255839   6.085   2.887   6.350
18533WAT      O55840   9.143   2.958   6.334
18533WAT     H155841   9.089   2.920   6.259
18533WAT     H255842   9.235   2.918   6.332
18534WAT      O55843   9.064   4.462   8.168
18534WAT     H155844   9.154   4.425   8.191
18534WAT     H255845   9.065   4.561   8.179
18535WAT      O55846   7.559   6.919   4.008
18535WAT     H155847   7.539   7.011   4.041
18535WAT     H255848   7.656   6.900   4.018
18536WAT      O55849   8.187   7.246   7.006
18536WAT     H155850   8.206   7.343   7.021
18536WAT     H255851   8.104   7.236   6.951
18537WAT      O55852   0.517   4.418   2.697
18537WAT     H155853   0.452   4.442   2.769
18537WAT     H255854   0.586   4.490   2.690
18538WAT      O55855   0.032   6.085   5.143
18538WAT     H155856   0.094   6.057   5.070
18538WAT     H255857   0.042   6.183   5.159
18539WAT      O55858   6.016   7.017   2.381
18539WAT     H155859   6.017   6.934   2.436
18539WAT     H255860   6.036   7.096   2.439
18540WAT      O55861   8.730   3.304   5.966
18540WAT     H155862   8.675   3.361   5.905
18540WAT     H255863   8.776   3.363   6.033
18541WAT      O55864   3.040   0.862   6.851
18541WAT     H155865   3.126   0.908   6.833
18541WAT     H255866   3.026   0.853   6.949
18542WAT      O55867   9.102   7.166   0.283
18542WAT     H155868   9.053   7.086   0.317
18542WAT     H255869   9.115   7.231   0.357
18543WAT      O55870   0.055   3.826   3.601
18543WAT     H155871   0.112   3.908   3.600
18543WAT     H255872   0.105   3.749   3.561
18544WAT      O55873   3.328   5.250   9.468
18544WAT     H155874   3.248   5.285   9.518
18544WAT     H255875   3.410   5.301   9.496
18545WAT      O55876   2.347   6.646   1.931
18545WAT     H155877   2.295   6.596   1.862
18545WAT     H255878   2.294   6.725   1.962
18546WAT      O55879   7.440   4.764   6.513
18546WAT     H155880   7.449   4.829   6.438
18546WAT     H255881   7.458   4.811   6.600
18547WAT      O55882   4.998   8.859   6.520
18547WAT     H155883   4.936   8.923   6.475
18547WAT     H255884   4.991   8.869   6.619
18548WAT      O55885   8.448   4.794   9.420
18548WAT     H155886   8.468   4.829   9.329
18548WAT     H255887   8.508   4.836   9.488
18549WAT      O55888   6.913   4.605   9.326
18549WAT     H155889   6.842   4.669   9.299
18549WAT     H255890   6.987   4.654   9.373
18550WAT      O55891   0.417   9.840   2.177
18550WAT     H155892   0.368   9.921   2.210
18550WAT     H255893   0.362   9.792   2.109
18551WAT      O55894   0.675   9.406   4.515
18551WAT     H155895   0.700   9.410   4.612
18551WAT     H255896   0.587   9.453   4.501
18552WAT      O55897   4.758   3.986   6.357
18552WAT     H155898   4.846   3.945   6.332
18552WAT     H255899   4.765   4.030   6.446
18553WAT      O55900   9.149   1.920   9.573
18553WAT     H155901   9.163   2.018   9.584
18553WAT     H255902   9.145   1.876   9.662
18554WAT      O55903   0.439   8.182   3.588
18554WAT     H155904   0.387   8.267   3.596
18554WAT     H255905   0.392   8.119   3.525
18555WAT      O55906   7.484   6.554   2.803
18555WAT     H155907   7.438   6.642   2.794
18555WAT     H255908   7.537   6.552   2.888
18556WAT      O55909   5.406   1.735   9.509
18556WAT     H155910   5.317   1.754   9.467
18556WAT     H255911   5.459   1.676   9.447
18557WAT      O55912   8.632   5.513   1.886
18557WAT     H155913   8.541   5.473   1.890
18557WAT     H255914   8.624   5.613   1.878
18558WAT      O55915   4.415   4.957   8.160
18558WAT     H155916   4.449   4.997   8.245
18558WAT     H255917   4.335   4.900   8.181
18559WAT      O55918   0.172   8.079   5.047
18559WAT     H155919   0.123   8.037   4.970
18559WAT     H255920   0.268   8.091   5.022
18560WAT      O55921   8.297   2.251   5.794
18560WAT     H155922   8.220   2.190   5.774
18560WAT     H255923   8.383   2.201   5.780
18561WAT      O55924   6.336   7.361   4.913
18561WAT     H155925   6.251   7.413   4.910
18561WAT     H255926   6.371   7.359   5.006
18562WAT      O55927   2.823   8.894   1.569
18562WAT     H155928   2.747   8.936   1.618
18562WAT     H255929   2.788   8.831   1.500
18563WAT      O55930   5.326   4.202   8.190
18563WAT     H155931   5.280   4.167   8.271
18563WAT     H255932   5.258   4.236   8.125
18564WAT      O55933   0.899   7.875   6.275
18564WAT     H155934   0.869   7.793   6.324
18564WAT     H255935   0.819   7.932   6.254
18565WAT      O55936   2.893   5.825   2.595
18565WAT     H155937   2.883   5.771   2.679
18565WAT     H255938   2.921   5.765   2.520
18566WAT      O55939   8.340   4.915   9.066
18566WAT     H155940   8.325   4.909   8.968
18566WAT     H255941   8.283   4.989   9.104
18567WAT      O55942   2.872   0.168   6.165
18567WAT     H155943   2.786   0.155   6.115
18567WAT     H255944   2.915   0.253   6.135
18568WAT      O55945   5.095   4.429   5.406
18568WAT     H155946   5.139   4.375   5.335
18568WAT     H255947   5.165   4.474   5.463
18569WAT      O55948   7.215   5.937   8.388
18569WAT     H155949   7.281   5.904   8.456
18569WAT     H255950   7.263   5.967   8.306
18570WAT      O55951   4.695   3.454   7.112
18570WAT     H155952   4.617   3.450   7.050
18570WAT     H255953   4.767   3.392   7.079
18571WAT      O55954   8.894   2.865   7.355
18571WAT     H155955   8.943   2.947   7.324
18571WAT     H255956   8.886   2.867   7.454
18572WAT      O55957   5.129   2.829   9.791
18572WAT     H155958   5.100   2.750   9.844
18572WAT     H255959   5.229   2.830   9.786
18573WAT      O55960   7.968   5.539   5.295
18573WAT     H155961   8.019   5.625   5.290
18573WAT     H255962   7.878   5.556   5.336
18574WAT      O55963   0.380   9.600   3.666
18574WAT     H155964   0.287   9.565   3.680
18574WAT     H255965   0.410   9.648   3.748
18575WAT      O55966   9.081   1.249   7.578
18575WAT     H155967   9.007   1.266   7.513
18575WAT     H255968   9.116   1.157   7.565
18576WAT      O55969   8.160   6.978   7.515
18576WAT     H155970   8.086   7.028   7.561
18576WAT     H255971   8.195   7.032   7.439
18577WAT      O55972   8.589   9.302   9.455
18577WAT     H155973   8.580   9.204   9.471
18577WAT     H255974   8.684   9.329   9.468
18578WAT      O55975   2.164   3.921   9.495
18578WAT     H155976   2.083   3.976   9.475
18578WAT     H255977   2.141   3.824   9.489
18579WAT      O55978   8.047   3.713   4.255
18579WAT     H155979   8.145   3.715   4.275
18579WAT     H255980   8.030   3.647   4.181
18580WAT      O55981   1.825   6.083   6.104
18580WAT     H155982   1.733   6.074   6.066
18580WAT     H255983   1.819   6.096   6.203
18581WAT      O55984   3.515   2.800   8.384
18581WAT     H155985   3.550   2.877   8.332
18581WAT     H255986   3.486   2.728   8.322
18582WAT      O55987   0.270   0.399   3.296
18582WAT     H155988   0.205   0.358   3.360
18582WAT     H255989   0.345   0.441   3.347
18583WAT      O55990   4.783   4.779   6.521
18583WAT     H155991   4.780   4.680   6.515
18583WAT     H255992   4.816   4.806   6.611
18584WAT      O55993   8.440   2.040   7.466
18584WAT     H155994   8.464   1.992   7.550
18584WAT     H255995   8.457   1.981   7.387
18585WAT      O55996   2.467   8.758   2.937
18585WAT     H155997   2.512   8.672   2.914
18585WAT     H255998   2.529   8.834   2.919
18586WAT      O55999   7.325   7.498   8.597
18586WAT     H156000   7.394   7.570   8.609
18586WAT     H256001   7.296   7.496   8.501
18587WAT      O56002   3.842   6.233   0.443
18587WAT     H156003   3.853   6.248   0.345
18587WAT     H256004   3.933   6.230   0.486
18588WAT      O56005   6.555   8.803   3.604
18588WAT     H156006   6.570   8.884   3.661
18588WAT     H256007   6.464   8.806   3.564
18589WAT      O56008   9.693   0.284   7.852
18589WAT     H156009   9.692   0.190   7.885
18589WAT     H256010   9.770   0.297   7.789
18590WAT      O56011   8.079   0.024   7.824
18590WAT     H156012   8.116   0.076   7.747
18590WAT     H256013   8.116   0.061   7.910
18591WAT      O56014   5.477   2.532   0.871
18591WAT     H156015   5.575   2.550   0.877
18591WAT     H256016   5.430   2.613   0.836
18592WAT      O56017   9.749   2.802   9.762
18592WAT     H156018   9.793   2.870   9.821
18592WAT     H256019   9.714   2.727   9.818
18593WAT      O56020   0.405   9.235   2.471
18593WAT     H156021   0.439   9.298   2.540
18593WAT     H256022   0.321   9.271   2.431
18594WAT      O56023   0.608   6.489   3.141
18594WAT     H156024   0.542   6.414   3.134
18594WAT     H256025   0.561   6.572   3.172
18595WAT      O56026   7.337   8.706   4.412
18595WAT     H156027   7.320   8.715   4.314
18595WAT     H256028   7.414   8.644   4.427
18596WAT      O56029   2.497   1.904   0.167
18596WAT     H156030   2.585   1.937   0.133
18596WAT     H256031   2.495   1.911   0.266
18597WAT      O56032   3.620   1.785   5.763
18597WAT     H156033   3.623   1.870   5.815
18597WAT     H256034   3.712   1.745   5.760
18598WAT      O56035   8.000   5.043   9.275
18598WAT     H156036   7.908   5.041   9.315
18598WAT     H256037   7.994   5.052   9.176
18599WAT      O56038   4.857   8.982   6.058
18599WAT     H156039   4.768   8.948   6.028
18599WAT     H256040   4.929   8.922   6.022
18600WAT      O56041   1.475   5.343   2.427
18600WAT     H156042   1.570   5.330   2.456
18600WAT     H256043   1.420   5.265   2.458
18601WAT      O56044   5.894   4.623   0.008
18601WAT     H156045   5.924   4.717   0.022
18601WAT     H256046   5.795   4.617   0.026
18602WAT      O56047   4.463   6.539   6.782
18602WAT     H156048   4.558   6.542   6.815
18602WAT     H256049   4.461   6.566   6.686
18603WAT      O56050   8.765   1.069   0.479
18603WAT     H156051   8.726   1.132   0.546
18603WAT     H256052   8.864   1.062   0.493
18604WAT      O56053   3.052   4.926   2.469
18604WAT     H156054   3.052   4.941   2.370
18604WAT     H256055   3.022   5.009   2.515
18605WAT      O56056   8.051   5.738   0.635
18605WAT     H156057   7.956   5.712   0.622
18605WAT     H256058   8.069   5.752   0.732
18606WAT      O56059   6.415   6.335   2.919
18606WAT     H156060   6.414   6.352   3.018
18606WAT     H256061   6.396   6.421   2.871
18607WAT      O56062   0.415   4.124   6.284
18607WAT     H156063   0.487   4.104   6.217
18607WAT     H256064   0.377   4.038   6.317
18608WAT      O56065   2.290   2.022   1.559
18608WAT     H156066   2.352   2.092   1.525
18608WAT     H256067   2.242   1.979   1.482
18609WAT      O56068   6.701   1.416   7.008
18609WAT     H156069   6.618   1.362   7.018
18609WAT     H256070   6.779   1.354   6.994
18610WAT      O56071   9.302   4.977   5.304
18610WAT     H156072   9.381   5.037   5.311
18610WAT     H256073   9.331   4.882   5.314
18611WAT      O56074   7.692   6.723   1.511
18611WAT     H156075   7.632   6.734   1.590
18611WAT     H256076   7.785   6.750   1.536
18612WAT      O56077   6.385   0.398   6.102
18612WAT     H156078   6.328   0.325   6.140
18612WAT     H256079   6.401   0.381   6.005
18613WAT      O56080   6.912   2.314   3.196
18613WAT     H156081   7.002   2.354   3.215
18613WAT     H256082   6.875   2.273   3.279
18614WAT      O56083   1.238   7.009   5.456
18614WAT     H156084   1.250   6.920   5.500
18614WAT     H256085   1.237   7.081   5.525
18615WAT      O56086   1.789   0.588   6.919
18615WAT     H156087   1.800   0.515   6.852
18615WAT     H256088   1.765   0.548   7.008
18616WAT      O56089   4.439   4.334   3.303
18616WAT     H156090   4.378   4.259   3.330
18616WAT     H256091   4.443   4.402   3.376
18617WAT      O56092   6.328   8.187   6.917
18617WAT     H156093   6.238   8.226   6.901
18617WAT     H256094   6.357   8.133   6.838
18618WAT      O56095   7.606   9.629   0.086
18618WAT     H156096   7.655   9.713   0.063
18618WAT     H256097   7.615   9.564   0.011
18619WAT      O56098   4.318   3.475   0.276
18619WAT     H156099   4.383   3.536   0.231
18619WAT     H256100   4.280   3.412   0.208
18620WAT      O56101   4.047   9.151   8.765
18620WAT     H156102   4.144   9.150   8.741
18620WAT     H256103   4.015   9.057   8.777
18621WAT      O56104   1.534   6.782   6.638
18621WAT     H156105   1.554   6.702   6.694
18621WAT     H256106   1.435   6.793   6.630
18622WAT      O56107   9.631   2.955   8.479
18622WAT     H156108   9.627   3.014   8.560
18622WAT     H256109   9.663   2.864   8.505
18623WAT      O56110   4.703   3.755   7.769
18623WAT     H156111   4.697   3.656   7.780
18623WAT     H256112   4.622   3.788   7.720
18624WAT      O56113   7.886   9.356   8.621
18624WAT     H156114   7.844   9.268   8.645
18624WAT     H256115   7.818   9.415   8.578
18625WAT      O56116   6.128   1.819   2.887
18625WAT     H156117   6.065   1.859   2.954
18625WAT     H256118   6.082   1.744   2.839
18626WAT      O56119   3.804   0.576   0.789
18626WAT     H156120   3.862   0.510   0.742
18626WAT     H256121   3.832   0.582   0.885
18627WAT      O56122   6.988   3.777   8.985
18627WAT     H156123   6.945   3.866   8.996
18627WAT     H256124   7.083   3.782   9.014
18628WAT      O56125   4.468   9.164   4.563
18628WAT     H156126   4.410   9.088   4.594
18628WAT     H256127   4.411   9.245   4.549
18629WAT      O56128   4.051   5.927   4.276
18629WAT     H156129   4.148   5.918   4.300
18629WAT     H256130   4.043   5.948   4.178
18630WAT      O56131   4.941   8.428   3.900
18630WAT     H156132   4.887   8.367   3.842
18630WAT     H256133   4.973   8.506   3.846
18631WAT      O56134   0.824   5.208   9.857
18631WAT     H156135   0.837   5.138   9.787
18631WAT     H256136   0.862   5.175   9.944
18632WAT      O56137   6.362   4.085   9.223
18632WAT     H156138   6.445   4.138   9.211
18632WAT     H256139   6.375   4.020   9.298
18633WAT      O56140   4.791   6.839   6.817
18633WAT     H156141   4.836   6.910   6.762
18633WAT     H256142   4.806   6.857   6.914
18634WAT      O56143   9.522   0.700   1.030
18634WAT     H156144   9.434   0.718   0.987
18634WAT     H256145   9.512   0.627   1.097
18635WAT      O56146   6.899   3.510   8.026
18635WAT     H156147   6.931   3.597   8.063
18635WAT     H256148   6.857   3.455   8.099
18636WAT      O56149   6.634   4.059   5.179
18636WAT     H156150   6.696   3.981   5.189
18636WAT     H256151   6.687   4.141   5.157
18637WAT      O56152   0.517   8.182   8.639
18637WAT     H156153   0.565   8.233   8.568
18637WAT     H256154   0.517   8.085   8.617
18638WAT      O56155   1.804   0.377   5.358
18638WAT     H156156   1.858   0.461   5.368
18638WAT     H256157   1.715   0.389   5.402
18639WAT      O56158   3.171   2.055   5.204
18639WAT     H156159   3.087   2.095   5.168
18639WAT     H256160   3.165   1.955   5.200
18640WAT      O56161   9.354   4.914   8.992
18640WAT     H156162   9.437   4.899   8.938
18640WAT     H256163   9.296   4.982   8.945
18641WAT      O56164   6.293   7.087   4.935
18641WAT     H156165   6.246   7.087   5.023
18641WAT     H256166   6.318   7.181   4.911
18642WAT      O56167   9.462   1.220   0.427
18642WAT     H156168   9.523   1.162   0.372
18642WAT     H256169   9.367   1.199   0.405
18643WAT      O56170   2.327   6.954   7.075
18643WAT     H156171   2.423   6.978   7.086
18643WAT     H256172   2.279   7.027   7.026
18644WAT      O56173   0.162   7.683   4.854
18644WAT     H156174   0.249   7.643   4.880
18644WAT     H256175   0.088   7.640   4.905
18645WAT      O56176   3.080   8.267   7.655
18645WAT     H156177   3.013   8.202   7.692
18645WAT     H256178   3.162   8.265   7.711
18646WAT      O56179   8.572   1.507   5.792
18646WAT     H156180   8.636   1.549   5.728
18646WAT     H256181   8.480   1.540   5.774
18647WAT      O56182   4.104   4.044   1.107
18647WAT     H156183   4.018   3.998   1.128
18647WAT     H256184   4.092   4.143   1.113
18648WAT      O56185   3.273   8.141   6.789
18648WAT     H156186   3.305   8.141   6.883
18648WAT     H256187   3.259   8.046   6.759
18649WAT      O56188   3.180   2.157   6.535
18649WAT     H156189   3.125   2.077   6.514
18649WAT     H256190   3.122   2.228   6.576
18650WAT      O56191   1.030   9.073   6.106
18650WAT     H156192   0.982   9.016   6.173
18650WAT     H256193   0.971   9.089   6.027
18651WAT      O56194   4.662   8.800   7.069
18651WAT     H156195   4.648   8.706   7.038
18651WAT     H256196   4.643   8.863   6.994
18652WAT      O56197   9.316   8.128   7.971
18652WAT     H156198   9.372   8.098   8.048
18652WAT     H256199   9.230   8.077   7.970
18653WAT      O56200   0.286   0.242   1.677
18653WAT     H156201   0.314   0.263   1.771
18653WAT     H256202   0.328   0.156   1.648
18654WAT      O56203   8.055   4.122   3.339
18654WAT     H156204   8.138   4.163   3.300
18654WAT     H256205   8.042   4.031   3.300
18655WAT      O56206   9.282   3.966   4.002
18655WAT     H156207   9.237   3.969   3.913
18655WAT     H256208   9.212   3.964   4.074
18656WAT      O56209   0.441   2.813   1.007
18656WAT     H156210   0.378   2.869   1.060
18656WAT     H256211   0.391   2.758   0.941
18657WAT      O56212   4.080   8.839   6.477
18657WAT     H156213   4.053   8.854   6.572
18657WAT     H256214   4.178   8.858   6.466
18658WAT      O56215   0.879   3.196   3.268
18658WAT     H156216   0.906   3.252   3.346
18658WAT     H256217   0.868   3.101   3.297
18659WAT      O56218   2.265   7.473   5.763
18659WAT     H156219   2.193   7.541   5.745
18659WAT     H256220   2.301   7.439   5.676
18660WAT      O56221   1.457   7.044   1.935
18660WAT     H156222   1.456   7.004   2.026
18660WAT     H256223   1.535   7.107   1.928
18661WAT      O56224   4.565   6.870   6.352
18661WAT     H156225   4.601   6.947   6.299
18661WAT     H256226   4.470   6.853   6.327
18662WAT      O56227   8.328   3.637   4.917
18662WAT     H156228   8.305   3.721   4.867
18662WAT     H256229   8.243   3.593   4.948
18663WAT      O56230   5.254   6.292   0.426
18663WAT     H156231   5.287   6.214   0.478
18663WAT     H256232   5.176   6.334   0.473
18664WAT      O56233   9.795   1.819   0.226
18664WAT     H156234   9.805   1.787   0.132
18664WAT     H256235   9.865   1.777   0.284
18665WAT      O56236   5.409   1.792   4.790
18665WAT     H156237   5.393   1.779   4.888
18665WAT     H256238   5.485   1.734   4.761
18666WAT      O56239   9.489   6.319   3.970
18666WAT     H156240   9.445   6.231   3.950
18666WAT     H256241   9.467   6.346   4.064
18667WAT      O56242   2.412   2.984   2.379
18667WAT     H156243   2.469   2.993   2.297
18667WAT     H256244   2.340   2.918   2.362
18668WAT      O56245   0.220   0.379   1.439
18668WAT     H156246   0.236   0.330   1.525
18668WAT     H256247   0.183   0.315   1.371
18669WAT      O56248   0.258   2.732   4.818
18669WAT     H156249   0.339   2.791   4.824
18669WAT     H256250   0.237   2.715   4.722
18670WAT      O56251   3.281   9.198   2.698
18670WAT     H156252   3.194   9.169   2.738
18670WAT     H256253   3.312   9.130   2.631
18671WAT      O56254   5.109   9.035   8.477
18671WAT     H156255   5.037   9.070   8.536
18671WAT     H256256   5.180   8.991   8.533
18672WAT      O56257   9.143   3.962   3.759
18672WAT     H156258   9.081   3.914   3.821
18672WAT     H256259   9.101   4.049   3.731
18673WAT      O56260   1.369   2.819   9.398
18673WAT     H156261   1.456   2.801   9.350
18673WAT     H256262   1.360   2.755   9.474
18674WAT      O56263   3.531   7.459   2.624
18674WAT     H156264   3.587   7.493   2.548
18674WAT     H256265   3.543   7.519   2.703
18675WAT      O56266   2.913   2.749   6.894
18675WAT     H156267   2.929   2.690   6.974
18675WAT     H256268   3.000   2.770   6.851
18676WAT      O56269   2.940   1.901   0.859
18676WAT     H156270   2.992   1.986   0.870
18676WAT     H256271   2.948   1.870   0.764
18677WAT      O56272   6.941   7.892   2.834
18677WAT     H156273   7.006   7.933   2.770
18677WAT     H256274   6.889   7.964   2.880
18678WAT      O56275   0.266   1.208   2.792
18678WAT     H156276   0.321   1.125   2.805
18678WAT     H256277   0.174   1.193   2.829
18679WAT      O56278   0.487   9.418   7.370
18679WAT     H156279   0.387   9.425   7.364
18679WAT     H256280   0.529   9.484   7.307
18680WAT      O56281   7.918   6.693   3.646
18680WAT     H156282   7.843   6.677   3.710
18680WAT     H256283   7.964   6.607   3.625
18681WAT      O56284   2.641   9.431   2.754
18681WAT     H156285   2.664   9.511   2.697
18681WAT     H256286   2.565   9.382   2.712
18682WAT      O56287   4.508   7.772   8.799
18682WAT     H156288   4.521   7.796   8.703
18682WAT     H256289   4.507   7.672   8.809
18683WAT      O56290   2.295   1.954   0.679
18683WAT     H156291   2.356   1.880   0.708
18683WAT     H256292   2.204   1.940   0.718
18684WAT      O56293   0.494   4.924   0.415
18684WAT     H156294   0.423   4.861   0.446
18684WAT     H256295   0.575   4.913   0.473
18685WAT      O56296   1.336   0.087   5.292
18685WAT     H156297   1.342   0.184   5.270
18685WAT     H256298   1.243   0.055   5.274
18686WAT      O56299   7.968   6.786   1.570
18686WAT     H156300   7.968   6.885   1.583
18686WAT     H256301   8.020   6.764   1.487
18687WAT      O56302   4.275   2.775   3.373
18687WAT     H156303   4.351   2.840   3.369
18687WAT     H256304   4.190   2.824   3.395
18688WAT      O56305   6.830   9.837   1.623
18688WAT     H156306   6.748   9.831   1.567
18688WAT     H256307   6.909   9.855   1.564
18689WAT      O56308   0.914   1.132   7.288
18689WAT     H156309   0.860   1.215   7.297
18689WAT     H256310   0.881   1.079   7.209
18690WAT      O56311   7.332   1.665   8.524
18690WAT     H156312   7.357   1.743   8.466
18690WAT     H256313   7.251   1.688   8.577
18691WAT      O56314   0.756   7.686   4.309
18691WAT     H156315   0.800   7.723   4.390
18691WAT     H256316   0.689   7.751   4.274
18692WAT      O56317   6.103   6.885   8.424
18692WAT     H156318   6.026   6.945   8.443
18692WAT     H256319   6.123   6.886   8.326
18693WAT      O56320   5.300   5.720   6.723
18693WAT     H156321   5.281   5.759   6.813
18693WAT     H256322   5.397   5.733   6.702
18694WAT      O56323   5.524   5.742   2.135
18694WAT     H156324   5.620   5.750   2.109
18694WAT     H256325   5.474   5.696   2.062
18695WAT      O56326   6.208   3.488   9.874
18695WAT     H156327   6.183   3.443   9.788
18695WAT     H256328   6.155   3.573   9.883
18696WAT      O56329   0.599   0.874   5.162
18696WAT     H156330   0.524   0.898   5.224
18696WAT     H256331   0.567   0.879   5.068
18697WAT      O56332   8.580   0.413   1.169
18697WAT     H156333   8.623   0.474   1.236
18697WAT     H256334   8.643   0.399   1.092
18698WAT      O56335   2.888   4.417   5.343
18698WAT     H156336   2.911   4.325   5.376
18698WAT     H256337   2.864   4.412   5.246
18699WAT      O56338   6.855   8.771   7.094
18699WAT     H156339   6.769   8.799   7.051
18699WAT     H256340   6.917   8.849   7.098
18700WAT      O56341   2.338   4.710   0.420
18700WAT     H156342   2.264   4.646   0.439
18700WAT     H256343   2.425   4.661   0.417
18701WAT      O56344   2.352   0.431   7.435
18701WAT     H156345   2.358   0.331   7.436
18701WAT     H256346   2.259   0.459   7.462
18702WAT      O56347   1.628   7.133   7.041
18702WAT     H156348   1.549   7.131   6.980
18702WAT     H256349   1.622   7.211   7.103
18703WAT      O56350   0.045   3.136   5.967
18703WAT     H156351   0.052   3.220   6.022
18703WAT     H256352   0.124   3.078   5.985
18704WAT      O56353   0.078   5.185   9.025
18704WAT     H156354   0.170   5.223   9.024
18704WAT     H256355   0.047   5.175   9.120
18705WAT      O56356   3.261   6.300   2.412
18705WAT     H156357   3.178   6.260   2.372
18705WAT     H256358   3.270   6.271   2.507
18706WAT      O56359   8.731   5.680   9.313
18706WAT     H156360   8.800   5.723   9.255
18706WAT     H256361   8.645   5.731   9.306
18707WAT      O56362   5.982   2.933   5.494
18707WAT     H156363   5.911   2.878   5.538
18707WAT     H256364   5.960   2.944   5.397
18708WAT      O56365   5.202   0.385   1.179
18708WAT     H156366   5.203   0.419   1.273
18708WAT     H256367   5.289   0.340   1.159
18709WAT      O56368   0.347   3.969   6.758
18709WAT     H156369   0.359   3.999   6.853
18709WAT     H256370   0.436   3.942   6.721
18710WAT      O56371   8.681   4.588   4.107
18710WAT     H156372   8.701   4.664   4.169
18710WAT     H256373   8.586   4.594   4.077
18711WAT      O56374   5.651   3.864   3.482
18711WAT     H156375   5.680   3.770   3.501
18711WAT     H256376   5.686   3.925   3.553
18712WAT      O56377   4.849   8.263   3.111
18712WAT     H156378   4.803   8.350   3.092
18712WAT     H256379   4.873   8.218   3.026
18713WAT      O56380   4.003   8.671   8.973
18713WAT     H156381   3.987   8.714   9.062
18713WAT     H256382   3.925   8.614   8.949
18714WAT      O56383   2.260   3.660   3.312
18714WAT     H156384   2.195   3.680   3.385
18714WAT     H256385   2.344   3.712   3.327
18715WAT      O56386   0.398   2.383   3.499
18715WAT     H156387   0.461   2.451   3.462
18715WAT     H256388   0.443   2.332   3.573
18716WAT      O56389   4.365   0.096   5.568
18716WAT     H156390   4.423   0.078   5.489
18716WAT     H256391   4.270   0.110   5.538
18717WAT      O56392   6.152   2.084   3.382
18717WAT     H156393   6.178   2.105   3.476
18717WAT     H256394   6.219   2.123   3.320
18718WAT      O56395   7.485   1.501   0.196
18718WAT     H156396   7.505   1.403   0.188
18718WAT     H256397   7.394   1.514   0.234
18719WAT      O56398   2.652   5.052   9.152
18719WAT     H156399   2.723   5.008   9.206
18719WAT     H256400   2.639   5.146   9.183
18720WAT      O56401   2.148   3.333   9.055
18720WAT     H156402   2.214   3.258   9.047
18720WAT     H256403   2.079   3.324   8.983
18721WAT      O56404   5.077   9.027   3.182
18721WAT     H156405   5.109   8.988   3.095
18721WAT     H256406   5.151   9.078   3.225
18722WAT      O56407   3.416   6.557   6.406
18722WAT     H156408   3.451   6.650   6.405
18722WAT     H256409   3.451   6.510   6.487
18723WAT      O56410   1.721   7.962   4.776
18723WAT     H156411   1.663   7.888   4.810
18723WAT     H256412   1.664   8.033   4.734
18724WAT      O56413   2.842   2.734   1.316
18724WAT     H156414   2.750   2.743   1.279
18724WAT     H256415   2.893   2.666   1.263
18725WAT      O56416   2.142   3.663   9.441
18725WAT     H156417   2.150   3.573   9.484
18725WAT     H256418   2.183   3.660   9.350
18726WAT      O56419   6.453   8.833   7.160
18726WAT     H156420   6.468   8.804   7.254
18726WAT     H256421   6.517   8.905   7.136
18727WAT      O56422   7.048   7.192   3.173
18727WAT     H156423   7.081   7.286   3.174
18727WAT     H256424   7.081   7.144   3.254
18728WAT      O56425   6.606   9.286   1.271
18728WAT     H156426   6.660   9.335   1.340
18728WAT     H256427   6.531   9.238   1.316
18729WAT      O56428   6.848   0.148   8.798
18729WAT     H156429   6.768   0.207   8.789
18729WAT     H256430   6.868   0.132   8.894
18730WAT      O56431   3.774   7.836   6.633
18730WAT     H156432   3.763   7.740   6.607
18730WAT     H256433   3.814   7.887   6.557
18731WAT      O56434   7.181   7.468   4.579
18731WAT     H156435   7.149   7.378   4.549
18731WAT     H256436   7.111   7.512   4.635
18732WAT      O56437   2.087   9.195   4.853
18732WAT     H156438   2.145   9.261   4.899
18732WAT     H256439   2.037   9.240   4.779
18733WAT      O56440   5.377   1.421   2.288
18733WAT     H156441   5.446   1.476   2.241
18733WAT     H256442   5.384   1.434   2.387
18734WAT      O56443   2.225   9.718   7.988
18734WAT     H156444   2.187   9.638   7.943
18734WAT     H256445   2.217   9.797   7.927
18735WAT      O56446   3.341   8.466   1.762
18735WAT     H156447   3.389   8.394   1.812
18735WAT     H256448   3.321   8.434   1.669
18736WAT      O56449   0.389   2.514   4.896
18736WAT     H156450   0.334   2.593   4.869
18736WAT     H256451   0.481   2.545   4.920
18737WAT      O56452   9.649   7.295   5.288
18737WAT     H156453   9.563   7.288   5.238
18737WAT     H256454   9.693   7.206   5.292
18738WAT      O56455   4.646   1.803   4.785
18738WAT     H156456   4.575   1.778   4.719
18738WAT     H256457   4.733   1.764   4.756
18739WAT      O56458   2.142   2.619   4.632
18739WAT     H156459   2.199   2.537   4.634
18739WAT     H256460   2.096   2.626   4.544
18740WAT      O56461   5.816   7.741   4.201
18740WAT     H156462   5.718   7.724   4.215
18740WAT     H256463   5.829   7.798   4.120
18741WAT      O56464   4.612   4.296   2.627
18741WAT     H156465   4.564   4.258   2.706
18741WAT     H256466   4.572   4.259   2.543
18742WAT      O56467   9.192   1.587   0.398
18742WAT     H156468   9.097   1.556   0.406
18742WAT     H256469   9.228   1.559   0.309
18743WAT      O56470   6.801   3.894   4.313
18743WAT     H156471   6.716   3.886   4.364
18743WAT     H256472   6.857   3.812   4.328
18744WAT      O56473   2.570   3.001   6.367
18744WAT     H156474   2.472   3.012   6.385
18744WAT     H256475   2.587   3.017   6.270
18745WAT      O56476   5.735   7.882   5.053
18745WAT     H156477   5.672   7.922   5.119
18745WAT     H256478   5.733   7.934   4.968
18746WAT      O56479   7.365   0.692   6.235
18746WAT     H156480   7.322   0.769   6.187
18746WAT     H256481   7.299   0.653   6.299
18747WAT      O56482   6.834   2.021   8.115
18747WAT     H156483   6.756   1.962   8.138
18747WAT     H256484   6.901   1.969   8.062
18748WAT      O56485   5.259   2.376   9.802
18748WAT     H156486   5.220   2.451   9.854
18748WAT     H256487   5.245   2.290   9.851
18749WAT      O56488   6.137   6.522   4.783
18749WAT     H156489   6.138   6.470   4.698
18749WAT     H256490   6.121   6.460   4.860
18750WAT      O56491   2.339   3.230   1.846
18750WAT     H156492   2.264   3.296   1.836
18750WAT     H256493   2.304   3.148   1.892
18751WAT      O56494   2.012   8.322   6.720
18751WAT     H156495   2.108   8.348   6.714
18751WAT     H256496   1.955   8.403   6.706
18752WAT      O56497   3.365   8.877   3.223
18752WAT     H156498   3.407   8.809   3.163
18752WAT     H256499   3.305   8.936   3.168
18753WAT      O56500   6.262   8.217   2.728
18753WAT     H156501   6.242   8.140   2.787
18753WAT     H256502   6.353   8.206   2.687
18754WAT      O56503   3.132   3.705   3.515
18754WAT     H156504   3.215   3.693   3.569
18754WAT     H256505   3.146   3.777   3.448
18755WAT      O56506   4.684   7.206   6.607
18755WAT     H156507   4.689   7.305   6.623
18755WAT     H256508   4.595   7.172   6.638
18756WAT      O56509   9.851   9.848   2.872
18756WAT     H156510   9.896   9.814   2.789
18756WAT     H256511   9.837   9.772   2.935
18757WAT      O56512   3.585   8.517   8.062
18757WAT     H156513   3.529   8.437   8.084
18757WAT     H256514   3.559   8.553   7.972
18758WAT      O56515   1.398   0.844   6.226
18758WAT     H156516   1.371   0.759   6.182
18758WAT     H256517   1.429   0.909   6.157
18759WAT      O56518   6.671   7.562   1.512
18759WAT     H156519   6.758   7.518   1.537
18759WAT     H256520   6.618   7.579   1.595
18760WAT      O56521   1.773   4.523   8.149
18760WAT     H156522   1.813   4.559   8.233
18760WAT     H256523   1.743   4.429   8.163
18761WAT      O56524  -0.003   3.020   9.040
18761WAT     H156525   0.095   3.038   9.038
18761WAT     H256526  -0.028   2.959   8.965
18762WAT      O56527   7.805   0.620   6.495
18762WAT     H156528   7.902   0.627   6.472
18762WAT     H256529   7.786   0.529   6.531
18763WAT      O56530   2.317   8.172   9.438
18763WAT     H156531   2.355   8.116   9.511
18763WAT     H256532   2.282   8.113   9.365
18764WAT      O56533   6.624   3.510   9.308
18764WAT     H156534   6.575   3.467   9.231
18764WAT     H256535   6.664   3.596   9.277
18765WAT      O56536   4.404   7.811   7.173
18765WAT     H156537   4.419   7.815   7.074
18765WAT     H256538   4.374   7.901   7.205
18766WAT      O56539   0.853   8.774   0.567
18766WAT     H156540   0.851   8.692   0.624
18766WAT     H256541   0.923   8.765   0.497
18767WAT      O56542   6.779   6.590   0.692
18767WAT     H156543   6.769   6.637   0.780
18767WAT     H256544   6.782   6.657   0.618
18768WAT      O56545   5.594   4.014   6.341
18768WAT     H156546   5.586   3.914   6.350
18768WAT     H256547   5.691   4.038   6.330
18769WAT      O56548   0.770   1.521   2.156
18769WAT     H156549   0.704   1.558   2.090
18769WAT     H256550   0.819   1.445   2.114
18770WAT      O56551   8.709   7.933   7.132
18770WAT     H156552   8.658   7.976   7.057
18770WAT     H256553   8.668   7.845   7.154
18771WAT      O56554   6.931   2.256   4.336
18771WAT     H156555   6.857   2.210   4.385
18771WAT     H256556   7.009   2.268   4.398
18772WAT      O56557   0.415   0.112   1.432
18772WAT     H156558   0.335   0.123   1.373
18772WAT     H256559   0.483   0.056   1.385
18773WAT      O56560   1.405   9.043   4.633
18773WAT     H156561   1.439   8.967   4.688
18773WAT     H256562   1.306   9.050   4.644
18774WAT      O56563   8.083   1.260   6.280
18774WAT     H156564   8.045   1.297   6.365
18774WAT     H256565   8.136   1.331   6.234
18775WAT      O56566   7.642   0.945   9.884
18775WAT     H156567   7.636   0.846   9.891
18775WAT     H256568   7.554   0.983   9.857
18776WAT      O56569   4.748   2.469   9.542
18776WAT     H156570   4.756   2.396   9.610
18776WAT     H256571   4.789   2.553   9.579
18777WAT      O56572   6.689   2.613   0.770
18777WAT     H156573   6.782   2.609   0.734
18777WAT     H256574   6.626   2.638   0.696
18778WAT      O56575   4.844   9.117   9.736
18778WAT     H156576   4.811   9.095   9.644
18778WAT     H256577   4.828   9.040   9.797
18779WAT      O56578   8.681   8.231   5.520
18779WAT     H156579   8.622   8.307   5.493
18779WAT     H256580   8.740   8.206   5.444
18780WAT      O56581   7.034   9.451   9.146
18780WAT     H156582   7.034   9.453   9.246
18780WAT     H256583   7.128   9.439   9.113
18781WAT      O56584   0.999   5.582   2.823
18781WAT     H156585   0.982   5.621   2.913
18781WAT     H256586   1.072   5.634   2.778
18782WAT      O56587   7.624   7.959   9.508
18782WAT     H156588   7.610   8.005   9.421
18782WAT     H256589   7.557   7.992   9.574
18783WAT      O56590   8.578   5.248   6.903
18783WAT     H156591   8.620   5.171   6.950
18783WAT     H256592   8.527   5.303   6.968
18784WAT      O56593   2.405   1.587   3.162
18784WAT     H156594   2.353   1.512   3.203
18784WAT     H256595   2.433   1.651   3.234
18785WAT      O56596   6.329   5.527   3.773
18785WAT     H156597   6.344   5.575   3.687
18785WAT     H256598   6.331   5.592   3.849
18786WAT      O56599   1.051   0.716   7.478
18786WAT     H156600   0.960   0.731   7.440
18786WAT     H256601   1.073   0.619   7.473
18787WAT      O56602   5.035   3.307   0.274
18787WAT     H156603   4.996   3.381   0.328
18787WAT     H256604   5.070   3.236   0.334
18788WAT      O56605   5.733   4.569   5.996
18788WAT     H156606   5.675   4.612   5.927
18788WAT     H256607   5.767   4.638   6.060
18789WAT      O56608   2.002   7.423   7.066
18789WAT     H156609   1.964   7.332   7.050
18789WAT     H256610   1.929   7.491   7.065
18790WAT      O56611   9.111   7.252   0.024
18790WAT     H156612   9.097   7.350   0.010
18790WAT     H256613   9.100   7.230   0.121
18791WAT      O56614   3.138   6.253   4.660
18791WAT     H156615   3.087   6.180   4.616
18791WAT     H256616   3.080   6.297   4.729
18792WAT      O56617   5.490   3.404   8.659
18792WAT     H156618   5.508   3.479   8.723
18792WAT     H256619   5.576   3.376   8.616
18793WAT      O56620   2.474   1.026   5.142
18793WAT     H156621   2.527   1.030   5.226
18793WAT     H256622   2.522   0.970   5.075
18794WAT      O56623   3.195   2.207   5.435
18794WAT     H156624   3.249   2.187   5.516
18794WAT     H256625   3.185   2.124   5.380
18795WAT      O56626   2.897   3.614   6.483
18795WAT     H156627   2.838   3.667   6.422
18795WAT     H256628   2.877   3.638   6.578
18796WAT      O56629   8.062   2.203   7.239
18796WAT     H156630   8.139   2.216   7.301
18796WAT     H256631   8.046   2.287   7.187
18797WAT      O56632   5.450   1.292   4.082
18797WAT     H156633   5.444   1.340   4.169
18797WAT     H256634   5.525   1.226   4.086
18798WAT      O56635   0.546   9.835   0.762
18798WAT     H156636   0.584   9.833   0.669
18798WAT     H256637   0.477   9.908   0.767
18799WAT      O56638   7.936   6.913   3.018
18799WAT     H156639   7.842   6.881   3.024
18799WAT     H256640   7.939   7.002   2.972
18800WAT      O56641   3.843   2.912   1.542
18800WAT     H156642   3.838   2.936   1.639
18800WAT     H256643   3.777   2.839   1.522
18801WAT      O56644   4.348   6.939   7.782
18801WAT     H156645   4.350   6.845   7.815
18801WAT     H256646   4.271   6.952   7.720
18802WAT      O56647   9.165   8.984   4.578
18802WAT     H156648   9.077   8.941   4.555
18802WAT     H256649   9.151   9.081   4.598
18803WAT      O56650   0.728   2.500   5.853
18803WAT     H156651   0.826   2.497   5.832
18803WAT     H256652   0.704   2.590   5.888
18804WAT      O56653   1.043   0.453   1.690
18804WAT     H156654   1.124   0.465   1.634
18804WAT     H256655   1.046   0.362   1.734
18805WAT      O56656   3.776   5.626   2.284
18805WAT     H156657   3.826   5.712   2.297
18805WAT     H256658   3.820   5.572   2.213
18806WAT      O56659   9.559   5.565   1.057
18806WAT     H156660   9.593   5.472   1.045
18806WAT     H256661   9.620   5.617   1.116
18807WAT      O56662   8.465   9.783   2.580
18807WAT     H156663   8.481   9.765   2.677
18807WAT     H256664   8.551   9.805   2.535
18808WAT      O56665   7.642   5.197   5.758
18808WAT     H156666   7.603   5.129   5.820
18808WAT     H256667   7.714   5.248   5.806
18809WAT      O56668   3.288   8.619   2.206
18809WAT     H156669   3.257   8.525   2.220
18809WAT     H256670   3.385   8.620   2.183
18810WAT      O56671   8.172   0.984   3.247
18810WAT     H156672   8.242   1.045   3.212
18810WAT     H256673   8.210   0.926   3.319
18811WAT      O56674   6.390   1.517   5.022
18811WAT     H156675   6.349   1.462   5.094
18811WAT     H256676   6.323   1.581   4.985
18812WAT      O56677   5.050   7.648   5.316
18812WAT     H156678   5.029   7.682   5.407
18812WAT     H256679   5.135   7.594   5.319
18813WAT      O56680   7.000   5.825   8.685
18813WAT     H156681   7.078   5.791   8.633
18813WAT     H256682   6.918   5.773   8.660
18814WAT      O56683   3.975   0.712   0.199
18814WAT     H156684   4.002   0.771   0.123
18814WAT     H256685   3.902   0.756   0.251
18815WAT      O56686   7.099   8.188   2.687
18815WAT     H156687   7.025   8.243   2.648
18815WAT     H256688   7.133   8.125   2.617
18816WAT      O56689   5.814   3.820   1.882
18816WAT     H156690   5.736   3.869   1.922
18816WAT     H256691   5.799   3.807   1.784
18817WAT      O56692   9.481   7.573   2.430
18817WAT     H156693   9.501   7.670   2.444
18817WAT     H256694   9.384   7.556   2.446
18818WAT      O56695   2.111   1.158   2.948
18818WAT     H156696   2.143   1.253   2.949
18818WAT     H256697   2.138   1.114   3.034
18819WAT      O56698   4.312   6.636   1.890
18819WAT     H156699   4.287   6.658   1.795
18819WAT     H256700   4.409   6.656   1.905
18820WAT      O56701   7.663   1.306   1.308
18820WAT     H156702   7.756   1.304   1.271
18820WAT     H256703   7.598   1.324   1.234
18821WAT      O56704   3.481   4.023   4.621
18821WAT     H156705   3.397   4.036   4.568
18821WAT     H256706   3.556   4.073   4.577
18822WAT      O56707   7.247   6.173   4.820
18822WAT     H156708   7.235   6.167   4.721
18822WAT     H256709   7.160   6.157   4.866
18823WAT      O56710   7.876   6.406   6.323
18823WAT     H156711   7.882   6.377   6.228
18823WAT     H256712   7.955   6.371   6.374
18824WAT      O56713   2.734   4.641   5.461
18824WAT     H156714   2.691   4.597   5.539
18824WAT     H256715   2.788   4.574   5.410
18825WAT      O56716   4.891   5.515   4.842
18825WAT     H156717   4.797   5.530   4.810
18825WAT     H256718   4.889   5.469   4.930
18826WAT      O56719   2.583   7.122   7.132
18826WAT     H156720   2.566   7.102   7.228
18826WAT     H256721   2.571   7.220   7.116
18827WAT      O56722   5.301   9.479   0.825
18827WAT     H156723   5.342   9.390   0.845
18827WAT     H256724   5.203   9.469   0.812
18828WAT      O56725   5.570   9.764   7.775
18828WAT     H156726   5.622   9.681   7.794
18828WAT     H256727   5.532   9.799   7.861
18829WAT      O56728   2.117   0.394   9.026
18829WAT     H156729   2.102   0.302   8.991
18829WAT     H256730   2.169   0.448   8.960
18830WAT      O56731   7.588   7.336   7.726
18830WAT     H156732   7.606   7.241   7.700
18830WAT     H256733   7.497   7.343   7.766
18831WAT      O56734   7.268   9.454   4.420
18831WAT     H156735   7.344   9.410   4.373
18831WAT     H256736   7.186   9.397   4.411
18832WAT      O56737   0.831   5.177   8.768
18832WAT     H156738   0.761   5.153   8.701
18832WAT     H256739   0.896   5.101   8.777
18833WAT      O56740   8.457   4.107   9.200
18833WAT     H156741   8.531   4.076   9.260
18833WAT     H256742   8.442   4.205   9.214
18834WAT      O56743   0.099   6.022   4.386
18834WAT     H156744   0.067   6.104   4.435
18834WAT     H256745   0.193   6.002   4.412
18835WAT      O56746   3.830   9.499   1.923
18835WAT     H156747   3.870   9.476   1.834
18835WAT     H256748   3.756   9.435   1.943
18836WAT      O56749   5.641   1.911   2.319
18836WAT     H156750   5.721   1.882   2.267
18836WAT     H256751   5.669   1.970   2.394
18837WAT      O56752   7.199   6.838   6.229
18837WAT     H156753   7.261   6.785   6.288
18837WAT     H256754   7.188   6.930   6.267
18838WAT      O56755   7.451   1.865   3.975
18838WAT     H156756   7.506   1.928   4.031
18838WAT     H256757   7.374   1.915   3.935
18839WAT      O56758   2.892   9.166   5.058
18839WAT     H156759   2.796   9.169   5.086
18839WAT     H256760   2.930   9.258   5.056
18840WAT      O56761   6.750   8.492   9.053
18840WAT     H156762   6.701   8.578   9.067
18840WAT     H256763   6.719   8.424   9.120
18841WAT      O56764   3.552   7.633   2.105
18841WAT     H156765   3.514   7.699   2.169
18841WAT     H256766   3.644   7.663   2.077
18842WAT      O56767   7.810   9.257   6.826
18842WAT     H156768   7.714   9.246   6.853
18842WAT     H256769   7.823   9.220   6.734
18843WAT      O56770   9.302   7.808   7.670
18843WAT     H156771   9.274   7.903   7.690
18843WAT     H256772   9.222   7.757   7.637
18844WAT      O56773   1.392   9.738   5.113
18844WAT     H156774   1.440   9.790   5.043
18844WAT     H256775   1.378   9.795   5.194
18845WAT      O56776   7.522   5.377   9.893
18845WAT     H156777   7.431   5.358   9.932
18845WAT     H256778   7.527   5.341   9.800
18846WAT      O56779   4.357   8.194   5.480
18846WAT     H156780   4.313   8.283   5.489
18846WAT     H256781   4.307   8.126   5.532
18847WAT      O56782   8.415   2.888   4.338
18847WAT     H156783   8.371   2.798   4.336
18847WAT     H256784   8.499   2.882   4.391
18848WAT      O56785   0.132   6.711   5.418
18848WAT     H156786   0.079   6.793   5.438
18848WAT     H256787   0.230   6.733   5.425
18849WAT      O56788   5.111   6.291   0.986
18849WAT     H156789   5.127   6.377   1.034
18849WAT     H256790   5.022   6.294   0.940
18850WAT      O56791   1.021   6.676   2.384
18850WAT     H156792   0.969   6.595   2.412
18850WAT     H256793   1.104   6.683   2.439
18851WAT      O56794   8.765   9.346   5.351
18851WAT     H156795   8.718   9.312   5.269
18851WAT     H256796   8.709   9.415   5.396
18852WAT      O56797   8.596   4.194   0.494
18852WAT     H156798   8.666   4.152   0.551
18852WAT     H256799   8.535   4.123   0.457
18853WAT      O56800   4.122   4.437   3.242
18853WAT     H156801   4.219   4.463   3.239
18853WAT     H256802   4.111   4.345   3.206
18854WAT      O56803   9.832   4.683   0.518
18854WAT     H156804   9.839   4.704   0.420
18854WAT     H256805   9.833   4.584   0.531
18855WAT      O56806   8.617   2.389   0.450
18855WAT     H156807   8.561   2.339   0.517
18855WAT     H256808   8.557   2.427   0.379
18856WAT      O56809   8.562   5.793   3.896
18856WAT     H156810   8.657   5.807   3.921
18856WAT     H256811   8.507   5.776   3.978
18857WAT      O56812   9.314   0.418   1.869
18857WAT     H156813   9.218   0.390   1.857
18857WAT     H256814   9.361   0.412   1.782
18858WAT      O56815   2.217   5.523   5.624
18858WAT     H156816   2.190   5.455   5.557
18858WAT     H256817   2.214   5.483   5.716
18859WAT      O56818   6.498   5.906   5.998
18859WAT     H156819   6.469   5.972   5.929
18859WAT     H256820   6.458   5.931   6.086
18860WAT      O56821   3.542   1.186   8.383
18860WAT     H156822   3.486   1.229   8.312
18860WAT     H256823   3.584   1.257   8.439
18861WAT      O56824   1.276   5.325   7.342
18861WAT     H156825   1.180   5.351   7.348
18861WAT     H256826   1.291   5.240   7.394
18862WAT      O56827   0.616   9.640   8.797
18862WAT     H156828   0.540   9.694   8.762
18862WAT     H256829   0.592   9.543   8.797
18863WAT      O56830   4.792   6.239   2.808
18863WAT     H156831   4.888   6.264   2.822
18863WAT     H256832   4.781   6.141   2.817
18864WAT      O56833   7.660   8.847   2.432
18864WAT     H156834   7.582   8.862   2.372
18864WAT     H256835   7.662   8.919   2.502
18865WAT      O56836   3.863   1.904   3.526
18865WAT     H156837   3.959   1.933   3.536
18865WAT     H256838   3.845   1.829   3.590
18866WAT      O56839   1.703   1.263   8.640
18866WAT     H156840   1.653   1.288   8.557
18866WAT     H256841   1.755   1.179   8.622
18867WAT      O56842   1.118   4.139   4.848
18867WAT     H156843   1.146   4.235   4.857
18867WAT     H256844   1.036   4.133   4.791
18868WAT      O56845   1.692   4.183   1.780
18868WAT     H156846   1.601   4.150   1.755
18868WAT     H256847   1.715   4.262   1.723
18869WAT      O56848   8.344   3.340   6.466
18869WAT     H156849   8.441   3.318   6.479
18869WAT     H256850   8.288   3.278   6.522
18870WAT      O56851   0.560   6.260   4.165
18870WAT     H156852   0.648   6.305   4.183
18870WAT     H256853   0.491   6.330   4.146
18871WAT      O56854   2.779   8.990   3.883
18871WAT     H156855   2.729   9.029   3.961
18871WAT     H256856   2.812   9.064   3.824
18872WAT      O56857   5.295   0.962   8.735
18872WAT     H156858   5.240   1.045   8.743
18872WAT     H256859   5.328   0.936   8.826
18873WAT      O56860   3.181   6.290   5.347
18873WAT     H156861   3.126   6.374   5.342
18873WAT     H256862   3.159   6.232   5.269
18874WAT      O56863   3.594   0.463   2.573
18874WAT     H156864   3.650   0.450   2.491
18874WAT     H256865   3.525   0.390   2.577
18875WAT      O56866   7.626   9.739   1.392
18875WAT     H156867   7.562   9.809   1.361
18875WAT     H256868   7.584   9.684   1.464
18876WAT      O56869   4.083   8.382   8.744
18876WAT     H156870   4.121   8.328   8.670
18876WAT     H256871   4.149   8.452   8.772
18877WAT      O56872   6.421   2.862   8.858
18877WAT     H156873   6.355   2.788   8.844
18877WAT     H256874   6.451   2.897   8.769
18878WAT      O56875   0.177   7.301   6.462
18878WAT     H156876   0.244   7.359   6.508
18878WAT     H256877   0.086   7.339   6.474
18879WAT      O56878   2.240   6.457   8.014
18879WAT     H156879   2.293   6.396   8.071
18879WAT     H256880   2.215   6.539   8.066
18880WAT      O56881   7.146   5.210   1.545
18880WAT     H156882   7.088   5.289   1.562
18880WAT     H256883   7.161   5.200   1.447
18881WAT      O56884   2.180   3.872   6.461
18881WAT     H156885   2.083   3.875   6.484
18881WAT     H256886   2.213   3.777   6.466
18882WAT      O56887   8.742   1.794   0.451
18882WAT     H156888   8.795   1.804   0.367
18882WAT     H256889   8.645   1.807   0.431
18883WAT      O56890   5.705   8.576   8.807
18883WAT     H156891   5.626   8.543   8.754
18883WAT     H256892   5.674   8.644   8.873
18884WAT      O56893   1.340   8.606   6.339
18884WAT     H156894   1.255   8.562   6.367
18884WAT     H256895   1.321   8.671   6.265
18885WAT      O56896   7.946   0.177   1.733
18885WAT     H156897   7.972   0.183   1.829
18885WAT     H256898   7.872   0.242   1.714
18886WAT      O56899   8.241   5.746   8.947
18886WAT     H156900   8.172   5.808   8.910
18886WAT     H256901   8.199   5.658   8.969
18887WAT      O56902   6.328   8.757   9.341
18887WAT     H156903   6.373   8.787   9.425
18887WAT     H256904   6.237   8.797   9.336
18888WAT      O56905   5.220   2.933   5.255
18888WAT     H156906   5.166   2.849   5.240
18888WAT     H256907   5.159   3.007   5.282
18889WAT      O56908   1.333   2.621   3.839
18889WAT     H156909   1.350   2.594   3.933
18889WAT     H256910   1.400   2.577   3.779
18890WAT      O56911   3.665   2.664   8.784
18890WAT     H156912   3.598   2.736   8.804
18890WAT     H256913   3.739   2.669   8.851
18891WAT      O56914   7.328   1.888   0.151
18891WAT     H156915   7.363   1.875   0.243
18891WAT     H256916   7.403   1.910   0.089
18892WAT      O56917   8.913   6.458   2.790
18892WAT     H156918   8.893   6.511   2.873
18892WAT     H256919   9.012   6.451   2.779
18893WAT      O56920   0.877   7.075   1.151
18893WAT     H156921   0.823   6.998   1.119
18893WAT     H256922   0.922   7.119   1.073
18894WAT      O56923   4.422   5.142   7.814
18894WAT     H156924   4.357   5.069   7.792
18894WAT     H256925   4.493   5.107   7.874
18895WAT      O56926   9.499   3.873   1.843
18895WAT     H156927   9.530   3.959   1.884
18895WAT     H256928   9.399   3.869   1.846
18896WAT      O56929   2.310   4.999   0.549
18896WAT     H156930   2.401   4.964   0.525
18896WAT     H256931   2.261   5.023   0.465
18897WAT      O56932   3.958   4.852   4.615
18897WAT     H156933   3.963   4.807   4.526
18897WAT     H256934   3.995   4.791   4.685
18898WAT      O56935   9.557   7.274   4.539
18898WAT     H156936   9.487   7.204   4.522
18898WAT     H256937   9.647   7.234   4.523
18899WAT      O56938   5.157   4.882   3.010
18899WAT     H156939   5.173   4.906   3.106
18899WAT     H256940   5.085   4.813   3.004
18900WAT      O56941   9.099   9.277   6.437
18900WAT     H156942   9.092   9.303   6.340
18900WAT     H256943   9.061   9.185   6.449
18901WAT      O56944   3.218   8.267   7.416
18901WAT     H156945   3.174   8.312   7.339
18901WAT     H256946   3.156   8.266   7.494
18902WAT      O56947   6.309   9.512   8.223
18902WAT     H156948   6.374   9.588   8.227
18902WAT     H256949   6.218   9.544   8.250
18903WAT      O56950   9.279   7.497   0.220
18903WAT     H156951   9.213   7.505   0.145
18903WAT     H256952   9.360   7.448   0.188
18904WAT      O56953   7.094   8.175   1.283
18904WAT     H156954   7.120   8.080   1.269
18904WAT     H256955   6.995   8.182   1.291
18905WAT      O56956   7.903   7.051   7.348
18905WAT     H156957   7.947   6.998   7.275
18905WAT     H256958   7.856   7.130   7.308
18906WAT      O56959   3.768   7.705   5.024
18906WAT     H156960   3.784   7.664   4.935
18906WAT     H256961   3.755   7.804   5.014
18907WAT      O56962   2.130   6.010   0.182
18907WAT     H156963   2.189   5.961   0.247
18907WAT     H256964   2.171   6.007   0.091
18908WAT      O56965   7.639   3.701   2.966
18908WAT     H156966   7.602   3.765   2.899
18908WAT     H256967   7.714   3.649   2.924
18909WAT      O56968   8.309   0.028   8.550
18909WAT     H156969   8.342   0.121   8.559
18909WAT     H256970   8.214   0.023   8.581
18910WAT      O56971   7.137   6.469   2.919
18910WAT     H156972   7.168   6.505   2.831
18910WAT     H256973   7.048   6.509   2.942
18911WAT      O56974   8.105   4.218   6.142
18911WAT     H156975   8.135   4.223   6.047
18911WAT     H256976   8.019   4.266   6.153
18912WAT      O56977   6.179   5.610   8.990
18912WAT     H156978   6.166   5.558   9.075
18912WAT     H256979   6.136   5.700   9.000
18913WAT      O56980   8.637   2.135   0.013
18913WAT     H156981   8.703   2.209  -0.005
18913WAT     H256982   8.582   2.120  -0.068
18914WAT      O56983   7.978   5.697   7.842
18914WAT     H156984   7.899   5.758   7.835
18914WAT     H256985   7.947   5.604   7.860
18915WAT      O56986   6.168   5.966   7.078
18915WAT     H156987   6.120   5.927   6.999
18915WAT     H256988   6.218   5.894   7.126
18916WAT      O56989   6.008   7.015   6.822
18916WAT     H156990   5.990   7.081   6.895
18916WAT     H256991   6.054   7.061   6.746
18917WAT      O56992   8.905   1.491   8.127
18917WAT     H156993   8.806   1.477   8.114
18917WAT     H256994   8.952   1.403   8.122
18918WAT      O56995   9.694   4.249   2.974
18918WAT     H156996   9.783   4.294   2.972
18918WAT     H256997   9.635   4.294   3.041
18919WAT      O56998   8.092   0.175   5.947
18919WAT     H156999   8.172   0.211   5.995
18919WAT     H257000   8.010   0.190   6.003
18920WAT      O57001   0.810   6.428   7.973
18920WAT     H157002   0.798   6.329   7.970
18920WAT     H257003   0.758   6.470   7.898
18921WAT      O57004   3.595   7.143   8.874
18921WAT     H157005   3.662   7.216   8.856
18921WAT     H257006   3.606   7.071   8.806
18922WAT      O57007   2.383   6.265   1.570
18922WAT     H157008   2.357   6.252   1.665
18922WAT     H257009   2.392   6.176   1.525
18923WAT      O57010   3.875   9.357   8.363
18923WAT     H157011   3.946   9.291   8.338
18923WAT     H257012   3.888   9.385   8.458
18924WAT      O57013   2.736   2.587   4.841
18924WAT     H157014   2.643   2.616   4.819
18924WAT     H257015   2.732   2.499   4.890
18925WAT      O57016   4.743   7.293   1.946
18925WAT     H157017   4.681   7.342   1.884
18925WAT     H257018   4.792   7.223   1.895
18926WAT      O57019   6.843   8.443   1.057
18926WAT     H157020   6.843   8.503   1.137
18926WAT     H257021   6.937   8.428   1.026
18927WAT      O57022   7.032   4.793   2.121
18927WAT     H157023   6.963   4.830   2.058
18927WAT     H257024   7.021   4.694   2.127
18928WAT      O57025   8.759   4.844   5.169
18928WAT     H157026   8.727   4.851   5.075
18928WAT     H257027   8.720   4.918   5.224
18929WAT      O57028   1.064   2.799   5.714
18929WAT     H157029   1.138   2.867   5.717
18929WAT     H257030   1.006   2.817   5.634
18930WAT      O57031   9.027   7.964   8.023
18930WAT     H157032   9.106   7.910   7.996
18930WAT     H257033   8.955   7.903   8.059
18931WAT      O57034   5.910   5.350   6.499
18931WAT     H157035   5.949   5.331   6.589
18931WAT     H257036   5.940   5.441   6.469
18932WAT      O57037   1.932   0.179   3.530
18932WAT     H157038   1.905   0.084   3.515
18932WAT     H257039   1.878   0.239   3.472
18933WAT      O57040   1.742   5.377   6.376
18933WAT     H157041   1.701   5.459   6.418
18933WAT     H257042   1.679   5.300   6.386
18934WAT      O57043   3.718   9.573   5.692
18934WAT     H157044   3.764   9.592   5.779
18934WAT     H257045   3.786   9.564   5.620
18935WAT      O57046   0.201   5.504   6.122
18935WAT     H157047   0.261   5.426   6.138
18935WAT     H257048   0.218   5.574   6.192
18936WAT      O57049   1.916   0.334   2.522
18936WAT     H157050   1.910   0.434   2.523
18936WAT     H257051   2.007   0.306   2.491
18937WAT      O57052   3.109   0.546   7.128
18937WAT     H157053   3.029   0.596   7.162
18937WAT     H257054   3.192   0.583   7.169
18938WAT      O57055   2.446   0.686   3.194
18938WAT     H157056   2.478   0.592   3.183
18938WAT     H257057   2.363   0.687   3.250
18939WAT      O57058   6.617   6.337   0.758
18939WAT     H157059   6.650   6.256   0.708
18939WAT     H257060   6.679   6.414   0.740
18940WAT      O57061   8.311   3.359   0.266
18940WAT     H157062   8.232   3.311   0.230
18940WAT     H257063   8.286   3.408   0.349
18941WAT      O57064   5.395   7.944   9.472
18941WAT     H157065   5.489   7.960   9.499
18941WAT     H257066   5.335   7.955   9.551
18942WAT      O57067   8.198   6.331   9.250
18942WAT     H157068   8.166   6.292   9.336
18942WAT     H257069   8.290   6.296   9.230
18943WAT      O57070   0.991   4.751   2.533
18943WAT     H157071   0.902   4.707   2.543
18943WAT     H257072   0.985   4.846   2.565
18944WAT      O57073   8.470   5.567   8.460
18944WAT     H157074   8.532   5.488   8.456
18944WAT     H257075   8.437   5.578   8.554
18945WAT      O57076   2.053   4.501   0.075
18945WAT     H157077   1.991   4.433   0.035
18945WAT     H257078   2.013   4.537   0.159
18946WAT      O57079   3.421   3.913   1.127
18946WAT     H157080   3.478   3.866   1.195
18946WAT     H257081   3.341   3.953   1.172
18947WAT      O57082   2.423   4.135   7.033
18947WAT     H157083   2.501   4.106   7.089
18947WAT     H257084   2.457   4.180   6.950
18948WAT      O57085   6.759   2.977   6.038
18948WAT     H157086   6.701   3.053   6.012
18948WAT     H257087   6.744   2.900   5.976
18949WAT      O57088   0.842   6.152   9.019
18949WAT     H157089   0.904   6.088   9.064
18949WAT     H257090   0.869   6.246   9.041
18950WAT      O57091   1.481   6.595   7.178
18950WAT     H157092   1.434   6.674   7.138
18950WAT     H257093   1.579   6.612   7.180
18951WAT      O57094   8.715   2.628   1.011
18951WAT     H157095   8.668   2.568   1.075
18951WAT     H257096   8.762   2.573   0.942
18952WAT      O57097   2.111   0.455   9.703
18952WAT     H157098   2.059   0.406   9.633
18952WAT     H257099   2.051   0.521   9.749
18953WAT      O57100   7.367   8.872   8.440
18953WAT     H157101   7.435   8.841   8.373
18953WAT     H257102   7.286   8.813   8.434
18954WAT      O57103   2.104   8.518   1.418
18954WAT     H157104   2.201   8.499   1.407
18954WAT     H257105   2.058   8.510   1.329
18955WAT      O57106   2.577   0.977   5.381
18955WAT     H157107   2.588   1.049   5.449
18955WAT     H257108   2.559   0.890   5.427
18956WAT      O57109   6.392   3.314   1.778
18956WAT     H157110   6.322   3.298   1.708
18956WAT     H257111   6.409   3.228   1.828
18957WAT      O57112   8.049   7.898   4.407
18957WAT     H157113   8.112   7.837   4.455
18957WAT     H257114   8.023   7.857   4.320
18958WAT      O57115   4.553   7.076   0.171
18958WAT     H157116   4.506   6.998   0.131
18958WAT     H257117   4.616   7.045   0.242
18959WAT      O57118   4.851   7.474   9.117
18959WAT     H157119   4.836   7.514   9.207
18959WAT     H257120   4.947   7.487   9.090
18960WAT      O57121   8.124   6.138   8.443
18960WAT     H157122   8.180   6.203   8.391
18960WAT     H257123   8.149   6.045   8.418
18961WAT      O57124   3.459   8.045   8.320
18961WAT     H157125   3.447   7.982   8.244
18961WAT     H257126   3.463   7.994   8.406
18962WAT      O57127   4.211   5.470   1.600
18962WAT     H157128   4.302   5.513   1.605
18962WAT     H257129   4.152   5.509   1.671
18963WAT      O57130   8.894   6.682   8.330
18963WAT     H157131   8.819   6.619   8.345
18963WAT     H257132   8.922   6.679   8.234
18964WAT      O57133   9.091   4.647   0.645
18964WAT     H157134   9.129   4.567   0.691
18964WAT     H257135   8.992   4.649   0.658
18965WAT      O57136   7.892   8.078   3.674
18965WAT     H157137   7.854   8.057   3.584
18965WAT     H257138   7.986   8.111   3.663
18966WAT      O57139   0.581   9.411   5.496
18966WAT     H157140   0.559   9.321   5.535
18966WAT     H257141   0.544   9.417   5.404
18967WAT      O57142   4.984   0.289   8.083
18967WAT     H157143   4.956   0.287   7.987
18967WAT     H257144   5.056   0.358   8.096
18968WAT      O57145   9.785   5.789   0.169
18968WAT     H157146   9.755   5.845   0.092
18968WAT     H257147   9.706   5.748   0.213
18969WAT      O57148   1.796   4.238   0.416
18969WAT     H157149   1.708   4.287   0.419
18969WAT     H257150   1.780   4.144   0.387
18970WAT      O57151   2.818   4.376   5.090
18970WAT     H157152   2.897   4.394   5.031
18970WAT     H257153   2.744   4.439   5.067
18971WAT      O57154   0.809   4.445   7.543
18971WAT     H157155   0.889   4.504   7.557
18971WAT     H257156   0.726   4.501   7.542
18972WAT      O57157   9.599   9.327   1.079
18972WAT     H157158   9.634   9.268   1.151
18972WAT     H257159   9.622   9.422   1.099
18973WAT      O57160   8.571   5.493   4.028
18973WAT     H157161   8.518   5.564   4.073
18973WAT     H257162   8.561   5.501   3.929
18974WAT      O57163   9.336   7.743   5.970
18974WAT     H157164   9.303   7.754   6.064
18974WAT     H257165   9.277   7.795   5.908
18975WAT      O57166   8.205   8.541   0.209
18975WAT     H157167   8.111   8.547   0.244
18975WAT     H257168   8.226   8.447   0.185
18976WAT      O57169   2.904   0.071   7.311
18976WAT     H157170   2.881   0.068   7.409
18976WAT     H257171   3.003   0.072   7.300
18977WAT      O57172   0.088   6.284   8.885
18977WAT     H157173   0.063   6.189   8.904
18977WAT     H257174   0.043   6.344   8.951
18978WAT      O57175   8.441   6.022   6.527
18978WAT     H157176   8.353   6.069   6.528
18978WAT     H257177   8.514   6.087   6.548
18979WAT      O57178   5.432   2.304   6.651
18979WAT     H157179   5.341   2.282   6.617
18979WAT     H257180   5.433   2.397   6.688
18980WAT      O57181   2.637   0.732   5.488
18980WAT     H157182   2.645   0.763   5.582
18980WAT     H257183   2.726   0.699   5.456
18981WAT      O57184   5.565   6.516   0.044
18981WAT     H157185   5.564   6.485  -0.051
18981WAT     H257186   5.572   6.437   0.105
18982WAT      O57187   3.568   4.608   5.533
18982WAT     H157188   3.623   4.555   5.468
18982WAT     H257189   3.472   4.578   5.528
18983WAT      O57190   6.731   1.945   0.117
18983WAT     H157191   6.810   1.945   0.055
18983WAT     H257192   6.678   2.029   0.104
18984WAT      O57193   5.860   3.801   5.951
18984WAT     H157194   5.859   3.714   6.000
18984WAT     H257195   5.950   3.843   5.959
18985WAT      O57196   5.074   5.066   1.083
18985WAT     H157197   5.026   5.013   1.013
18985WAT     H257198   5.139   5.007   1.130
18986WAT      O57199   1.757   6.072   0.971
18986WAT     H157200   1.742   5.990   1.025
18986WAT     H257201   1.749   6.050   0.874
18987WAT      O57202   4.506   5.467   8.993
18987WAT     H157203   4.465   5.380   8.966
18987WAT     H257204   4.501   5.476   9.092
18988WAT      O57205   4.842   0.527   3.662
18988WAT     H157206   4.748   0.493   3.656
18988WAT     H257207   4.847   0.619   3.625
18989WAT      O57208   4.212   0.038   8.018
18989WAT     H157209   4.299   0.009   8.058
18989WAT     H257210   4.199   0.135   8.036
18990WAT      O57211   6.296   3.146   9.173
18990WAT     H157212   6.318   3.165   9.077
18990WAT     H257213   6.261   3.053   9.182
18991WAT      O57214   7.948   6.208   2.153
18991WAT     H157215   7.886   6.218   2.231
18991WAT     H257216   8.026   6.269   2.166
18992WAT      O57217   3.500   5.972   8.775
18992WAT     H157218   3.474   6.034   8.849
18992WAT     H257219   3.492   5.877   8.806
18993WAT      O57220   7.798   0.280   9.750
18993WAT     H157221   7.808   0.181   9.761
18993WAT     H257222   7.776   0.300   9.655
18994WAT      O57223   3.456   2.268   1.730
18994WAT     H157224   3.441   2.195   1.797
18994WAT     H257225   3.383   2.266   1.662
18995WAT      O57226   3.083   8.631   0.986
18995WAT     H157227   3.040   8.696   0.924
18995WAT     H257228   3.175   8.609   0.952
18996WAT      O57229   2.434   9.275   2.037
18996WAT     H157230   2.415   9.361   1.989
18996WAT     H257231   2.367   9.262   2.110
18997WAT      O57232   9.658   0.810   0.499
18997WAT     H157233   9.632   0.740   0.565
18997WAT     H257234   9.676   0.766   0.410
18998WAT      O57235   3.037   5.061   5.839
18998WAT     H157236   3.011   4.967   5.859
18998WAT     H257237   3.011   5.083   5.745
18999WAT      O57238   5.282   3.120   4.171
18999WAT     H157239   5.214   3.188   4.198
18999WAT     H257240   5.369   3.166   4.151
19000WAT      O57241   7.301   5.308   4.632
19000WAT     H157242   7.229   5.378   4.642
19000WAT     H257243   7.307   5.255   4.716
19001WAT      O57244   9.301   5.034   5.657
19001WAT     H157245   9.206   5.018   5.685
19001WAT     H257246   9.331   4.961   5.596
19002WAT      O57247   4.497   7.468   8.872
19002WAT     H157248   4.457   7.481   8.963
19002WAT     H257249   4.583   7.418   8.880
19003WAT      O57250   4.618   1.392   0.906
19003WAT     H157251   4.692   1.325   0.904
19003WAT     H257252   4.569   1.385   0.993
19004WAT      O57253   2.442   8.482   6.178
19004WAT     H157254   2.530   8.527   6.192
19004WAT     H257255   2.430   8.461   6.081
19005WAT      O57256   2.671   4.978   4.109
19005WAT     H157257   2.620   5.058   4.143
19005WAT     H257258   2.762   5.008   4.078
19006WAT      O57259   9.160   5.105   4.195
19006WAT     H157260   9.256   5.078   4.187
19006WAT     H257261   9.151   5.202   4.173
19007WAT      O57262   0.108   0.308   2.095
19007WAT     H157263   0.080   0.378   2.160
19007WAT     H257264   0.039   0.302   2.022
19008WAT      O57265   5.813   6.918   0.436
19008WAT     H157266   5.831   6.822   0.456
19008WAT     H257267   5.721   6.928   0.401
19009WAT      O57268   5.274   5.112   0.062
19009WAT     H157269   5.270   5.206   0.097
19009WAT     H257270   5.200   5.098  -0.003
19010WAT      O57271   7.874   7.419   9.630
19010WAT     H157272   7.953   7.400   9.689
19010WAT     H257273   7.882   7.510   9.590
19011WAT      O57274   3.302   6.971   8.772
19011WAT     H157275   3.274   6.903   8.704
19011WAT     H257276   3.289   7.063   8.735
19012WAT      O57277   6.107   1.501   1.837
19012WAT     H157278   6.122   1.432   1.766
19012WAT     H257279   6.193   1.549   1.854
19013WAT      O57280   7.014   9.828   0.810
19013WAT     H157281   6.935   9.888   0.800
19013WAT     H257282   7.088   9.858   0.749
19014WAT      O57283   9.131   9.599   7.571
19014WAT     H157284   9.046   9.628   7.528
19014WAT     H257285   9.205   9.661   7.544
19015WAT      O57286   2.708   3.414   1.779
19015WAT     H157287   2.656   3.491   1.815
19015WAT     H257288   2.804   3.440   1.769
19016WAT      O57289   0.618   2.912   1.383
19016WAT     H157290   0.637   2.911   1.481
19016WAT     H257291   0.592   3.005   1.356
19017WAT      O57292   0.937   0.683   8.991
19017WAT     H157293   0.934   0.736   8.907
19017WAT     H257294   0.975   0.739   9.065
19018WAT      O57295   1.467   2.914   7.890
19018WAT     H157296   1.375   2.898   7.855
19018WAT     H257297   1.461   2.964   7.976
19019WAT      O57298   4.421   4.453   5.041
19019WAT     H157299   4.500   4.448   4.980
19019WAT     H257300   4.446   4.420   5.132
19020WAT      O57301   9.877   4.813   7.490
19020WAT     H157302   9.806   4.845   7.552
19020WAT     H257303   9.965   4.853   7.516
19021WAT      O57304   7.014   3.968   0.354
19021WAT     H157305   7.035   3.954   0.258
19021WAT     H257306   7.096   3.954   0.409
19022WAT      O57307   9.249   6.713   4.910
19022WAT     H157308   9.317   6.737   4.841
19022WAT     H257309   9.281   6.635   4.963
19023WAT      O57310   2.277   8.799   8.447
19023WAT     H157311   2.301   8.706   8.476
19023WAT     H257312   2.206   8.795   8.377
19024WAT      O57313   9.676   7.062   4.264
19024WAT     H157314   9.713   7.075   4.356
19024WAT     H257315   9.733   6.997   4.214
19025WAT      O57316   2.390   4.330   7.918
19025WAT     H157317   2.433   4.385   7.845
19025WAT     H257318   2.459   4.307   7.986
19026WAT      O57319   1.561   2.358   3.469
19026WAT     H157320   1.644   2.367   3.413
19026WAT     H257321   1.481   2.384   3.415
19027WAT      O57322   1.344   0.755   5.829
19027WAT     H157323   1.371   0.819   5.902
19027WAT     H257324   1.371   0.662   5.854
19028WAT      O57325   1.408   6.864   4.834
19028WAT     H157326   1.371   6.855   4.742
19028WAT     H257327   1.483   6.799   4.847
19029WAT      O57328   1.214   2.751   4.855
19029WAT     H157329   1.308   2.780   4.837
19029WAT     H257330   1.152   2.794   4.789
19030WAT      O57331   6.814   5.551   7.899
19030WAT     H157332   6.862   5.532   7.813
19030WAT     H257333   6.767   5.639   7.892
19031WAT      O57334   0.814   2.889   5.656
19031WAT     H157335   0.846   2.947   5.731
19031WAT     H257336   0.825   2.938   5.569
19032WAT      O57337   7.066   5.300   8.405
19032WAT     H157338   7.143   5.276   8.345
19032WAT     H257339   6.996   5.229   8.399
19033WAT      O57340   9.588   3.725   0.410
19033WAT     H157341   9.632   3.745   0.497
19033WAT     H257342   9.609   3.797   0.344
19034WAT      O57343   8.593   0.157   0.284
19034WAT     H157344   8.677   0.212   0.293
19034WAT     H257345   8.555   0.139   0.375
19035WAT      O57346   9.115   9.336   1.252
19035WAT     H157347   9.189   9.291   1.202
19035WAT     H257348   9.096   9.286   1.336
19036WAT      O57349   5.535   2.205   1.753
19036WAT     H157350   5.546   2.283   1.691
19036WAT     H257351   5.493   2.236   1.839
19037WAT      O57352   8.983   7.276   8.098
19037WAT     H157353   8.997   7.372   8.073
19037WAT     H257354   8.996   7.219   8.018
19038WAT      O57355   7.335   1.641   1.204
19038WAT     H157356   7.282   1.674   1.282
19038WAT     H257357   7.416   1.699   1.191
19039WAT      O57358   6.333   9.327   8.419
19039WAT     H157359   6.329   9.397   8.347
19039WAT     H257360   6.241   9.297   8.442
19040WAT      O57361   0.948   6.076   3.942
19040WAT     H157362   0.874   6.056   3.877
19040WAT     H257363   1.024   6.014   3.924
19041WAT      O57364   1.291   2.202   3.974
19041WAT     H157365   1.341   2.261   4.037
19041WAT     H257366   1.277   2.112   4.017
19042WAT      O57367   4.225   5.797   4.039
19042WAT     H157368   4.259   5.833   4.126
19042WAT     H257369   4.247   5.861   3.965
19043WAT      O57370   7.721   3.863   3.148
19043WAT     H157371   7.673   3.792   3.096
19043WAT     H257372   7.700   3.953   3.109
19044WAT      O57373   8.934   0.982   7.708
19044WAT     H157374   8.929   0.922   7.788
19044WAT     H257375   9.029   0.991   7.679
19045WAT      O57376   3.225   1.821   1.414
19045WAT     H157377   3.301   1.882   1.438
19045WAT     H257378   3.159   1.871   1.358
19046WAT      O57379   2.623   1.137   5.583
19046WAT     H157380   2.719   1.116   5.602
19046WAT     H257381   2.612   1.236   5.573
19047WAT      O57382   5.950   6.763   6.751
19047WAT     H157383   5.953   6.748   6.652
19047WAT     H257384   5.987   6.854   6.772
19048WAT      O57385   1.157   5.159   2.302
19048WAT     H157386   1.167   5.211   2.217
19048WAT     H257387   1.127   5.066   2.281
19049WAT      O57388   2.143   3.609   2.042
19049WAT     H157389   2.095   3.691   2.011
19049WAT     H257390   2.085   3.560   2.108
19050WAT      O57391   0.803   8.707   9.579
19050WAT     H157392   0.836   8.762   9.502
19050WAT     H257393   0.792   8.766   9.659
19051WAT      O57394   8.064   9.579   2.790
19051WAT     H157395   8.062   9.510   2.862
19051WAT     H257396   8.073   9.670   2.830
19052WAT      O57397   7.047   4.605   6.021
19052WAT     H157398   7.137   4.648   6.025
19052WAT     H257399   6.987   4.660   5.963
19053WAT      O57400   3.349   3.817   1.747
19053WAT     H157401   3.306   3.728   1.757
19053WAT     H257402   3.279   3.886   1.726
19054WAT      O57403   8.154   3.322   1.362
19054WAT     H157404   8.212   3.243   1.382
19054WAT     H257405   8.085   3.332   1.435
19055WAT      O57406   7.439   2.200   4.745
19055WAT     H157407   7.499   2.251   4.684
19055WAT     H257408   7.416   2.112   4.703
19056WAT      O57409   2.717   5.781   8.236
19056WAT     H157410   2.789   5.798   8.169
19056WAT     H257411   2.741   5.700   8.290
19057WAT      O57412   3.535   2.625   5.301
19057WAT     H157413   3.536   2.533   5.262
19057WAT     H257414   3.555   2.692   5.230
19058WAT      O57415   1.389   8.332   2.288
19058WAT     H157416   1.400   8.399   2.214
19058WAT     H257417   1.478   8.304   2.322
19059WAT      O57418   8.660   8.739   3.276
19059WAT     H157419   8.670   8.765   3.180
19059WAT     H257420   8.571   8.695   3.289
19060WAT      O57421   0.279   1.478   4.120
19060WAT     H157422   0.306   1.382   4.109
19060WAT     H257423   0.179   1.485   4.116
19061WAT      O57424   0.398   6.817   2.002
19061WAT     H157425   0.435   6.753   2.069
19061WAT     H257426   0.442   6.906   2.013
19062WAT      O57427   3.600   8.760   1.064
19062WAT     H157428   3.576   8.842   1.115
19062WAT     H257429   3.681   8.718   1.104
19063WAT      O57430   4.818   9.309   0.989
19063WAT     H157431   4.724   9.278   1.004
19063WAT     H257432   4.880   9.254   1.045
19064WAT      O57433   8.325   7.473   5.429
19064WAT     H157434   8.237   7.460   5.385
19064WAT     H257435   8.359   7.566   5.410
19065WAT      O57436   8.573   9.451   5.559
19065WAT     H157437   8.578   9.532   5.618
19065WAT     H257438   8.540   9.373   5.612
19066WAT      O57439   9.225   3.156   2.227
19066WAT     H157440   9.211   3.082   2.293
19066WAT     H257441   9.190   3.128   2.137
19067WAT      O57442   0.973   4.152   2.348
19067WAT     H157443   0.969   4.086   2.423
19067WAT     H257444   0.944   4.241   2.382
19068WAT      O57445   5.962   0.277   7.291
19068WAT     H157446   6.049   0.231   7.271
19068WAT     H257447   5.977   0.375   7.300
19069WAT      O57448   5.085   5.096   1.487
19069WAT     H157449   5.081   5.196   1.488
19069WAT     H257450   5.032   5.059   1.563
19070WAT      O57451   7.315   6.880   8.783
19070WAT     H157452   7.410   6.880   8.816
19070WAT     H257453   7.300   6.961   8.727
19071WAT      O57454   1.884   5.730   3.994
19071WAT     H157455   1.937   5.814   3.988
19071WAT     H257456   1.794   5.750   4.032
19072WAT      O57457   3.787   3.387   9.594
19072WAT     H157458   3.697   3.345   9.604
19072WAT     H257459   3.816   3.380   9.499
19073WAT      O57460   5.218   4.267   0.610
19073WAT     H157461   5.192   4.363   0.617
19073WAT     H257462   5.278   4.243   0.686
19074WAT      O57463   5.531   3.253   4.096
19074WAT     H157464   5.496   3.252   4.002
19074WAT     H257465   5.592   3.175   4.109
19075WAT      O57466   1.733   0.012   2.348
19075WAT     H157467   1.692  -0.077   2.364
19075WAT     H257468   1.766   0.050   2.434
19076WAT      O57469   4.533   8.257   1.454
19076WAT     H157470   4.531   8.351   1.419
19076WAT     H257471   4.490   8.254   1.545
19077WAT      O57472   2.530   8.961   5.817
19077WAT     H157473   2.534   9.049   5.865
19077WAT     H257474   2.514   8.887   5.882
19078WAT      O57475   6.185   3.933   6.824
19078WAT     H157476   6.116   4.002   6.842
19078WAT     H257477   6.273   3.963   6.859
19079WAT      O57478   2.417   7.324   8.989
19079WAT     H157479   2.343   7.293   9.049
19079WAT     H257480   2.383   7.395   8.928
19080WAT      O57481   1.701   7.917   1.923
19080WAT     H157482   1.682   7.855   1.999
19080WAT     H257483   1.798   7.941   1.924
19081WAT      O57484   3.134   2.993   1.465
19081WAT     H157485   3.063   2.979   1.397
19081WAT     H257486   3.180   3.080   1.449
19082WAT      O57487   5.032   6.710   5.996
19082WAT     H157488   5.053   6.628   6.050
19082WAT     H257489   5.084   6.708   5.911
19083WAT      O57490   9.023   3.782   0.831
19083WAT     H157491   9.044   3.868   0.878
19083WAT     H257492   9.031   3.795   0.732
19084WAT      O57493   6.898   5.212   0.570
19084WAT     H157494   6.952   5.206   0.655
19084WAT     H257495   6.887   5.120   0.531
19085WAT      O57496   3.263   3.122   9.328
19085WAT     H157497   3.327   3.053   9.360
19085WAT     H257498   3.283   3.209   9.373
19086WAT      O57499   2.167   0.092   3.908
19086WAT     H157500   2.140   0.044   3.825
19086WAT     H257501   2.101   0.164   3.928
19087WAT      O57502   6.679   7.562   8.189
19087WAT     H157503   6.639   7.485   8.139
19087WAT     H257504   6.776   7.546   8.204
19088WAT      O57505   5.681   9.594   5.185
19088WAT     H157506   5.686   9.495   5.168
19088WAT     H257507   5.714   9.614   5.277
19089WAT      O57508   2.444   0.281   2.460
19089WAT     H157509   2.464   0.235   2.373
19089WAT     H257510   2.507   0.249   2.530
19090WAT      O57511   5.674   6.040   3.582
19090WAT     H157512   5.602   6.105   3.606
19090WAT     H257513   5.660   5.955   3.634
19091WAT      O57514   0.027   5.667   2.044
19091WAT     H157515   0.038   5.675   1.945
19091WAT     H257516   0.096   5.724   2.089
19092WAT      O57517   3.494   8.798   3.873
19092WAT     H157518   3.521   8.766   3.782
19092WAT     H257519   3.423   8.737   3.910
19093WAT      O57520   2.982   5.480   5.412
19093WAT     H157521   3.002   5.487   5.314
19093WAT     H257522   3.037   5.407   5.452
19094WAT      O57523   6.964   0.722   5.564
19094WAT     H157524   6.949   0.632   5.605
19094WAT     H257525   6.957   0.793   5.635
19095WAT      O57526   9.720   5.334   6.908
19095WAT     H157527   9.819   5.331   6.912
19095WAT     H257528   9.682   5.258   6.961
19096WAT      O57529   9.465   2.260   2.231
19096WAT     H157530   9.457   2.311   2.317
19096WAT     H257531   9.560   2.236   2.215
19097WAT      O57532   1.470   1.161   2.179
19097WAT     H157533   1.557   1.175   2.133
19097WAT     H257534   1.478   1.187   2.275
19098WAT      O57535   8.538   5.181   9.388
19098WAT     H157536   8.456   5.233   9.366
19098WAT     H257537   8.541   5.162   9.486
19099WAT      O57538   8.053   9.373   1.621
19099WAT     H157539   8.008   9.451   1.664
19099WAT     H257540   8.144   9.399   1.589
19100WAT      O57541   5.085   3.523   0.990
19100WAT     H157542   5.112   3.515   0.894
19100WAT     H257543   5.151   3.580   1.039
19101WAT      O57544   3.094   9.819   8.874
19101WAT     H157545   3.125   9.728   8.900
19101WAT     H257546   3.136   9.845   8.787
19102WAT      O57547   8.310   6.797   0.353
19102WAT     H157548   8.314   6.761   0.446
19102WAT     H257549   8.401   6.829   0.326
19103WAT      O57550   1.970   0.725   3.204
19103WAT     H157551   2.022   0.715   3.120
19103WAT     H257552   1.886   0.776   3.186
19104WAT      O57553   3.685   9.599   3.096
19104WAT     H157554   3.682   9.642   3.006
19104WAT     H257555   3.617   9.642   3.156
19105WAT      O57556   3.021   5.931   6.674
19105WAT     H157557   3.049   5.918   6.579
19105WAT     H257558   3.057   6.018   6.708
19106WAT      O57559   0.014   8.906   6.123
19106WAT     H157560  -0.076   8.880   6.088
19106WAT     H257561   0.083   8.892   6.052
19107WAT      O57562   7.712   1.435   4.198
19107WAT     H157563   7.630   1.426   4.254
19107WAT     H257564   7.691   1.408   4.104
19108WAT      O57565   8.737   7.856   8.763
19108WAT     H157566   8.693   7.855   8.853
19108WAT     H257567   8.821   7.801   8.767
19109WAT      O57568   6.205   8.760   0.873
19109WAT     H157569   6.166   8.779   0.963
19109WAT     H257570   6.292   8.809   0.862
19110WAT      O57571   9.319   9.482   5.220
19110WAT     H157572   9.270   9.499   5.305
19110WAT     H257573   9.357   9.568   5.186
19111WAT      O57574   8.486   8.379   9.774
19111WAT     H157575   8.404   8.322   9.784
19111WAT     H257576   8.545   8.366   9.854
19112WAT      O57577   9.701   4.605   1.685
19112WAT     H157578   9.625   4.636   1.629
19112WAT     H257579   9.752   4.683   1.720
19113WAT      O57580   6.315   9.252   6.839
19113WAT     H157581   6.256   9.261   6.919
19113WAT     H257582   6.400   9.302   6.854
19114WAT      O57583   4.450   6.805   0.131
19114WAT     H157584   4.500   6.751   0.062
19114WAT     H257585   4.354   6.778   0.131
19115WAT      O57586   5.924   8.115   8.852
19115WAT     H157587   5.844   8.088   8.798
19115WAT     H257588   5.923   8.214   8.866
19116WAT      O57589   2.383   2.611   4.423
19116WAT     H157590   2.460   2.563   4.466
19116WAT     H257591   2.354   2.560   4.342
19117WAT      O57592   9.693   2.669   8.415
19117WAT     H157593   9.644   2.674   8.328
19117WAT     H257594   9.791   2.678   8.398
19118WAT      O57595   7.948   0.804   4.119
19118WAT     H157596   7.887   0.840   4.048
19118WAT     H257597   8.018   0.746   4.077
19119WAT      O57598   9.389   6.691   1.062
19119WAT     H157599   9.376   6.652   1.153
19119WAT     H257600   9.388   6.618   0.994
19120WAT      O57601   5.496   8.203   1.980
19120WAT     H157602   5.448   8.287   1.956
19120WAT     H257603   5.496   8.142   1.901
19121WAT      O57604   1.730   6.957   0.337
19121WAT     H157605   1.766   6.935   0.428
19121WAT     H257606   1.669   7.035   0.344
19122WAT      O57607   8.751   9.194   6.339
19122WAT     H157608   8.729   9.257   6.265
19122WAT     H257609   8.720   9.232   6.426
19123WAT      O57610   3.266   3.186   2.814
19123WAT     H157611   3.203   3.261   2.831
19123WAT     H257612   3.360   3.216   2.829
19124WAT      O57613   7.236   8.669   9.391
19124WAT     H157614   7.137   8.682   9.386
19124WAT     H257615   7.257   8.599   9.459
19125WAT      O57616   5.239   9.087   7.857
19125WAT     H157617   5.161   9.043   7.813
19125WAT     H257618   5.252   9.179   7.820
19126WAT      O57619   5.914   0.985   2.944
19126WAT     H157620   5.923   1.037   3.029
19126WAT     H257621   5.904   0.888   2.965
19127WAT      O57622   5.663   1.761   0.935
19127WAT     H157623   5.632   1.806   0.851
19127WAT     H257624   5.701   1.829   0.997
19128WAT      O57625   2.509   0.342   7.069
19128WAT     H157626   2.589   0.337   7.128
19128WAT     H257627   2.498   0.256   7.019
19129WAT      O57628   4.183   9.232   3.429
19129WAT     H157629   4.101   9.180   3.407
19129WAT     H257630   4.167   9.287   3.511
19130WAT      O57631   7.957   8.981   2.553
19130WAT     H157632   7.895   9.025   2.487
19130WAT     H257633   8.031   9.044   2.577
19131WAT      O57634   3.781   3.079   0.718
19131WAT     H157635   3.690   3.121   0.719
19131WAT     H257636   3.848   3.146   0.687
19132WAT      O57637   9.083   0.485   5.326
19132WAT     H157638   9.013   0.552   5.299
19132WAT     H257639   9.169   0.508   5.282
19133WAT      O57640   6.531   2.370   7.623
19133WAT     H157641   6.543   2.469   7.608
19133WAT     H257642   6.438   2.343   7.599
19134WAT      O57643   4.869   5.241   3.842
19134WAT     H157644   4.811   5.321   3.828
19134WAT     H257645   4.884   5.195   3.755
19135WAT      O57646   3.111   6.936   6.075
19135WAT     H157647   3.174   7.009   6.101
19135WAT     H257648   3.123   6.859   6.138
19136WAT      O57649   8.286   2.174   1.559
19136WAT     H157650   8.324   2.260   1.592
19136WAT     H257651   8.202   2.193   1.507
19137WAT      O57652   5.828   7.181   6.201
19137WAT     H157653   5.888   7.215   6.129
19137WAT     H257654   5.738   7.225   6.193
19138WAT      O57655   6.432   6.212   8.164
19138WAT     H157656   6.449   6.308   8.145
19138WAT     H257657   6.334   6.195   8.171
19139WAT      O57658   4.407   4.758   4.312
19139WAT     H157659   4.357   4.722   4.391
19139WAT     H257660   4.500   4.784   4.340
19140WAT      O57661   4.771   0.967   9.032
19140WAT     H157662   4.871   0.965   9.032
19140WAT     H257663   4.737   0.906   8.960
19141WAT      O57664   0.277   4.994   6.160
19141WAT     H157665   0.229   4.915   6.122
19141WAT     H257666   0.211   5.061   6.193
19142WAT      O57667   9.580   2.651   7.645
19142WAT     H157668   9.631   2.710   7.583
19142WAT     H257669   9.483   2.650   7.618
19143WAT      O57670   3.969   0.084   1.605
19143WAT     H157671   3.990  -0.008   1.575
19143WAT     H257672   3.965   0.087   1.705
19144WAT      O57673   7.901   4.697   9.429
19144WAT     H157674   7.870   4.659   9.342
19144WAT     H257675   7.993   4.735   9.418
19145WAT      O57676   5.142   8.659   5.786
19145WAT     H157677   5.229   8.618   5.814
19145WAT     H257678   5.159   8.733   5.721
19146WAT      O57679   6.585   9.211   4.323
19146WAT     H157680   6.611   9.271   4.248
19146WAT     H257681   6.667   9.169   4.362
19147WAT      O57682   5.754   2.594   5.040
19147WAT     H157683   5.726   2.583   5.135
19147WAT     H257684   5.738   2.509   4.990
19148WAT      O57685   0.934   8.750   6.859
19148WAT     H157686   0.942   8.670   6.919
19148WAT     H257687   1.010   8.751   6.795
19149WAT      O57688   2.572   1.895   2.212
19149WAT     H157689   2.543   1.965   2.146
19149WAT     H257690   2.495   1.870   2.270
19150WAT      O57691   5.245   5.438   3.710
19150WAT     H157692   5.257   5.364   3.776
19150WAT     H257693   5.289   5.414   3.623
19151WAT      O57694   9.513   4.168   3.790
19151WAT     H157695   9.533   4.073   3.814
19151WAT     H257696   9.543   4.228   3.864
19152WAT      O57697   5.635   8.569   7.529
19152WAT     H157698   5.593   8.485   7.563
19152WAT     H257699   5.641   8.635   7.604
19153WAT      O57700   8.648   9.358   5.104
19153WAT     H157701   8.558   9.357   5.061
19153WAT     H257702   8.693   9.446   5.086
19154WAT      O57703   9.302   1.738   5.708
19154WAT     H157704   9.351   1.662   5.751
19154WAT     H257705   9.306   1.727   5.609
19155WAT      O57706   5.606   8.408   0.344
19155WAT     H157707   5.661   8.441   0.267
19155WAT     H257708   5.652   8.430   0.430
19156WAT      O57709   3.134   8.002   0.497
19156WAT     H157710   3.118   7.919   0.444
19156WAT     H257711   3.074   8.003   0.577
19157WAT      O57712   2.298   9.282   8.517
19157WAT     H157713   2.267   9.227   8.439
19157WAT     H257714   2.374   9.340   8.489
19158WAT      O57715   9.529   8.593   7.931
19158WAT     H157716   9.519   8.641   7.844
19158WAT     H257717   9.501   8.498   7.921
19159WAT      O57718   8.389   3.409   7.599
19159WAT     H157719   8.291   3.410   7.623
19159WAT     H257720   8.401   3.451   7.509
19160WAT      O57721   8.984   3.945   4.205
19160WAT     H157722   8.921   4.023   4.208
19160WAT     H257723   8.938   3.866   4.165
19161WAT      O57724   3.754   5.696   7.947
19161WAT     H157725   3.665   5.652   7.933
19161WAT     H257726   3.773   5.756   7.869
19162WAT      O57727   6.445   7.805   6.087
19162WAT     H157728   6.366   7.862   6.109
19162WAT     H257729   6.523   7.833   6.144
19163WAT      O57730   7.098   3.722   3.949
19163WAT     H157731   7.040   3.710   3.868
19163WAT     H257732   7.066   3.663   4.023
19164WAT      O57733   7.883   7.739   7.162
19164WAT     H157734   7.886   7.650   7.118
19164WAT     H257735   7.974   7.781   7.158
19165WAT      O57736   3.089   0.133   7.735
19165WAT     H157737   3.081   0.041   7.775
19165WAT     H257738   3.103   0.125   7.636
19166WAT      O57739   7.529   3.133   4.527
19166WAT     H157740   7.475   3.099   4.450
19166WAT     H257741   7.552   3.229   4.512
19167WAT      O57742   2.688   4.519   8.843
19167WAT     H157743   2.699   4.482   8.751
19167WAT     H257744   2.744   4.467   8.907
19168WAT      O57745   8.021   6.486   8.642
19168WAT     H157746   8.025   6.519   8.547
19168WAT     H257747   8.103   6.516   8.691
19169WAT      O57748   5.369   3.351   0.871
19169WAT     H157749   5.383   3.405   0.954
19169WAT     H257750   5.392   3.255   0.890
19170WAT      O57751   9.813   6.689   3.889
19170WAT     H157752   9.809   6.589   3.895
19170WAT     H257753   9.770   6.718   3.803
19171WAT      O57754   6.274   0.841   8.705
19171WAT     H157755   6.191   0.869   8.752
19171WAT     H257756   6.322   0.922   8.671
19172WAT      O57757   0.978   9.296   5.676
19172WAT     H157758   0.944   9.271   5.767
19172WAT     H257759   1.042   9.373   5.685
19173WAT      O57760   4.124   1.315   0.232
19173WAT     H157761   4.055   1.368   0.183
19173WAT     H257762   4.101   1.218   0.229
19174WAT      O57763   6.650   5.131   5.376
19174WAT     H157764   6.639   5.040   5.337
19174WAT     H257765   6.632   5.200   5.306
19175WAT      O57766   6.251   3.378   1.299
19175WAT     H157767   6.295   3.293   1.271
19175WAT     H257768   6.207   3.367   1.388
19176WAT      O57769   3.840   1.781   1.895
19176WAT     H157770   3.785   1.700   1.877
19176WAT     H257771   3.935   1.763   1.869
19177WAT      O57772   7.365   6.272   8.695
19177WAT     H157773   7.400   6.179   8.690
19177WAT     H257774   7.316   6.294   8.610
19178WAT      O57775   8.530   8.496   7.897
19178WAT     H157776   8.450   8.549   7.869
19178WAT     H257777   8.516   8.459   7.988
19179WAT      O57778   9.383   8.757   3.569
19179WAT     H157779   9.316   8.726   3.502
19179WAT     H257780   9.369   8.708   3.656
19180WAT      O57781   9.650   3.337   7.136
19180WAT     H157782   9.728   3.387   7.174
19180WAT     H257783   9.567   3.365   7.183
19181WAT      O57784   6.741   3.152   6.689
19181WAT     H157785   6.691   3.203   6.759
19181WAT     H257786   6.708   3.057   6.687
19182WAT      O57787   4.490   8.145   4.519
19182WAT     H157788   4.481   8.209   4.595
19182WAT     H257789   4.416   8.161   4.453
19183WAT      O57790   9.656   1.446   1.167
19183WAT     H157791   9.756   1.444   1.175
19183WAT     H257792   9.629   1.412   1.077
19184WAT      O57793   6.824   0.068   5.365
19184WAT     H157794   6.844   0.165   5.353
19184WAT     H257795   6.765   0.055   5.444
19185WAT      O57796   8.859   5.391   2.915
19185WAT     H157797   8.915   5.314   2.883
19185WAT     H257798   8.903   5.432   2.995
19186WAT      O57799   2.156   2.958   0.846
19186WAT     H157800   2.182   2.884   0.909
19186WAT     H257801   2.189   3.045   0.882
19187WAT      O57802   5.649   4.389   6.415
19187WAT     H157803   5.636   4.343   6.327
19187WAT     H257804   5.746   4.397   6.435
19188WAT      O57805   9.178   6.476   8.691
19188WAT     H157806   9.174   6.511   8.597
19188WAT     H257807   9.110   6.403   8.702
19189WAT      O57808   3.979   8.079   4.758
19189WAT     H157809   3.910   8.078   4.686
19189WAT     H257810   4.060   8.128   4.726
19190WAT      O57811   5.900   8.623   8.430
19190WAT     H157812   5.858   8.537   8.404
19190WAT     H257813   5.935   8.617   8.523
19191WAT      O57814   8.730   1.400   8.716
19191WAT     H157815   8.706   1.496   8.707
19191WAT     H257816   8.795   1.375   8.644
19192WAT      O57817   6.061   4.319   1.046
19192WAT     H157818   6.060   4.259   1.125
19192WAT     H257819   5.967   4.341   1.019
19193WAT      O57820   2.210   8.978   5.097
19193WAT     H157821   2.184   8.927   5.015
19193WAT     H257822   2.152   9.059   5.106
19194WAT      O57823   9.841   2.903   5.623
19194WAT     H157824   9.743   2.920   5.631
19194WAT     H257825   9.888   2.986   5.594
19195WAT      O57826   1.582   1.326   3.792
19195WAT     H157827   1.541   1.255   3.850
19195WAT     H257828   1.578   1.297   3.696
19196WAT      O57829   3.129   4.433   2.297
19196WAT     H157830   3.054   4.427   2.231
19196WAT     H257831   3.094   4.468   2.384
19197WAT      O57832   1.222   4.977   5.956
19197WAT     H157833   1.149   4.913   5.933
19197WAT     H257834   1.298   4.927   5.998
19198WAT      O57835   9.298   8.663   8.992
19198WAT     H157836   9.398   8.651   8.989
19198WAT     H257837   9.276   8.745   9.044
19199WAT      O57838   0.767   8.004   4.781
19199WAT     H157839   0.845   8.062   4.762
19199WAT     H257840   0.691   8.030   4.721
19200WAT      O57841   5.227   7.987   3.484
19200WAT     H157842   5.237   7.905   3.428
19200WAT     H257843   5.135   7.990   3.523
19201WAT      O57844   1.929   3.216   8.266
19201WAT     H157845   1.999   3.201   8.337
19201WAT     H257846   1.970   3.205   8.176
19202WAT      O57847   5.038   3.196   4.588
19202WAT     H157848   5.040   3.137   4.669
19202WAT     H257849   4.952   3.180   4.539
19203WAT      O57850   3.235   5.807   5.349
19203WAT     H157851   3.334   5.798   5.335
19203WAT     H257852   3.191   5.720   5.331
19204WAT      O57853   6.776   8.690   7.390
19204WAT     H157854   6.768   8.674   7.291
19204WAT     H257855   6.871   8.715   7.412
19205WAT      O57856   2.234   3.255   6.669
19205WAT     H157857   2.244   3.330   6.735
19205WAT     H257858   2.297   3.270   6.593
19206WAT      O57859   5.311   6.807   6.115
19206WAT     H157860   5.366   6.733   6.155
19206WAT     H257861   5.273   6.776   6.028
19207WAT      O57862   2.227   7.586   2.814
19207WAT     H157863   2.270   7.649   2.879
19207WAT     H257864   2.208   7.635   2.729
19208WAT      O57865   6.888   0.834   7.923
19208WAT     H157866   6.984   0.861   7.916
19208WAT     H257867   6.852   0.816   7.831
19209WAT      O57868   9.231   4.613   5.759
19209WAT     H157869   9.246   4.521   5.723
19209WAT     H257870   9.150   4.652   5.716
19210WAT      O57871   5.031   8.417   5.585
19210WAT     H157872   5.121   8.403   5.543
19210WAT     H257873   4.999   8.509   5.564
19211WAT      O57874   8.252   1.926   5.484
19211WAT     H157875   8.208   1.837   5.470
19211WAT     H257876   8.198   1.980   5.549
19212WAT      O57877   0.867   3.931   8.940
19212WAT     H157878   0.870   4.028   8.964
19212WAT     H257879   0.774   3.897   8.953
19213WAT      O57880   7.274   3.899   4.311
19213WAT     H157881   7.235   3.911   4.403
19213WAT     H257882   7.224   3.957   4.246
19214WAT      O57883   9.551   7.252   4.126
19214WAT     H157884   9.458   7.261   4.161
19214WAT     H257885   9.604   7.193   4.187
19215WAT      O57886   1.471   7.839   5.693
19215WAT     H157887   1.499   7.896   5.615
19215WAT     H257888   1.372   7.844   5.704
19216WAT      O57889   1.033   2.101   4.774
19216WAT     H157890   0.953   2.049   4.743
19216WAT     H257891   1.005   2.167   4.844
19217WAT      O57892   5.270   3.831   7.162
19217WAT     H157893   5.194   3.827   7.227
19217WAT     H257894   5.342   3.768   7.191
19218WAT      O57895   6.614   9.123   2.059
19218WAT     H157896   6.626   9.041   2.003
19218WAT     H257897   6.703   9.158   2.087
19219WAT      O57898   1.240   8.090   3.212
19219WAT     H157899   1.309   8.162   3.221
19219WAT     H257900   1.285   8.001   3.214
19220WAT      O57901   7.939   4.242   0.105
19220WAT     H157902   7.971   4.188   0.027
19220WAT     H257903   8.016   4.284   0.152
19221WAT      O57904   5.945   0.857   1.713
19221WAT     H157905   5.999   0.865   1.797
19221WAT     H257906   5.855   0.817   1.735
19222WAT      O57907   7.049   2.371   5.142
19222WAT     H157908   7.132   2.409   5.182
19222WAT     H257909   6.982   2.351   5.214
19223WAT      O57910   7.774   6.497   9.307
19223WAT     H157911   7.846   6.484   9.238
19223WAT     H257912   7.806   6.461   9.395
19224WAT      O57913   0.618   0.760   2.767
19224WAT     H157914   0.612   0.783   2.670
19224WAT     H257915   0.714   0.741   2.791
19225WAT      O57916   8.988   4.862   4.660
19225WAT     H157917   9.060   4.928   4.641
19225WAT     H257918   8.957   4.820   4.575
19226WAT      O57919   4.560   2.613   9.225
19226WAT     H157920   4.550   2.551   9.303
19226WAT     H257921   4.563   2.560   9.141
19227WAT      O57922   8.349   4.821   3.325
19227WAT     H157923   8.274   4.806   3.260
19227WAT     H257924   8.355   4.744   3.388
19228WAT      O57925   3.499   5.872   9.189
19228WAT     H157926   3.446   5.837   9.266
19228WAT     H257927   3.437   5.893   9.113
19229WAT      O57928   7.651   2.345   2.680
19229WAT     H157929   7.656   2.303   2.771
19229WAT     H257930   7.675   2.277   2.611
19230WAT      O57931   7.505   5.889   8.316
19230WAT     H157932   7.545   5.975   8.350
19230WAT     H257933   7.454   5.845   8.390
19231WAT      O57934   2.202   5.116   0.307
19231WAT     H157935   2.104   5.100   0.324
19231WAT     H257936   2.233   5.056   0.233
19232WAT      O57937   4.756   3.324   5.720
19232WAT     H157938   4.853   3.326   5.699
19232WAT     H257939   4.722   3.417   5.734
19233WAT      O57940   6.742   1.900   9.660
19233WAT     H157941   6.735   1.806   9.692
19233WAT     H257942   6.826   1.942   9.694
19234WAT      O57943   2.929   4.470   3.031
19234WAT     H157944   2.899   4.382   2.996
19234WAT     H257945   3.014   4.496   2.985
19235WAT      O57946   1.079   5.448   9.107
19235WAT     H157947   1.161   5.503   9.093
19235WAT     H257948   1.096   5.354   9.076
19236WAT      O57949   7.251   2.512   0.051
19236WAT     H157950   7.220   2.503  -0.044
19236WAT     H257951   7.193   2.578   0.098
19237WAT      O57952   2.507   6.719   0.001
19237WAT     H157953   2.428   6.767   0.039
19237WAT     H257954   2.591   6.761   0.035
19238WAT      O57955   4.745   2.338   5.884
19238WAT     H157956   4.836   2.374   5.901
19238WAT     H257957   4.751   2.246   5.845
19239WAT      O57958   6.036   2.799   2.918
19239WAT     H157959   6.036   2.699   2.917
19239WAT     H257960   5.942   2.832   2.905
19240WAT      O57961   0.715   6.695   5.931
19240WAT     H157962   0.711   6.626   5.859
19240WAT     H257963   0.632   6.690   5.988
19241WAT      O57964   7.494   9.107   1.519
19241WAT     H157965   7.520   9.013   1.494
19241WAT     H257966   7.565   9.170   1.488
19242WAT      O57967   2.537   1.146   9.029
19242WAT     H157968   2.581   1.056   9.032
19242WAT     H257969   2.592   1.212   9.079
19243WAT      O57970   5.683   1.625   7.755
19243WAT     H157971   5.774   1.638   7.794
19243WAT     H257972   5.672   1.685   7.677
19244WAT      O57973   4.039   0.459   0.107
19244WAT     H157974   4.028   0.548   0.150
19244WAT     H257975   4.118   0.412   0.146
19245WAT      O57976   4.033   5.096   4.600
19245WAT     H157977   3.999   5.003   4.592
19245WAT     H257978   4.034   5.124   4.696
19246WAT      O57979   5.253   8.062   9.272
19246WAT     H157980   5.292   8.033   9.359
19246WAT     H257981   5.320   8.048   9.199
19247WAT      O57982   2.492   4.214   1.416
19247WAT     H157983   2.531   4.306   1.417
19247WAT     H257984   2.561   4.148   1.443
19248WAT      O57985   2.068   7.429   8.680
19248WAT     H157986   2.115   7.358   8.627
19248WAT     H257987   1.970   7.410   8.682
19249WAT      O57988   8.844   1.123   2.882
19249WAT     H157989   8.877   1.029   2.868
19249WAT     H257990   8.901   1.186   2.829
19250WAT      O57991   8.589   3.059   6.044
19250WAT     H157992   8.534   3.077   6.125
19250WAT     H257993   8.647   3.138   6.024
19251WAT      O57994   7.247   7.514   4.145
19251WAT     H157995   7.337   7.556   4.137
19251WAT     H257996   7.257   7.416   4.164
19252WAT      O57997   4.022   0.549   5.807
19252WAT     H157998   4.011   0.450   5.821
19252WAT     H257999   4.078   0.565   5.725
19253WAT      O58000   9.504   8.673   7.676
19253WAT     H158001   9.558   8.757   7.673
19253WAT     H258002   9.544   8.605   7.615
19254WAT      O58003   7.548   5.719   7.318
19254WAT     H158004   7.609   5.654   7.364
19254WAT     H258005   7.468   5.735   7.375
19255WAT      O58006   7.626   3.640   8.263
19255WAT     H158007   7.625   3.565   8.330
19255WAT     H258008   7.532   3.667   8.243
19256WAT      O58009   7.179   0.373   6.722
19256WAT     H158010   7.115   0.296   6.714
19256WAT     H258011   7.260   0.343   6.772
19257WAT      O58012   3.162   0.301   3.025
19257WAT     H158013   3.167   0.225   3.089
19257WAT     H258014   3.066   0.326   3.010
19258WAT      O58015   9.288   2.436   3.844
19258WAT     H158016   9.202   2.395   3.874
19258WAT     H258017   9.281   2.460   3.747
19259WAT      O58018   0.684   9.723   3.403
19259WAT     H158019   0.694   9.719   3.304
19259WAT     H258020   0.599   9.769   3.427
19260WAT      O58021   2.599   8.477   7.279
19260WAT     H158022   2.596   8.549   7.348
19260WAT     H258023   2.610   8.388   7.323
19261WAT      O58024   8.326   6.992   9.811
19261WAT     H158025   8.363   7.084   9.829
19261WAT     H258026   8.287   6.955   9.896
19262WAT      O58027   1.458   4.564   2.550
19262WAT     H158028   1.362   4.556   2.578
19262WAT     H258029   1.517   4.528   2.622
19263WAT      O58030   7.828   6.271   0.491
19263WAT     H158031   7.866   6.359   0.519
19263WAT     H258032   7.889   6.197   0.519
19264WAT      O58033   6.960   1.919   1.669
19264WAT     H158034   6.925   1.939   1.577
19264WAT     H258035   7.056   1.893   1.663
19265WAT      O58036   4.862   9.287   2.514
19265WAT     H158037   4.838   9.195   2.483
19265WAT     H258038   4.852   9.293   2.613
19266WAT      O58039   3.347   8.528   0.989
19266WAT     H158040   3.437   8.507   0.952
19266WAT     H258041   3.303   8.444   1.021
19267WAT      O58042   6.404   6.596   1.417
19267WAT     H158043   6.408   6.576   1.515
19267WAT     H258044   6.373   6.514   1.368
19268WAT      O58045   0.665   0.782   8.933
19268WAT     H158046   0.717   0.724   8.996
19268WAT     H258047   0.650   0.733   8.847
19269WAT      O58048   6.134   8.352   7.980
19269WAT     H158049   6.148   8.417   8.055
19269WAT     H258050   6.189   8.380   7.901
19270WAT      O58051   4.073   7.913   3.511
19270WAT     H158052   4.119   7.837   3.466
19270WAT     H258053   4.081   7.902   3.610
19271WAT      O58054   6.556   3.254   1.101
19271WAT     H158055   6.472   3.203   1.115
19271WAT     H258056   6.635   3.195   1.120
19272WAT      O58057   0.727   2.669   3.756
19272WAT     H158058   0.632   2.641   3.742
19272WAT     H258059   0.766   2.619   3.834
19273WAT      O58060   1.715   5.020   2.583
19273WAT     H158061   1.741   5.076   2.662
19273WAT     H258062   1.781   5.034   2.510
19274WAT      O58063   6.151   0.966   5.929
19274WAT     H158064   6.094   0.947   6.009
19274WAT     H258065   6.120   1.051   5.886
19275WAT      O58066   4.219   5.352   1.975
19275WAT     H158067   4.289   5.402   2.027
19275WAT     H258068   4.164   5.417   1.923
19276WAT      O58069   4.544   4.905   0.692
19276WAT     H158070   4.469   4.955   0.735
19276WAT     H258071   4.526   4.895   0.594
19277WAT      O58072   4.909   0.436   1.404
19277WAT     H158073   4.946   0.414   1.494
19277WAT     H258074   4.965   0.508   1.361
19278WAT      O58075   5.125   1.492   8.465
19278WAT     H158076   5.079   1.569   8.509
19278WAT     H258077   5.223   1.510   8.459
19279WAT      O58078   8.316   4.770   6.881
19279WAT     H158079   8.257   4.748   6.803
19279WAT     H258080   8.411   4.771   6.851
19280WAT      O58081   5.713   5.372   2.895
19280WAT     H158082   5.707   5.273   2.880
19280WAT     H258083   5.809   5.398   2.904
19281WAT      O58084   9.420   6.664   6.232
19281WAT     H158085   9.471   6.720   6.167
19281WAT     H258086   9.474   6.584   6.257
19282WAT      O58087   1.564   8.096   8.797
19282WAT     H158088   1.550   8.113   8.700
19282WAT     H258089   1.661   8.080   8.815
19283WAT      O58090   3.907   6.256   3.148
19283WAT     H158091   4.001   6.286   3.167
19283WAT     H258092   3.910   6.164   3.108
19284WAT      O58093   1.255   2.932   8.483
19284WAT     H158094   1.213   3.023   8.489
19284WAT     H258095   1.226   2.887   8.398
19285WAT      O58096   3.381   3.151   4.233
19285WAT     H158097   3.422   3.067   4.269
19285WAT     H258098   3.399   3.227   4.295
19286WAT      O58099   5.584   9.754   3.352
19286WAT     H158100   5.664   9.745   3.412
19286WAT     H258101   5.502   9.729   3.403
19287WAT      O58102   4.391   8.121   2.306
19287WAT     H158103   4.429   8.064   2.379
19287WAT     H258104   4.344   8.200   2.347
19288WAT      O58105   6.954   5.661   6.872
19288WAT     H158106   6.925   5.708   6.789
19288WAT     H258107   7.054   5.656   6.874
19289WAT      O58108   5.910   1.178   1.301
19289WAT     H158109   5.884   1.275   1.306
19289WAT     H258110   5.874   1.130   1.381
19290WAT      O58111   7.307   7.099   5.170
19290WAT     H158112   7.313   7.003   5.144
19290WAT     H258113   7.391   7.126   5.219
19291WAT      O58114   1.461   5.752   2.834
19291WAT     H158115   1.415   5.782   2.918
19291WAT     H258116   1.491   5.831   2.781
19292WAT      O58117   0.054   1.500   2.075
19292WAT     H158118  -0.043   1.521   2.087
19292WAT     H258119   0.071   1.477   1.979
19293WAT      O58120   5.168   8.271   2.312
19293WAT     H158121   5.076   8.310   2.324
19293WAT     H258122   5.218   8.277   2.399
19294WAT      O58123   5.029   9.069   5.790
19294WAT     H158124   5.028   8.996   5.858
19294WAT     H258125   5.049   9.156   5.835
19295WAT      O58126   8.722   1.207   9.879
19295WAT     H158127   8.671   1.189   9.963
19295WAT     H258128   8.671   1.170   9.801
19296WAT      O58129   0.129   0.265   5.939
19296WAT     H158130   0.121   0.166   5.927
19296WAT     H258131   0.218   0.287   5.980
19297WAT      O58132   3.971   2.382   5.893
19297WAT     H158133   3.903   2.450   5.922
19297WAT     H258134   3.923   2.300   5.860
19298WAT      O58135   4.441   4.213   6.493
19298WAT     H158136   4.387   4.164   6.425
19298WAT     H258137   4.416   4.310   6.490
19299WAT      O58138   5.833   7.334   6.662
19299WAT     H158139   5.865   7.300   6.750
19299WAT     H258140   5.735   7.316   6.653
19300WAT      O58141   0.303   5.528   3.837
19300WAT     H158142   0.364   5.473   3.779
19300WAT     H258143   0.268   5.605   3.784
19301WAT      O58144   0.132   8.042   3.675
19301WAT     H158145   0.063   8.113   3.660
19301WAT     H258146   0.180   8.024   3.589
19302WAT      O58147   8.552   9.032   9.457
19302WAT     H158148   8.584   9.010   9.365
19302WAT     H258149   8.480   8.967   9.483
19303WAT      O58150   5.565   3.382   1.746
19303WAT     H158151   5.508   3.453   1.788
19303WAT     H258152   5.558   3.298   1.798
19304WAT      O58153   4.254   3.602   9.199
19304WAT     H158154   4.289   3.509   9.211
19304WAT     H258155   4.227   3.615   9.103
19305WAT      O58156   1.799   2.677   2.387
19305WAT     H158157   1.858   2.603   2.418
19305WAT     H258158   1.811   2.690   2.288
19306WAT      O58159   9.123   7.724   1.796
19306WAT     H158160   9.133   7.723   1.895
19306WAT     H258161   9.073   7.807   1.769
19307WAT      O58162   2.269   8.574   4.922
19307WAT     H158163   2.276   8.475   4.938
19307WAT     H258164   2.332   8.601   4.850
19308WAT      O58165   2.635   6.039   3.384
19308WAT     H158166   2.618   6.136   3.403
19308WAT     H258167   2.585   6.012   3.302
19309WAT      O58168   3.091   4.573   6.146
19309WAT     H158169   3.122   4.479   6.128
19309WAT     H258170   3.152   4.637   6.100
19310WAT      O58171   5.830   8.211   2.740
19310WAT     H158172   5.781   8.237   2.657
19310WAT     H258173   5.831   8.288   2.804
19311WAT      O58174   4.709   6.259   0.587
19311WAT     H158175   4.666   6.218   0.506
19311WAT     H258176   4.638   6.291   0.650
19312WAT      O58177   0.443   9.185   2.141
19312WAT     H158178   0.516   9.168   2.207
19312WAT     H258179   0.433   9.283   2.125
19313WAT      O58180   8.033   0.689   4.681
19313WAT     H158181   7.972   0.767   4.696
19313WAT     H258182   8.004   0.613   4.739
19314WAT      O58183   8.883   6.608   0.671
19314WAT     H158184   8.864   6.639   0.578
19314WAT     H258185   8.974   6.567   0.674
19315WAT      O58186   5.215   8.106   8.853
19315WAT     H158187   5.188   8.010   8.845
19315WAT     H258188   5.252   8.137   8.766
19316WAT      O58189   3.964   7.147   6.169
19316WAT     H158190   3.962   7.188   6.261
19316WAT     H258191   3.976   7.048   6.178
19317WAT      O58192   0.248   9.099   7.762
19317WAT     H158193   0.320   9.149   7.811
19317WAT     H258194   0.260   9.110   7.664
19318WAT      O58195   8.952   3.018   6.928
19318WAT     H158196   8.968   2.927   6.966
19318WAT     H258197   8.896   3.010   6.846
19319WAT      O58198   4.873   8.078   0.710
19319WAT     H158199   4.883   8.174   0.737
19319WAT     H258200   4.813   8.072   0.630
19320WAT      O58201   8.274   8.662   7.852
19320WAT     H158202   8.243   8.575   7.813
19320WAT     H258203   8.227   8.677   7.940
19321WAT      O58204   5.991   2.874   5.211
19321WAT     H158205   5.986   2.825   5.124
19321WAT     H258206   5.909   2.931   5.222
19322WAT      O58207   1.476   1.704   2.015
19322WAT     H158208   1.575   1.686   2.017
19322WAT     H258209   1.455   1.764   1.938
19323WAT      O58210   7.076   2.889   6.550
19323WAT     H158211   7.120   2.904   6.461
19323WAT     H258212   7.145   2.871   6.619
19324WAT      O58213   4.368   4.815   0.949
19324WAT     H158214   4.387   4.904   0.907
19324WAT     H258215   4.355   4.826   1.047
19325WAT      O58216   3.375   1.818   6.523
19325WAT     H158217   3.427   1.888   6.473
19325WAT     H258218   3.366   1.846   6.618
19326WAT      O58219   7.712   8.507   5.141
19326WAT     H158220   7.683   8.432   5.201
19326WAT     H258221   7.744   8.469   5.054
19327WAT      O58222   7.357   9.113   3.450
19327WAT     H158223   7.403   9.201   3.439
19327WAT     H258224   7.261   9.123   3.421
19328WAT      O58225   4.159   2.449   2.025
19328WAT     H158226   4.137   2.486   1.935
19328WAT     H258227   4.209   2.363   2.014
19329WAT      O58228   7.713   4.167   3.678
19329WAT     H158229   7.643   4.200   3.614
19329WAT     H258230   7.777   4.108   3.631
19330WAT      O58231   8.764   8.839   5.881
19330WAT     H158232   8.785   8.863   5.975
19330WAT     H258233   8.848   8.837   5.827
19331WAT      O58234   1.882   6.342   5.221
19331WAT     H158235   1.828   6.425   5.238
19331WAT     H258236   1.831   6.280   5.162
19332WAT      O58237   8.767   1.471   6.416
19332WAT     H158238   8.736   1.464   6.322
19332WAT     H258239   8.745   1.387   6.465
19333WAT      O58240   5.619   1.436   9.798
19333WAT     H158241   5.576   1.347   9.786
19333WAT     H258242   5.714   1.431   9.767
19334WAT      O58243   9.676   4.334   8.417
19334WAT     H158244   9.739   4.272   8.463
19334WAT     H258245   9.709   4.428   8.428
19335WAT      O58246   6.048   4.913   0.770
19335WAT     H158247   5.951   4.897   0.752
19335WAT     H258248   6.065   5.012   0.776
19336WAT      O58249   4.398   1.117   0.107
19336WAT     H158250   4.351   1.047   0.160
19336WAT     H258251   4.419   1.195   0.165
19337WAT      O58252   3.030   0.697   8.908
19337WAT     H158253   2.951   0.681   8.967
19337WAT     H258254   3.014   0.657   8.818
19338WAT      O58255   2.021   2.793   3.370
19338WAT     H158256   2.109   2.760   3.405
19338WAT     H258257   1.995   2.876   3.420
19339WAT      O58258   3.938   1.320   8.941
19339WAT     H158259   3.868   1.272   8.889
19339WAT     H258260   3.902   1.347   9.030
19340WAT      O58261   1.647   7.334   9.410
19340WAT     H158262   1.639   7.340   9.509
19340WAT     H258263   1.735   7.370   9.381
19341WAT      O58264   8.634   7.148   7.322
19341WAT     H158265   8.734   7.144   7.317
19341WAT     H258266   8.595   7.124   7.233
19342WAT      O58267   7.894   9.677   1.745
19342WAT     H158268   7.961   9.745   1.716
19342WAT     H258269   7.904   9.660   1.844
19343WAT      O58270   1.284   0.618   9.182
19343WAT     H158271   1.337   0.537   9.158
19343WAT     H258272   1.287   0.684   9.107
19344WAT      O58273   9.775   4.043   2.100
19344WAT     H158274   9.682   4.063   2.068
19344WAT     H258275   9.836   4.033   2.022
19345WAT      O58276   7.767   3.881   5.604
19345WAT     H158277   7.836   3.813   5.631
19345WAT     H258278   7.800   3.972   5.626
19346WAT      O58279   0.530   1.102   3.204
19346WAT     H158280   0.529   1.058   3.114
19346WAT     H258281   0.480   1.189   3.200
19347WAT      O58282   5.019   9.511   8.089
19347WAT     H158283   5.032   9.479   8.182
19347WAT     H258284   5.022   9.434   8.026
19348WAT      O58285   3.858   9.044   3.544
19348WAT     H158286   3.951   9.048   3.580
19348WAT     H258287   3.823   8.950   3.551
19349WAT      O58288   7.272   6.613   8.147
19349WAT     H158289   7.183   6.569   8.156
19349WAT     H258290   7.327   6.595   8.229
19350WAT      O58291   1.984   2.543   4.839
19350WAT     H158292   2.055   2.529   4.908
19350WAT     H258293   2.027   2.556   4.749
19351WAT      O58294   7.572   7.094   5.402
19351WAT     H158295   7.643   7.142   5.454
19351WAT     H258296   7.483   7.113   5.443
19352WAT      O58297   8.330   0.928   1.270
19352WAT     H158298   8.416   0.904   1.226
19352WAT     H258299   8.280   0.845   1.295
19353WAT      O58300   3.980   8.959   8.040
19353WAT     H158301   4.026   8.925   8.122
19353WAT     H258302   3.940   8.882   7.990
19354WAT      O58303   9.443   2.421   2.859
19354WAT     H158304   9.357   2.385   2.824
19354WAT     H258305   9.428   2.467   2.947
19355WAT      O58306   9.550   6.396   0.883
19355WAT     H158307   9.640   6.437   0.894
19355WAT     H258308   9.560   6.308   0.837
19356WAT      O58309   1.581   7.498   1.325
19356WAT     H158310   1.648   7.497   1.251
19356WAT     H258311   1.521   7.419   1.316
19357WAT      O58312   0.100   3.563   1.809
19357WAT     H158313   0.131   3.573   1.715
19357WAT     H258314   0.022   3.624   1.825
19358WAT      O58315   1.057   9.433   3.967
19358WAT     H158316   1.155   9.453   3.969
19358WAT     H258317   1.022   9.445   3.874
19359WAT      O58318   5.252   4.604   6.842
19359WAT     H158319   5.246   4.638   6.748
19359WAT     H258320   5.312   4.664   6.895
19360WAT      O58321   3.115   2.578   7.263
19360WAT     H158322   3.109   2.544   7.357
19360WAT     H258323   3.208   2.565   7.229
19361WAT      O58324   5.325   6.882   8.895
19361WAT     H158325   5.406   6.911   8.845
19361WAT     H258326   5.250   6.865   8.830
19362WAT      O58327   6.128   3.567   1.119
19362WAT     H158328   6.203   3.593   1.059
19362WAT     H258329   6.160   3.498   1.185
19363WAT      O58330   7.971   1.804   0.794
19363WAT     H158331   7.976   1.713   0.835
19363WAT     H258332   7.911   1.801   0.714
19364WAT      O58333   3.191   7.319   9.583
19364WAT     H158334   3.176   7.259   9.661
19364WAT     H258335   3.233   7.267   9.508
19365WAT      O58336   1.468   3.291   7.742
19365WAT     H158337   1.369   3.294   7.753
19365WAT     H258338   1.509   3.249   7.823
19366WAT      O58339   0.059   7.764   2.267
19366WAT     H158340   0.099   7.823   2.337
19366WAT     H258341   0.042   7.673   2.306
19367WAT      O58342   4.280   9.569   9.338
19367WAT     H158343   4.284   9.474   9.305
19367WAT     H258344   4.251   9.629   9.263
19368WAT      O58345   8.826   4.157   2.640
19368WAT     H158346   8.785   4.218   2.572
19368WAT     H258347   8.783   4.068   2.635
19369WAT      O58348   1.793   0.809   1.471
19369WAT     H158349   1.853   0.799   1.391
19369WAT     H258350   1.705   0.765   1.452
19370WAT      O58351   8.633   7.263   8.545
19370WAT     H158352   8.656   7.253   8.448
19370WAT     H258353   8.595   7.354   8.560
19371WAT      O58354   2.171   0.239   2.455
19371WAT     H158355   2.150   0.144   2.429
19371WAT     H258356   2.259   0.242   2.502
19372WAT      O58357   2.053   7.447   7.397
19372WAT     H158358   2.082   7.514   7.328
19372WAT     H258359   1.987   7.384   7.357
19373WAT      O58360   4.447   7.370   3.451
19373WAT     H158361   4.473   7.418   3.535
19373WAT     H258362   4.497   7.408   3.374
19374WAT      O58363   2.245   4.256   0.132
19374WAT     H158364   2.171   4.204   0.173
19374WAT     H258365   2.210   4.344   0.099
19375WAT      O58366   4.942   9.066   8.051
19375WAT     H158367   4.950   8.966   8.045
19375WAT     H258368   4.981   9.097   8.137
19376WAT      O58369   9.087   6.955   7.644
19376WAT     H158370   9.123   6.877   7.696
19376WAT     H258371   9.047   7.021   7.707
19377WAT      O58372   1.780   2.352   4.310
19377WAT     H158373   1.718   2.391   4.378
19377WAT     H258374   1.857   2.309   4.355
19378WAT      O58375   2.417   2.458   1.074
19378WAT     H158376   2.374   2.471   0.985
19378WAT     H258377   2.368   2.513   1.142
19379WAT      O58378   5.373   7.608   3.190
19379WAT     H158379   5.418   7.678   3.135
19379WAT     H258380   5.297   7.568   3.139
19380WAT      O58381   5.913   4.900   4.670
19380WAT     H158382   6.010   4.878   4.667
19380WAT     H258383   5.898   4.981   4.727
19381WAT      O58384   3.841   6.876   9.056
19381WAT     H158385   3.917   6.830   9.101
19381WAT     H258386   3.805   6.818   8.982
19382WAT      O58387   0.594   4.381   4.987
19382WAT     H158388   0.509   4.335   4.961
19382WAT     H258389   0.581   4.480   4.984
19383WAT      O58390   5.845   1.349   3.177
19383WAT     H158391   5.938   1.384   3.182
19383WAT     H258392   5.817   1.341   3.081
19384WAT      O58393   0.878   5.012   1.306
19384WAT     H158394   0.948   4.942   1.319
19384WAT     H258395   0.921   5.101   1.297
19385WAT      O58396   5.906   6.505   3.235
19385WAT     H158397   5.838   6.571   3.204
19385WAT     H258398   5.944   6.457   3.157
19386WAT      O58399   0.110   1.157   4.366
19386WAT     H158400   0.061   1.242   4.387
19386WAT     H258401   0.187   1.176   4.305
19387WAT      O58402   3.990   1.002   8.976
19387WAT     H158403   3.910   1.046   8.935
19387WAT     H258404   4.049   0.967   8.903
19388WAT      O58405   4.583   7.898   3.750
19388WAT     H158406   4.639   7.873   3.829
19388WAT     H258407   4.487   7.878   3.771
19389WAT      O58408   1.579   9.650   2.456
19389WAT     H158409   1.639   9.626   2.532
19389WAT     H258410   1.488   9.613   2.473
19390WAT      O58411   7.196   4.892   6.250
19390WAT     H158412   7.231   4.856   6.163
19390WAT     H258413   7.216   4.827   6.323
19391WAT      O58414   4.603   5.151   3.951
19391WAT     H158415   4.565   5.089   4.020
19391WAT     H258416   4.696   5.123   3.930
19392WAT      O58417   1.623   2.469   4.500
19392WAT     H158418   1.538   2.519   4.485
19392WAT     H258419   1.695   2.532   4.527
19393WAT      O58420   2.585   1.623   2.960
19393WAT     H158421   2.539   1.699   2.915
19393WAT     H258422   2.531   1.592   3.038
19394WAT      O58423   1.890   8.303   2.930
19394WAT     H158424   1.808   8.321   2.876
19394WAT     H258425   1.873   8.325   3.026
19395WAT      O58426   0.412   5.598   6.960
19395WAT     H158427   0.438   5.508   6.924
19395WAT     H258428   0.354   5.587   7.040
19396WAT      O58429   8.788   6.238   4.276
19396WAT     H158430   8.864   6.190   4.233
19396WAT     H258431   8.734   6.174   4.330
19397WAT      O58432   3.681   8.204   7.448
19397WAT     H158433   3.709   8.260   7.370
19397WAT     H258434   3.647   8.116   7.414
19398WAT      O58435   3.209   1.782   5.262
19398WAT     H158436   3.247   1.796   5.353
19398WAT     H258437   3.279   1.740   5.203
19399WAT      O58438   0.687   4.536   6.133
19399WAT     H158439   0.702   4.635   6.125
19399WAT     H258440   0.667   4.498   6.042
19400WAT      O58441   2.945   9.479   9.603
19400WAT     H158442   2.988   9.562   9.639
19400WAT     H258443   3.000   9.399   9.629
19401WAT      O58444   7.371   1.459   3.689
19401WAT     H158445   7.293   1.406   3.722
19401WAT     H258446   7.450   1.442   3.749
19402WAT      O58447   0.742   6.826   4.908
19402WAT     H158448   0.676   6.755   4.931
19402WAT     H258449   0.742   6.896   4.981
19403WAT      O58450   3.822   8.702   1.188
19403WAT     H158451   3.891   8.774   1.180
19403WAT     H258452   3.854   8.634   1.254
19404WAT      O58453   4.021   7.978   0.966
19404WAT     H158454   3.928   7.994   0.933
19404WAT     H258455   4.038   8.033   1.047
19405WAT      O58456   3.220   2.564   0.106
19405WAT     H158457   3.275   2.506   0.046
19405WAT     H258458   3.241   2.542   0.201
19406WAT      O58459   0.105   2.889   6.291
19406WAT     H158460   0.130   2.833   6.213
19406WAT     H258461   0.007   2.911   6.287
19407WAT      O58462   8.218   8.650   2.674
19407WAT     H158463   8.219   8.704   2.758
19407WAT     H258464   8.147   8.685   2.613
19408WAT      O58465   6.828   1.324   0.424
19408WAT     H158466   6.844   1.227   0.444
19408WAT     H258467   6.788   1.333   0.333
19409WAT      O58468   5.821   4.565   4.419
19409WAT     H158469   5.880   4.574   4.339
19409WAT     H258470   5.779   4.654   4.439
19410WAT      O58471   5.465   1.629   0.150
19410WAT     H158472   5.424   1.634   0.059
19410WAT     H258473   5.495   1.535   0.167
19411WAT      O58474   1.190   6.311   6.591
19411WAT     H158475   1.181   6.398   6.542
19411WAT     H258476   1.101   6.285   6.630
19412WAT      O58477   8.588   4.560   3.584
19412WAT     H158478   8.600   4.547   3.486
19412WAT     H258479   8.534   4.485   3.622
19413WAT      O58480   5.101   1.790   2.915
19413WAT     H158481   5.019   1.755   2.961
19413WAT     H258482   5.077   1.816   2.821
19414WAT      O58483   8.826   5.820   7.794
19414WAT     H158484   8.878   5.810   7.878
19414WAT     H258485   8.882   5.794   7.716
19415WAT      O58486   3.757   6.926   6.702
19415WAT     H158487   3.811   6.898   6.781
19415WAT     H258488   3.750   6.851   6.637
19416WAT      O58489   7.017   9.269   7.134
19416WAT     H158490   6.929   9.229   7.157
19416WAT     H258491   7.024   9.277   7.034
19417WAT      O58492   5.780   8.046   5.519
19417WAT     H158493   5.748   7.956   5.492
19417WAT     H258494   5.818   8.094   5.439
19418WAT      O58495   5.927   3.640   6.740
19418WAT     H158496   5.978   3.664   6.658
19418WAT     H258497   5.972   3.563   6.787
19419WAT      O58498   9.571   9.449   3.758
19419WAT     H158499   9.545   9.468   3.853
19419WAT     H258500   9.551   9.529   3.701
19420WAT      O58501   1.132   8.695   1.907
19420WAT     H158502   1.061   8.699   1.836
19420WAT     H258503   1.118   8.771   1.970
19421WAT      O58504   8.744   9.074   8.471
19421WAT     H158505   8.743   9.174   8.478
19421WAT     H258506   8.831   9.044   8.431
19422WAT      O58507   2.715   8.635   9.223
19422WAT     H158508   2.697   8.536   9.225
19422WAT     H258509   2.795   8.655   9.279
19423WAT      O58510   4.818   5.473   0.820
19423WAT     H158511   4.878   5.399   0.791
19423WAT     H258512   4.867   5.560   0.816
19424WAT      O58513   3.318   8.913   9.541
19424WAT     H158514   3.307   8.823   9.582
19424WAT     H258515   3.311   8.906   9.441
19425WAT      O58516   7.026   6.531   1.812
19425WAT     H158517   7.120   6.522   1.780
19425WAT     H258518   7.025   6.561   1.908
19426WAT      O58519   5.021   6.451   2.793
19426WAT     H158520   5.097   6.500   2.749
19426WAT     H258521   5.051   6.359   2.818
19427WAT      O58522   9.387   1.181   7.246
19427WAT     H158523   9.396   1.253   7.315
19427WAT     H258524   9.408   1.219   7.156
19428WAT      O58525   6.161   4.625   9.562
19428WAT     H158526   6.181   4.529   9.584
19428WAT     H258527   6.144   4.633   9.464
19429WAT      O58528   7.482   2.063   2.723
19429WAT     H158529   7.448   1.973   2.752
19429WAT     H258530   7.551   2.095   2.788
19430WAT      O58531   4.484   1.194   8.119
19430WAT     H158532   4.581   1.202   8.096
19430WAT     H258533   4.439   1.282   8.107
19431WAT      O58534   2.315   8.284   8.488
19431WAT     H158535   2.230   8.328   8.515
19431WAT     H258536   2.298   8.222   8.411
19432WAT      O58537   0.400   0.805   7.022
19432WAT     H158538   0.477   0.779   6.964
19432WAT     H258539   0.365   0.724   7.069
19433WAT      O58540   0.394   4.674   0.052
19433WAT     H158541   0.413   4.642  -0.041
19433WAT     H258542   0.318   4.739   0.049
19434WAT      O58543   1.172   3.185   8.479
19434WAT     H158544   1.261   3.229   8.492
19434WAT     H258545   1.117   3.240   8.417
19435WAT      O58546   9.104   2.170   4.944
19435WAT     H158547   9.185   2.153   4.888
19435WAT     H258548   9.024   2.179   4.885
19436WAT      O58549   8.790   2.394   4.676
19436WAT     H158550   8.857   2.448   4.626
19436WAT     H258551   8.711   2.451   4.698
19437WAT      O58552   1.919   7.694   0.685
19437WAT     H158553   1.985   7.666   0.755
19437WAT     H258554   1.959   7.768   0.630
19438WAT      O58555   8.325   9.344   3.094
19438WAT     H158556   8.253   9.331   3.027
19438WAT     H258557   8.286   9.378   3.179
19439WAT      O58558   3.210   0.130   1.920
19439WAT     H158559   3.212   0.095   1.826
19439WAT     H258560   3.254   0.065   1.981
19440WAT      O58561   1.838   5.274   0.156
19440WAT     H158562   1.883   5.265   0.067
19440WAT     H258563   1.739   5.276   0.143
19441WAT      O58564   1.517   8.277   4.980
19441WAT     H158565   1.603   8.238   5.012
19441WAT     H258566   1.441   8.237   5.031
19442WAT      O58567   5.410   7.923   6.843
19442WAT     H158568   5.425   7.965   6.754
19442WAT     H258569   5.481   7.854   6.860
19443WAT      O58570   0.593   0.087   9.641
19443WAT     H158571   0.691   0.070   9.653
19443WAT     H258572   0.550   0.005   9.605
19444WAT      O58573   6.195   9.449   7.275
19444WAT     H158574   6.199   9.470   7.178
19444WAT     H258575   6.215   9.352   7.289
19445WAT      O58576   6.039   8.175   1.182
19445WAT     H158577   6.074   8.145   1.093
19445WAT     H258578   6.111   8.168   1.251
19446WAT      O58579   3.906   7.822   1.489
19446WAT     H158580   3.961   7.830   1.406
19446WAT     H258581   3.937   7.743   1.542
19447WAT      O58582   6.645   3.505   6.627
19447WAT     H158583   6.707   3.493   6.705
19447WAT     H258584   6.558   3.460   6.646
19448WAT      O58585   3.279   0.960   5.659
19448WAT     H158586   3.223   1.043   5.653
19448WAT     H258587   3.373   0.982   5.633
19449WAT      O58588   5.997   7.140   9.111
19449WAT     H158589   6.038   7.178   9.028
19449WAT     H258590   5.901   7.117   9.093
19450WAT      O58591   3.915   3.360   7.418
19450WAT     H158592   3.828   3.334   7.459
19450WAT     H258593   3.990   3.324   7.473
19451WAT      O58594   1.322   9.186   2.432
19451WAT     H158595   1.367   9.159   2.517
19451WAT     H258596   1.389   9.190   2.359
19452WAT      O58597   3.191   3.765   0.207
19452WAT     H158598   3.222   3.854   0.241
19452WAT     H258599   3.100   3.745   0.242
19453WAT      O58600   7.712   6.445   0.740
19453WAT     H158601   7.690   6.510   0.814
19453WAT     H258602   7.685   6.485   0.652
19454WAT      O58603   7.577   0.330   4.893
19454WAT     H158604   7.648   0.279   4.846
19454WAT     H258605   7.561   0.289   4.984
19455WAT      O58606   6.402   7.947   5.338
19455WAT     H158607   6.349   7.967   5.420
19455WAT     H258608   6.351   7.884   5.279
19456WAT      O58609   8.582   5.952   9.624
19456WAT     H158610   8.621   6.032   9.670
19456WAT     H258611   8.614   5.869   9.668
19457WAT      O58612   3.764   1.053   1.783
19457WAT     H158613   3.750   1.020   1.690
19457WAT     H258614   3.859   1.083   1.794
19458WAT      O58615   4.105   7.220   1.307
19458WAT     H158616   4.132   7.224   1.211
19458WAT     H258617   4.157   7.289   1.359
19459WAT      O58618   8.910   7.958   5.091
19459WAT     H158619   8.865   7.881   5.136
19459WAT     H258620   8.878   7.965   4.997
19460WAT      O58621   7.894   1.588   2.258
19460WAT     H158622   7.811   1.639   2.280
19460WAT     H258623   7.953   1.644   2.200
19461WAT      O58624   6.710   9.593   5.005
19461WAT     H158625   6.736   9.677   4.957
19461WAT     H258626   6.681   9.615   5.098
19462WAT      O58627   3.866   3.731   6.390
19462WAT     H158628   3.801   3.664   6.352
19462WAT     H258629   3.884   3.801   6.321
19463WAT      O58630   8.218   1.439   6.110
19463WAT     H158631   8.295   1.501   6.122
19463WAT     H258632   8.150   1.481   6.049
19464WAT      O58633   3.313   4.772   6.023
19464WAT     H158634   3.264   4.842   5.970
19464WAT     H258635   3.318   4.801   6.118
19465WAT      O58636   3.452   0.952   7.584
19465WAT     H158637   3.462   1.013   7.506
19465WAT     H258638   3.481   0.860   7.558
19466WAT      O58639   6.310   2.951   7.619
19466WAT     H158640   6.292   2.999   7.533
19466WAT     H258641   6.403   2.914   7.617
19467WAT      O58642   2.913   9.489   8.282
19467WAT     H158643   2.853   9.414   8.257
19467WAT     H258644   2.992   9.454   8.332
19468WAT      O58645   7.735   2.605   2.456
19468WAT     H158646   7.768   2.564   2.371
19468WAT     H258647   7.793   2.575   2.532
19469WAT      O58648   3.867   3.758   6.897
19469WAT     H158649   3.965   3.766   6.915
19469WAT     H258650   3.818   3.835   6.940
19470WAT      O58651   6.085   2.441   6.450
19470WAT     H158652   6.122   2.446   6.543
19470WAT     H258653   6.145   2.491   6.387
19471WAT      O58654   8.185   1.942   0.251
19471WAT     H158655   8.222   1.853   0.226
19471WAT     H258656   8.247   2.014   0.221
19472WAT      O58657   4.122   7.002   8.930
19472WAT     H158658   4.060   6.982   8.854
19472WAT     H258659   4.132   6.921   8.987
19473WAT      O58660   9.629   4.826   3.979
19473WAT     H158661   9.581   4.900   3.934
19473WAT     H258662   9.671   4.766   3.910
19474WAT      O58663   3.976   7.533   5.347
19474WAT     H158664   4.007   7.477   5.425
19474WAT     H258665   3.895   7.491   5.307
19475WAT      O58666   9.514   2.874   5.848
19475WAT     H158667   9.515   2.912   5.756
19475WAT     H258668   9.585   2.918   5.903
19476WAT      O58669   1.473   8.320   3.156
19476WAT     H158670   1.531   8.401   3.145
19476WAT     H258671   1.387   8.347   3.198
19477WAT      O58672   6.403   8.442   5.746
19477WAT     H158673   6.438   8.441   5.840
19477WAT     H258674   6.478   8.464   5.684
19478WAT      O58675   1.912   5.104   1.847
19478WAT     H158676   1.844   5.173   1.822
19478WAT     H258677   1.900   5.023   1.789
19479WAT      O58678   8.498   8.505   1.225
19479WAT     H158679   8.440   8.474   1.150
19479WAT     H258680   8.579   8.447   1.232
19480WAT      O58681   0.547   4.576   7.298
19480WAT     H158682   0.600   4.608   7.220
19480WAT     H258683   0.450   4.571   7.273
19481WAT      O58684   2.907   1.843   0.593
19481WAT     H158685   2.865   1.760   0.555
19481WAT     H258686   2.881   1.921   0.537
19482WAT      O58687   5.383   4.442   8.493
19482WAT     H158688   5.435   4.460   8.410
19482WAT     H258689   5.437   4.383   8.554
19483WAT      O58690   4.704   6.330   3.815
19483WAT     H158691   4.749   6.418   3.796
19483WAT     H258692   4.752   6.284   3.890
19484WAT      O58693   2.528   7.540   5.547
19484WAT     H158694   2.460   7.602   5.584
19484WAT     H258695   2.493   7.446   5.550
19485WAT      O58696   6.868   4.312   0.166
19485WAT     H158697   6.943   4.318   0.099
19485WAT     H258698   6.905   4.290   0.256
19486WAT      O58699   5.864   2.000   9.226
19486WAT     H158700   5.875   2.089   9.180
19486WAT     H258701   5.814   2.013   9.312
19487WAT      O58702   5.198   5.718   1.386
19487WAT     H158703   5.114   5.742   1.435
19487WAT     H258704   5.180   5.711   1.288
19488WAT      O58705   4.896   4.752   3.447
19488WAT     H158706   4.911   4.694   3.367
19488WAT     H258707   4.982   4.798   3.470
19489WAT      O58708   8.627   2.205   5.206
19489WAT     H158709   8.655   2.149   5.129
19489WAT     H258710   8.644   2.302   5.185
19490WAT      O58711   1.671   8.001   4.498
19490WAT     H158712   1.647   8.035   4.407
19490WAT     H258713   1.713   7.911   4.490
19491WAT      O58714   1.909   7.687   7.131
19491WAT     H158715   1.969   7.763   7.154
19491WAT     H258716   1.864   7.705   7.044
19492WAT      O58717   3.472   1.437   4.942
19492WAT     H158718   3.539   1.398   4.878
19492WAT     H258719   3.384   1.390   4.930
19493WAT      O58720   9.009   1.260   3.750
19493WAT     H158721   8.922   1.309   3.749
19493WAT     H258722   9.051   1.268   3.840
19494WAT      O58723   6.705   5.804   4.028
19494WAT     H158724   6.772   5.774   3.960
19494WAT     H258725   6.743   5.881   4.079
19495WAT      O58726   1.279   2.188   8.360
19495WAT     H158727   1.314   2.126   8.430
19495WAT     H258728   1.283   2.143   8.271
19496WAT      O58729   5.042   6.653   1.766
19496WAT     H158730   4.975   6.600   1.818
19496WAT     H258731   5.022   6.645   1.669
19497WAT      O58732   4.637   9.812   7.646
19497WAT     H158733   4.566   9.775   7.586
19497WAT     H258734   4.697   9.872   7.593
19498WAT      O58735   8.803   1.627   9.049
19498WAT     H158736   8.729   1.586   9.102
19498WAT     H258737   8.873   1.662   9.112
19499WAT      O58738   3.659   7.132   1.272
19499WAT     H158739   3.731   7.201   1.270
19499WAT     H258740   3.661   7.084   1.360
19500WAT      O58741   0.864   4.662   4.836
19500WAT     H158742   0.860   4.630   4.931
19500WAT     H258743   0.791   4.727   4.820
19501WAT      O58744   4.241   0.577   7.100
19501WAT     H158745   4.244   0.653   7.164
19501WAT     H258746   4.308   0.592   7.027
19502WAT      O58747   4.855   7.734   6.636
19502WAT     H158748   4.842   7.834   6.636
19502WAT     H258749   4.950   7.713   6.611
19503WAT      O58750   0.468   0.099   5.531
19503WAT     H158751   0.373   0.069   5.521
19503WAT     H258752   0.475   0.196   5.511
19504WAT      O58753   4.155   3.033   9.094
19504WAT     H158754   4.168   3.112   9.035
19504WAT     H258755   4.243   2.995   9.120
19505WAT      O58756   1.660   0.149   7.062
19505WAT     H158757   1.582   0.202   7.027
19505WAT     H258758   1.745   0.194   7.035
19506WAT      O58759   2.832   4.660   1.844
19506WAT     H158760   2.779   4.724   1.788
19506WAT     H258761   2.929   4.667   1.819
19507WAT      O58762   9.789   7.238   9.295
19507WAT     H158763   9.765   7.333   9.318
19507WAT     H258764   9.807   7.231   9.197
19508WAT      O58765   4.774   4.196   8.750
19508WAT     H158766   4.749   4.280   8.701
19508WAT     H258767   4.841   4.146   8.695
19509WAT      O58768   4.304   1.929   4.405
19509WAT     H158769   4.227   1.971   4.452
19509WAT     H258770   4.325   1.981   4.322
19510WAT      O58771   3.317   4.252   3.820
19510WAT     H158772   3.226   4.214   3.802
19510WAT     H258773   3.350   4.216   3.907
19511WAT      O58774   8.409   6.073   9.173
19511WAT     H158775   8.317   6.042   9.197
19511WAT     H258776   8.421   6.071   9.074
19512WAT      O58777   5.446   4.558   8.229
19512WAT     H158778   5.438   4.549   8.129
19512WAT     H258779   5.426   4.652   8.256
19513WAT      O58780   0.965   3.747   1.318
19513WAT     H158781   0.940   3.839   1.348
19513WAT     H258782   0.944   3.736   1.221
19514WAT      O58783   7.500   4.224   9.842
19514WAT     H158784   7.502   4.128   9.815
19514WAT     H258785   7.429   4.238   9.911
19515WAT      O58786   8.231   0.177   2.724
19515WAT     H158787   8.192   0.269   2.732
19515WAT     H258788   8.231   0.149   2.628
19516WAT      O58789   8.039   3.923   3.729
19516WAT     H158790   8.048   3.827   3.703
19516WAT     H258791   7.965   3.966   3.676
19517WAT      O58792   2.557   7.469   0.448
19517WAT     H158793   2.538   7.503   0.540
19517WAT     H258794   2.477   7.420   0.414
19518WAT      O58795   1.619   3.998   6.397
19518WAT     H158796   1.680   4.063   6.350
19518WAT     H258797   1.636   3.906   6.362
19519WAT      O58798   8.706   1.671   8.794
19519WAT     H158799   8.749   1.688   8.882
19519WAT     H258800   8.748   1.729   8.724
19520WAT      O58801   0.179   3.045   6.639
19520WAT     H158802   0.255   3.018   6.698
19520WAT     H258803   0.213   3.096   6.560
19521WAT      O58804   7.266   3.758   9.093
19521WAT     H158805   7.317   3.672   9.091
19521WAT     H258806   7.274   3.799   9.184
19522WAT      O58807   5.802   3.990   5.444
19522WAT     H158808   5.762   3.939   5.520
19522WAT     H258809   5.732   4.005   5.374
19523WAT      O58810   1.960   3.524   5.964
19523WAT     H158811   1.899   3.591   5.922
19523WAT     H258812   2.027   3.493   5.896
19524WAT      O58813   0.831   0.224   1.026
19524WAT     H158814   0.857   0.265   0.939
19524WAT     H258815   0.782   0.139   1.009
19525WAT      O58816   6.811   0.630   1.257
19525WAT     H158817   6.819   0.598   1.351
19525WAT     H258818   6.804   0.552   1.195
19526WAT      O58819   8.277   9.224   1.833
19526WAT     H158820   8.237   9.196   1.920
19526WAT     H258821   8.208   9.272   1.779
19527WAT      O58822   8.434   5.411   7.450
19527WAT     H158823   8.412   5.502   7.485
19527WAT     H258824   8.533   5.402   7.440
19528WAT      O58825   0.113   1.446   1.823
19528WAT     H158826   0.168   1.505   1.764
19528WAT     H258827   0.166   1.365   1.848
19529WAT      O58828   3.287   5.841   0.133
19529WAT     H158829   3.344   5.891   0.069
19529WAT     H258830   3.344   5.806   0.208
19530WAT      O58831   0.696   1.182   4.965
19530WAT     H158832   0.781   1.129   4.956
19530WAT     H258833   0.618   1.122   4.947
19531WAT      O58834   5.653   5.927   0.723
19531WAT     H158835   5.559   5.903   0.749
19531WAT     H258836   5.671   5.896   0.630
19532WAT      O58837   6.810   9.600   8.447
19532WAT     H158838   6.817   9.611   8.348
19532WAT     H258839   6.793   9.689   8.490
19533WAT      O58840   9.553   0.828   3.245
19533WAT     H158841   9.464   0.873   3.239
19533WAT     H258842   9.611   0.861   3.171
19534WAT      O58843   9.198   5.239   1.884
19534WAT     H158844   9.125   5.201   1.940
19534WAT     H258845   9.180   5.220   1.788
19535WAT      O58846   9.350   7.180   4.880
19535WAT     H158847   9.332   7.278   4.876
19535WAT     H258848   9.312   7.135   4.799
19536WAT      O58849   6.116   3.331   9.256
19536WAT     H158850   6.042   3.266   9.243
19536WAT     H258851   6.204   3.288   9.232
19537WAT      O58852   8.913   8.838   4.279
19537WAT     H158853   8.944   8.806   4.189
19537WAT     H258854   8.820   8.872   4.272
19538WAT      O58855   1.330   0.542   5.532
19538WAT     H158856   1.351   0.636   5.506
19538WAT     H258857   1.284   0.541   5.620
19539WAT      O58858   8.934   1.637   7.703
19539WAT     H158859   8.953   1.642   7.801
19539WAT     H258860   8.874   1.559   7.685
19540WAT      O58861   6.390   7.522   5.526
19540WAT     H158862   6.446   7.582   5.470
19540WAT     H258863   6.333   7.577   5.587
19541WAT      O58864   6.585   7.228   9.251
19541WAT     H158865   6.492   7.257   9.278
19541WAT     H258866   6.631   7.189   9.331
19542WAT      O58867   9.304   4.202   0.493
19542WAT     H158868   9.307   4.271   0.565
19542WAT     H258869   9.372   4.131   0.512
19543WAT      O58870   5.468   1.690   7.508
19543WAT     H158871   5.553   1.732   7.537
19543WAT     H258872   5.401   1.761   7.486
19544WAT      O58873   3.075   8.393   5.707
19544WAT     H158874   3.154   8.452   5.689
19544WAT     H258875   3.107   8.304   5.739
19545WAT      O58876   7.932   4.152   2.935
19545WAT     H158877   7.842   4.180   2.902
19545WAT     H258878   7.961   4.069   2.887
19546WAT      O58879   7.353   1.304   2.560
19546WAT     H158880   7.395   1.296   2.650
19546WAT     H258881   7.366   1.218   2.510
19547WAT      O58882   3.173   7.820   0.284
19547WAT     H158883   3.210   7.803   0.192
19547WAT     H258884   3.088   7.769   0.296
19548WAT      O58885   8.529   3.933   8.735
19548WAT     H158886   8.535   3.842   8.776
19548WAT     H258887   8.435   3.948   8.703
19549WAT      O58888   2.034   1.492   3.450
19549WAT     H158889   2.043   1.458   3.357
19549WAT     H258890   1.937   1.496   3.474
19550WAT      O58891   9.475   4.524   9.144
19550WAT     H158892   9.521   4.531   9.233
19550WAT     H258893   9.433   4.433   9.136
19551WAT      O58894   7.191   1.372   9.545
19551WAT     H158895   7.228   1.306   9.480
19551WAT     H258896   7.198   1.464   9.506
19552WAT      O58897   0.043   8.907   0.595
19552WAT     H158898   0.098   8.941   0.518
19552WAT     H258899  -0.024   8.977   0.621
19553WAT      O58900   2.618   4.212   9.661
19553WAT     H158901   2.661   4.274   9.595
19553WAT     H258902   2.521   4.233   9.669
19554WAT      O58903   8.245   9.072   0.757
19554WAT     H158904   8.320   9.083   0.692
19554WAT     H258905   8.271   9.113   0.845
19555WAT      O58906   0.078   5.553   8.539
19555WAT     H158907   0.032   5.641   8.527
19555WAT     H258908   0.174   5.568   8.563
19556WAT      O58909   5.443   4.229   6.795
19556WAT     H158910   5.432   4.132   6.818
19556WAT     H258911   5.443   4.283   6.879
19557WAT      O58912   0.374   2.541   1.447
19557WAT     H158913   0.471   2.560   1.462
19557WAT     H258914   0.353   2.448   1.476
19558WAT      O58915   5.183   4.885   4.621
19558WAT     H158916   5.140   4.925   4.540
19558WAT     H258917   5.145   4.928   4.703
19559WAT      O58918   1.568   0.544   7.722
19559WAT     H158919   1.606   0.622   7.671
19559WAT     H258920   1.539   0.574   7.812
19560WAT      O58921   3.291   4.983   6.920
19560WAT     H158922   3.275   5.044   6.998
19560WAT     H258923   3.380   5.002   6.880
19561WAT      O58924   7.189   6.055   0.183
19561WAT     H158925   7.118   5.990   0.155
19561WAT     H258926   7.196   6.056   0.282
19562WAT      O58927   2.634   8.825   5.132
19562WAT     H158928   2.636   8.764   5.211
19562WAT     H258929   2.588   8.780   5.056
19563WAT      O58930   1.721   6.781   6.414
19563WAT     H158931   1.648   6.779   6.482
19563WAT     H258932   1.749   6.687   6.394
19564WAT      O58933   5.932   5.598   6.377
19564WAT     H158934   6.010   5.650   6.411
19564WAT     H258935   5.849   5.653   6.385
19565WAT      O58936   1.677   1.481   0.688
19565WAT     H158937   1.594   1.427   0.674
19565WAT     H258938   1.676   1.521   0.779
19566WAT      O58939   0.915   1.865   1.961
19566WAT     H158940   0.902   1.964   1.972
19566WAT     H258941   0.933   1.824   2.050
19567WAT      O58942   7.053   2.594   5.543
19567WAT     H158943   6.985   2.662   5.514
19567WAT     H258944   7.007   2.507   5.561
19568WAT      O58945   7.463   5.652   7.009
19568WAT     H158946   7.517   5.570   6.992
19568WAT     H258947   7.491   5.725   6.946
19569WAT      O58948   4.295   1.475   8.262
19569WAT     H158949   4.342   1.561   8.247
19569WAT     H258950   4.215   1.470   8.202
19570WAT      O58951   5.584   6.825   5.705
19570WAT     H158952   5.623   6.809   5.614
19570WAT     H258953   5.623   6.760   5.770
19571WAT      O58954   8.070   2.330   1.447
19571WAT     H158955   7.994   2.344   1.384
19571WAT     H258956   8.121   2.416   1.457
19572WAT      O58957   5.943   4.183   8.994
19572WAT     H158958   6.021   4.230   8.953
19572WAT     H258959   5.975   4.108   9.051
19573WAT      O58960   4.667   5.183   1.036
19573WAT     H158961   4.660   5.116   1.109
19573WAT     H258962   4.737   5.155   0.970
19574WAT      O58963   5.962   3.726   3.988
19574WAT     H158964   5.947   3.627   3.983
19574WAT     H258965   5.996   3.759   3.900
19575WAT      O58966   8.805   2.518   9.439
19575WAT     H158967   8.818   2.579   9.517
19575WAT     H258968   8.707   2.501   9.426
19576WAT      O58969   1.719   5.869   9.889
19576WAT     H158970   1.714   5.769   9.879
19576WAT     H258971   1.814   5.898   9.876
19577WAT      O58972   3.309   6.337   9.089
19577WAT     H158973   3.306   6.237   9.082
19577WAT     H258974   3.348   6.363   9.178
19578WAT      O58975   3.537   3.268   9.644
19578WAT     H158976   3.534   3.316   9.732
19578WAT     H258977   3.448   3.277   9.598
19579WAT      O58978   8.769   7.163   9.665
19579WAT     H158979   8.795   7.256   9.638
19579WAT     H258980   8.845   7.120   9.714
19580WAT      O58981   1.128   7.657   2.740
19580WAT     H158982   1.097   7.654   2.645
19580WAT     H258983   1.113   7.749   2.776
19581WAT      O58984   3.820   9.010   5.072
19581WAT     H158985   3.830   9.041   5.167
19581WAT     H258986   3.733   8.964   5.062
19582WAT      O58987   7.011   6.223   0.497
19582WAT     H158988   7.012   6.261   0.405
19582WAT     H258989   7.069   6.141   0.501
19583WAT      O58990   6.789   7.538   7.578
19583WAT     H158991   6.786   7.510   7.674
19583WAT     H258992   6.878   7.581   7.559
19584WAT      O58993   9.033   4.074   2.904
19584WAT     H158994   9.003   4.170   2.910
19584WAT     H258995   9.083   4.061   2.818
19585WAT      O58996   7.588   6.643   0.918
19585WAT     H158997   7.517   6.615   0.983
19585WAT     H258998   7.564   6.731   0.877
19586WAT      O58999   0.565   0.877   3.020
19586WAT     H159000   0.550   0.791   3.069
19586WAT     H259001   0.576   0.858   2.923
19587WAT      O59002   2.691   6.422   9.808
19587WAT     H159003   2.599   6.405   9.844
19587WAT     H259004   2.693   6.511   9.762
19588WAT      O59005   2.371   1.386   1.220
19588WAT     H159006   2.392   1.319   1.292
19588WAT     H259007   2.419   1.471   1.240
19589WAT      O59008   9.410   7.708   8.984
19589WAT     H159009   9.473   7.776   8.947
19589WAT     H259010   9.392   7.728   9.080
19590WAT      O59011   5.512   4.632   1.467
19590WAT     H159012   5.538   4.593   1.555
19590WAT     H259013   5.594   4.666   1.421
19591WAT      O59014   4.340   2.945   4.955
19591WAT     H159015   4.329   3.044   4.967
19591WAT     H259016   4.372   2.926   4.862
19592WAT      O59017   1.273   3.300   9.004
19592WAT     H159018   1.244   3.206   8.987
19592WAT     H259019   1.213   3.341   9.074
19593WAT      O59020   9.541   5.636   1.692
19593WAT     H159021   9.496   5.550   1.670
19593WAT     H259022   9.594   5.626   1.776
19594WAT      O59023   5.029   0.446   2.469
19594WAT     H159024   4.990   0.367   2.422
19594WAT     H259025   5.073   0.507   2.403
19595WAT      O59026   8.506   9.693   4.221
19595WAT     H159027   8.415   9.685   4.180
19595WAT     H259028   8.504   9.762   4.294
19596WAT      O59029   9.856   9.625   5.940
19596WAT     H159030   9.931   9.651   5.879
19596WAT     H259031   9.891   9.571   6.016
19597WAT      O59032   2.032   1.688   7.888
19597WAT     H159033   2.005   1.700   7.792
19597WAT     H259034   1.950   1.688   7.945
19598WAT      O59035   8.699   7.089   4.197
19598WAT     H159036   8.733   7.026   4.267
19598WAT     H259037   8.606   7.064   4.171
19599WAT      O59038   7.611   7.517   7.537
19599WAT     H159039   7.576   7.458   7.609
19599WAT     H259040   7.644   7.603   7.577
19600WAT      O59041   0.655   2.407   1.875
19600WAT     H159042   0.633   2.330   1.935
19600WAT     H259043   0.682   2.372   1.785
19601WAT      O59044   1.440   5.659   3.642
19601WAT     H159045   1.369   5.616   3.698
19601WAT     H259046   1.527   5.657   3.692
19602WAT      O59047   4.238   2.992   2.152
19602WAT     H159048   4.293   2.920   2.110
19602WAT     H259049   4.274   3.081   2.126
19603WAT      O59050   3.929   7.998   6.796
19603WAT     H159051   3.863   7.946   6.741
19603WAT     H259052   4.014   8.006   6.745
19604WAT      O59053   4.113   7.355   1.702
19604WAT     H159054   4.113   7.403   1.790
19604WAT     H259055   4.069   7.266   1.713
19605WAT      O59056   1.359   0.240   0.619
19605WAT     H159057   1.293   0.205   0.553
19605WAT     H259058   1.430   0.171   0.635
19606WAT      O59059   1.042   5.033   8.503
19606WAT     H159060   1.096   5.102   8.455
19606WAT     H259061   0.945   5.046   8.484
19607WAT      O59062   5.377   8.127   3.225
19607WAT     H159063   5.298   8.155   3.170
19607WAT     H259064   5.345   8.099   3.316
19608WAT      O59065   1.980   4.497   1.787
19608WAT     H159066   2.065   4.548   1.801
19608WAT     H259067   1.903   4.552   1.820
19609WAT      O59068   6.753   8.505   1.765
19609WAT     H159069   6.693   8.483   1.841
19609WAT     H259070   6.846   8.520   1.799
19610WAT      O59071   6.249   4.168   7.571
19610WAT     H159072   6.199   4.211   7.497
19610WAT     H259073   6.317   4.105   7.533
19611WAT      O59074   2.771   8.657   8.423
19611WAT     H159075   2.832   8.735   8.433
19611WAT     H259076   2.710   8.672   8.345
19612WAT      O59077   1.383   9.372   7.610
19612WAT     H159078   1.478   9.342   7.611
19612WAT     H259079   1.324   9.298   7.578
19613WAT      O59080   2.196   4.289   0.837
19613WAT     H159081   2.111   4.335   0.811
19613WAT     H259082   2.217   4.218   0.769
19614WAT      O59083   8.130   0.130   5.188
19614WAT     H159084   8.147   0.108   5.284
19614WAT     H259085   8.207   0.182   5.151
19615WAT      O59086   4.372   4.379   4.668
19615WAT     H159087   4.455   4.331   4.695
19615WAT     H259088   4.384   4.419   4.577
19616WAT      O59089   5.249   8.809   7.577
19616WAT     H159090   5.235   8.711   7.561
19616WAT     H259091   5.162   8.852   7.599
19617WAT      O59092   2.246   6.119   8.378
19617WAT     H159093   2.151   6.122   8.347
19617WAT     H259094   2.271   6.026   8.403
19618WAT      O59095   9.654   8.538   2.860
19618WAT     H159096   9.753   8.541   2.872
19618WAT     H259097   9.611   8.511   2.947
19619WAT      O59098   5.097   8.909   1.672
19619WAT     H159099   5.120   8.812   1.657
19619WAT     H259100   5.118   8.961   1.589
19620WAT      O59101   4.605   0.367   4.663
19620WAT     H159102   4.649   0.392   4.750
19620WAT     H259103   4.537   0.296   4.680
19621WAT      O59104   6.783   4.241   2.417
19621WAT     H159105   6.777   4.171   2.345
19621WAT     H259106   6.863   4.299   2.401
19622WAT      O59107   7.825   0.648   2.348
19622WAT     H159108   7.901   0.603   2.395
19622WAT     H259109   7.748   0.658   2.412
19623WAT      O59110   9.293   8.451   1.595
19623WAT     H159111   9.285   8.381   1.525
19623WAT     H259112   9.218   8.517   1.586
19624WAT      O59113   5.262   8.994   9.106
19624WAT     H159114   5.254   9.014   9.204
19624WAT     H259115   5.345   9.037   9.070
19625WAT      O59116   7.006   9.555   0.766
19625WAT     H159117   6.986   9.531   0.861
19625WAT     H259118   7.016   9.654   0.758
19626WAT      O59119   2.601   0.202   2.239
19626WAT     H159120   2.618   0.296   2.270
19626WAT     H259121   2.629   0.193   2.143
19627WAT      O59122   6.455   2.669   7.596
19627WAT     H159123   6.520   2.745   7.601
19627WAT     H259124   6.409   2.659   7.684
19628WAT      O59125   7.966   6.744   0.943
19628WAT     H159126   7.971   6.723   0.845
19628WAT     H259127   7.944   6.660   0.994
19629WAT      O59128   9.704   1.616   2.161
19629WAT     H159129   9.631   1.554   2.191
19629WAT     H259130   9.743   1.662   2.241
19630WAT      O59131   5.769   6.059   8.978
19630WAT     H159132   5.814   5.987   8.926
19630WAT     H259133   5.765   6.034   9.075
19631WAT      O59134   9.084   5.721   9.656
19631WAT     H159135   9.101   5.813   9.690
19631WAT     H259136   9.167   5.686   9.612
19632WAT      O59137   7.885   9.198   4.504
19632WAT     H159138   7.954   9.218   4.434
19632WAT     H259139   7.805   9.158   4.460
19633WAT      O59140   0.293   4.625   0.860
19633WAT     H159141   0.329   4.618   0.953
19633WAT     H259142   0.203   4.583   0.856
19634WAT      O59143   0.303   1.396   9.794
19634WAT     H159144   0.307   1.479   9.850
19634WAT     H259145   0.377   1.399   9.726
19635WAT      O59146   8.395   1.979   4.055
19635WAT     H159147   8.314   1.958   4.110
19635WAT     H259148   8.435   1.894   4.021
19636WAT      O59149   8.282   0.486   6.165
19636WAT     H159150   8.314   0.567   6.116
19636WAT     H259151   8.261   0.510   6.260
19637WAT      O59152   5.773   6.100   6.737
19637WAT     H159153   5.778   6.106   6.836
19637WAT     H259154   5.818   6.180   6.696
19638WAT      O59155   9.095   4.925   8.618
19638WAT     H159156   9.081   4.989   8.694
19638WAT     H259157   9.166   4.961   8.558
19639WAT      O59158   2.791   6.082   6.934
19639WAT     H159159   2.853   6.005   6.919
19639WAT     H259160   2.801   6.147   6.858
19640WAT      O59161   5.996   7.754   5.400
19640WAT     H159162   6.023   7.718   5.311
19640WAT     H259163   5.898   7.776   5.399
19641WAT      O59164   2.349   8.780   1.859
19641WAT     H159165   2.318   8.722   1.783
19641WAT     H259166   2.299   8.866   1.857
19642WAT      O59167   3.686   5.774   3.759
19642WAT     H159168   3.676   5.723   3.674
19642WAT     H259169   3.783   5.795   3.774
19643WAT      O59170   7.807   0.146   4.940
19643WAT     H159171   7.905   0.138   4.925
19643WAT     H259172   7.758   0.096   4.869
19644WAT      O59173   8.303   8.650   3.124
19644WAT     H159174   8.336   8.622   3.214
19644WAT     H259175   8.211   8.687   3.132
19645WAT      O59176   7.414   6.385   0.664
19645WAT     H159177   7.472   6.395   0.744
19645WAT     H259178   7.358   6.467   0.653
19646WAT      O59179   0.616   2.767   7.426
19646WAT     H159180   0.666   2.695   7.475
19646WAT     H259181   0.677   2.845   7.411
19647WAT      O59182   4.450   1.497   2.478
19647WAT     H159183   4.359   1.537   2.493
19647WAT     H259184   4.462   1.418   2.537
19648WAT      O59185   1.158   5.058   4.267
19648WAT     H159186   1.206   5.084   4.184
19648WAT     H259187   1.122   4.965   4.257
19649WAT      O59188   5.837   3.584   7.541
19649WAT     H159189   5.936   3.573   7.532
19649WAT     H259190   5.815   3.613   7.634
19650WAT      O59191   3.958   1.411   2.734
19650WAT     H159192   3.866   1.385   2.763
19650WAT     H259193   3.984   1.496   2.779
19651WAT      O59194   8.672   9.427   2.649
19651WAT     H159195   8.575   9.440   2.669
19651WAT     H259196   8.683   9.352   2.584
19652WAT      O59197   7.638   8.599   8.029
19652WAT     H159198   7.643   8.609   8.129
19652WAT     H259199   7.728   8.613   7.990
19653WAT      O59200   7.985   0.540   0.610
19653WAT     H159201   7.990   0.615   0.544
19653WAT     H259202   7.912   0.559   0.677
19654WAT      O59203   0.624   5.437   1.255
19654WAT     H159204   0.544   5.380   1.239
19654WAT     H259205   0.693   5.385   1.305
19655WAT      O59206   0.831   1.944   2.912
19655WAT     H159207   0.731   1.946   2.910
19655WAT     H259208   0.863   1.968   3.004
19656WAT      O59209   1.381   3.440   3.066
19656WAT     H159210   1.392   3.341   3.067
19656WAT     H259211   1.456   3.483   3.118
19657WAT      O59212   2.822   3.803   9.215
19657WAT     H159213   2.826   3.829   9.312
19657WAT     H259214   2.839   3.705   9.206
19658WAT      O59215   4.199   6.102   0.883
19658WAT     H159216   4.279   6.093   0.824
19658WAT     H259217   4.118   6.068   0.835
19659WAT      O59218   4.988   3.944   6.624
19659WAT     H159219   5.028   4.013   6.684
19659WAT     H259220   5.007   3.966   6.529
19660WAT      O59221   8.049   8.962   1.476
19660WAT     H159222   8.110   8.955   1.398
19660WAT     H259223   7.995   9.046   1.471
19661WAT      O59224   3.810   7.044   2.686
19661WAT     H159225   3.828   7.084   2.776
19661WAT     H259226   3.711   7.036   2.672
19662WAT      O59227   0.144   3.504   6.512
19662WAT     H159228   0.238   3.502   6.546
19662WAT     H259229   0.141   3.463   6.420
19663WAT      O59230   0.704   7.851   2.805
19663WAT     H159231   0.739   7.768   2.849
19663WAT     H259232   0.748   7.864   2.717
19664WAT      O59233   0.559   3.878   1.647
19664WAT     H159234   0.465   3.910   1.635
19664WAT     H259235   0.560   3.797   1.705
19665WAT      O59236   0.730   5.594   0.763
19665WAT     H159237   0.722   5.533   0.842
19665WAT     H259238   0.766   5.543   0.685
19666WAT      O59239   7.008   8.283   7.229
19666WAT     H159240   6.939   8.355   7.215
19666WAT     H259241   7.093   8.324   7.260
19667WAT      O59242   7.209   3.309   7.230
19667WAT     H159243   7.260   3.223   7.223
19667WAT     H259244   7.176   3.321   7.323
19668WAT      O59245   8.961   5.508   3.143
19668WAT     H159246   9.057   5.530   3.158
19668WAT     H259247   8.911   5.518   3.229
19669WAT      O59248   0.033   3.243   6.857
19669WAT     H159249  -0.061   3.213   6.870
19669WAT     H259250   0.034   3.340   6.832
19670WAT      O59251   2.268   4.729   8.674
19670WAT     H159252   2.286   4.657   8.607
19670WAT     H259253   2.348   4.742   8.732
19671WAT      O59254   6.380   7.893   3.573
19671WAT     H159255   6.353   7.935   3.660
19671WAT     H259256   6.442   7.955   3.524
19672WAT      O59257   5.275   3.910   1.808
19672WAT     H159258   5.186   3.938   1.844
19672WAT     H259259   5.344   3.980   1.831
19673WAT      O59260   2.890   5.534   8.014
19673WAT     H159261   2.904   5.531   7.915
19673WAT     H259262   2.829   5.460   8.042
19674WAT      O59263   9.473   6.098   5.237
19674WAT     H159264   9.531   6.127   5.161
19674WAT     H259265   9.443   6.179   5.288
19675WAT      O59266   0.398   9.300   3.362
19675WAT     H159267   0.437   9.372   3.418
19675WAT     H259268   0.329   9.250   3.414
19676WAT      O59269   1.179   2.463   6.372
19676WAT     H159270   1.138   2.546   6.409
19676WAT     H259271   1.235   2.486   6.292
19677WAT      O59272   0.827   8.500   2.712
19677WAT     H159273   0.757   8.571   2.709
19677WAT     H259274   0.914   8.537   2.680
19678WAT      O59275   7.317   8.846   1.628
19678WAT     H159276   7.260   8.928   1.621
19678WAT     H259277   7.407   8.864   1.589
19679WAT      O59278   4.766   3.630   8.351
19679WAT     H159279   4.706   3.704   8.322
19679WAT     H259280   4.785   3.639   8.449
19680WAT      O59281   6.510   3.277   0.831
19680WAT     H159282   6.532   3.268   0.928
19680WAT     H259283   6.414   3.303   0.821
19681WAT      O59284   8.609   9.379   7.219
19681WAT     H159285   8.709   9.374   7.218
19681WAT     H259286   8.571   9.295   7.180
19682WAT      O59287   1.431   2.371   0.691
19682WAT     H159288   1.372   2.294   0.716
19682WAT     H259289   1.435   2.379   0.591
19683WAT      O59290   9.822   9.246   7.752
19683WAT     H159291   9.867   9.157   7.742
19683WAT     H259292   9.777   9.251   7.841
19684WAT      O59293   2.434   6.560   4.392
19684WAT     H159294   2.355   6.616   4.415
19684WAT     H259295   2.404   6.478   4.344
19685WAT      O59296   9.871   3.700   7.682
19685WAT     H159297   9.952   3.648   7.655
19685WAT     H259298   9.792   3.667   7.630
19686WAT      O59299   4.812   5.646   8.196
19686WAT     H159300   4.742   5.616   8.132
19686WAT     H259301   4.807   5.591   8.280
19687WAT      O59302   5.499   7.889   4.818
19687WAT     H159303   5.581   7.932   4.856
19687WAT     H259304   5.423   7.901   4.882
19688WAT      O59305   9.166   6.044   2.614
19688WAT     H159306   9.191   6.048   2.711
19688WAT     H259307   9.072   6.012   2.605
19689WAT      O59308   2.373   6.656   5.925
19689WAT     H159309   2.438   6.587   5.959
19689WAT     H259310   2.280   6.626   5.945
19690WAT      O59311   1.293   9.452   3.649
19690WAT     H159312   1.229   9.526   3.629
19690WAT     H259313   1.377   9.464   3.595
19691WAT      O59314   9.284   4.685   4.847
19691WAT     H159315   9.250   4.599   4.884
19691WAT     H259316   9.351   4.724   4.910
19692WAT      O59317   4.250   6.118   5.830
19692WAT     H159318   4.174   6.148   5.888
19692WAT     H259319   4.307   6.196   5.807
19693WAT      O59320   3.001   3.499   1.761
19693WAT     H159321   3.004   3.575   1.826
19693WAT     H259322   3.090   3.454   1.757
19694WAT      O59323   0.135   6.816   7.318
19694WAT     H159324   0.163   6.884   7.386
19694WAT     H259325   0.184   6.730   7.335
19695WAT      O59326   8.417   5.603   6.806
19695WAT     H159327   8.346   5.596   6.875
19695WAT     H259328   8.401   5.683   6.749
19696WAT      O59329   4.862   2.832   4.399
19696WAT     H159330   4.859   2.753   4.461
19696WAT     H259331   4.792   2.821   4.329
19697WAT      O59332   8.221   4.941   2.890
19697WAT     H159333   8.303   4.980   2.848
19697WAT     H259334   8.152   4.925   2.819
19698WAT      O59335   3.196   7.336   3.478
19698WAT     H159336   3.146   7.418   3.449
19698WAT     H259337   3.263   7.360   3.547
19699WAT      O59338   9.784   4.240   9.335
19699WAT     H159339   9.699   4.198   9.303
19699WAT     H259340   9.847   4.250   9.258
19700WAT      O59341   9.531   9.246   8.254
19700WAT     H159342   9.599   9.302   8.300
19700WAT     H259343   9.576   9.192   8.182
19701WAT      O59344   3.516   6.117   0.431
19701WAT     H159345   3.417   6.133   0.425
19701WAT     H259346   3.549   6.150   0.519
19702WAT      O59347   5.198   2.572   5.207
19702WAT     H159348   5.115   2.629   5.209
19702WAT     H259349   5.216   2.536   5.299
19703WAT      O59350   2.087   4.279   7.041
19703WAT     H159351   2.081   4.191   7.088
19703WAT     H259352   2.062   4.352   7.104
19704WAT      O59353   7.584   4.302   8.916
19704WAT     H159354   7.659   4.271   8.974
19704WAT     H259355   7.618   4.316   8.823
19705WAT      O59356   9.243   5.317   0.897
19705WAT     H159357   9.292   5.245   0.847
19705WAT     H259358   9.247   5.402   0.844
19706WAT      O59359   6.167   0.041   4.387
19706WAT     H159360   6.245   0.039   4.325
19706WAT     H259361   6.155  -0.049   4.428
19707WAT      O59362   9.015   6.673   2.316
19707WAT     H159363   9.060   6.588   2.345
19707WAT     H259364   8.963   6.657   2.232
19708WAT      O59365   1.880   5.462   1.149
19708WAT     H159366   1.791   5.431   1.115
19708WAT     H259367   1.877   5.467   1.249
19709WAT      O59368   5.918   5.638   1.907
19709WAT     H159369   5.916   5.705   1.832
19709WAT     H259370   5.871   5.676   1.987
19710WAT      O59371   0.831   5.782   4.777
19710WAT     H159372   0.904   5.714   4.770
19710WAT     H259373   0.838   5.829   4.865
19711WAT      O59374   8.243   3.199   4.329
19711WAT     H159375   8.152   3.224   4.294
19711WAT     H259376   8.261   3.103   4.307
19712WAT      O59377   3.617   3.026   9.118
19712WAT     H159378   3.573   3.048   9.205
19712WAT     H259379   3.654   2.933   9.122
19713WAT      O59380   8.600   4.249   3.685
19713WAT     H159381   8.584   4.266   3.783
19713WAT     H259382   8.543   4.173   3.655
19714WAT      O59383   2.227   8.375   7.328
19714WAT     H159384   2.183   8.445   7.271
19714WAT     H259385   2.287   8.419   7.395
19715WAT      O59386   7.892   5.277   7.609
19715WAT     H159387   7.832   5.232   7.543
19715WAT     H259388   7.972   5.220   7.626
19716WAT      O59389   2.752   5.606   3.638
19716WAT     H159390   2.743   5.698   3.600
19716WAT     H259391   2.766   5.612   3.737
19717WAT      O59392   6.362   8.223   6.063
19717WAT     H159393   6.427   8.296   6.042
19717WAT     H259394   6.270   8.262   6.073
19718WAT      O59395   4.694   8.821   7.320
19718WAT     H159396   4.671   8.824   7.223
19718WAT     H259397   4.622   8.865   7.373
19719WAT      O59398   9.357   1.442   8.629
19719WAT     H159399   9.320   1.404   8.544
19719WAT     H259400   9.289   1.503   8.670
19720WAT      O59401   3.249   6.954   1.925
19720WAT     H159402   3.206   7.043   1.908
19720WAT     H259403   3.273   6.946   2.021
19721WAT      O59404   3.824   6.517   4.644
19721WAT     H159405   3.861   6.607   4.666
19721WAT     H259406   3.892   6.447   4.667
19722WAT      O59407   5.160   6.174   1.420
19722WAT     H159408   5.114   6.263   1.421
19722WAT     H259409   5.117   6.113   1.487
19723WAT      O59410   3.351   4.362   2.982
19723WAT     H159411   3.307   4.452   2.982
19723WAT     H259412   3.421   4.359   2.911
19724WAT      O59413   9.126   7.026   8.993
19724WAT     H159414   9.160   7.109   8.948
19724WAT     H259415   9.026   7.027   8.991
19725WAT      O59416   3.980   4.041   6.788
19725WAT     H159417   3.883   4.019   6.790
19725WAT     H259418   4.023   4.010   6.872
19726WAT      O59419   9.729   3.427   7.717
19726WAT     H159420   9.692   3.483   7.791
19726WAT     H259421   9.677   3.445   7.633
19727WAT      O59422   4.581   2.976   2.034
19727WAT     H159423   4.526   3.032   1.971
19727WAT     H259424   4.619   3.034   2.106
19728WAT      O59425   8.047   8.255   8.981
19728WAT     H159426   7.989   8.177   8.957
19728WAT     H259427   7.991   8.337   8.989
19729WAT      O59428   4.758   7.627   3.124
19729WAT     H159429   4.685   7.694   3.112
19729WAT     H259430   4.846   7.673   3.127
19730WAT      O59431   2.015   7.468   9.806
19730WAT     H159432   2.011   7.534   9.730
19730WAT     H259433   1.950   7.496   9.877
19731WAT      O59434   8.043   6.464   0.582
19731WAT     H159435   8.045   6.550   0.632
19731WAT     H259436   8.136   6.438   0.556
19732WAT      O59437   6.707   8.156   3.982
19732WAT     H159438   6.640   8.149   4.055
19732WAT     H259439   6.754   8.244   3.988
19733WAT      O59440   2.534   4.511   7.741
19733WAT     H159441   2.575   4.599   7.766
19733WAT     H259442   2.448   4.527   7.693
19734WAT      O59443   8.372   2.771   6.262
19734WAT     H159444   8.435   2.696   6.246
19734WAT     H259445   8.313   2.749   6.340
19735WAT      O59446   7.810   1.852   9.407
19735WAT     H159447   7.740   1.781   9.413
19735WAT     H259448   7.878   1.827   9.337
19736WAT      O59449   5.811   6.046   0.915
19736WAT     H159450   5.751   6.014   0.841
19736WAT     H259451   5.857   5.967   0.956
19737WAT      O59452   6.846   3.217   2.725
19737WAT     H159453   6.875   3.183   2.635
19737WAT     H259454   6.778   3.154   2.763
19738WAT      O59455   8.418   0.414   7.967
19738WAT     H159456   8.392   0.449   8.057
19738WAT     H259457   8.342   0.424   7.903
19739WAT      O59458   4.390   2.914   1.187
19739WAT     H159459   4.386   2.974   1.106
19739WAT     H259460   4.427   2.966   1.264
19740WAT      O59461   7.225   8.542   0.018
19740WAT     H159462   7.272   8.466   0.063
19740WAT     H259463   7.131   8.515  -0.003
19741WAT      O59464   4.125   6.377   0.271
19741WAT     H159465   4.032   6.345   0.255
19741WAT     H259466   4.123   6.469   0.309
19742WAT      O59467   1.008   3.984   5.037
19742WAT     H159468   1.050   3.897   5.062
19742WAT     H259469   1.063   4.029   4.967
19743WAT      O59470   0.628   0.459   0.875
19743WAT     H159471   0.641   0.524   0.801
19743WAT     H259472   0.688   0.483   0.952
19744WAT      O59473   4.390   0.419   9.458
19744WAT     H159474   4.450   0.351   9.499
19744WAT     H259475   4.356   0.385   9.370
19745WAT      O59476   7.612   0.111   7.148
19745WAT     H159477   7.695   0.105   7.202
19745WAT     H259478   7.532   0.100   7.208
19746WAT      O59479   7.557   9.311   4.531
19746WAT     H159480   7.531   9.215   4.523
19746WAT     H259481   7.539   9.344   4.623
19747WAT      O59482   3.273   6.409   7.779
19747WAT     H159483   3.338   6.481   7.802
19747WAT     H259484   3.214   6.439   7.704
19748WAT      O59485   7.273   9.216   7.226
19748WAT     H159486   7.183   9.215   7.184
19748WAT     H259487   7.331   9.146   7.184
19749WAT      O59488   2.018   8.249   3.653
19749WAT     H159489   1.942   8.311   3.674
19749WAT     H259490   2.025   8.239   3.554
19750WAT      O59491   9.128   5.858   3.280
19750WAT     H159492   9.050   5.915   3.255
19750WAT     H259493   9.200   5.915   3.318
19751WAT      O59494   0.269   7.162   1.494
19751WAT     H159495   0.188   7.163   1.553
19751WAT     H259496   0.316   7.250   1.502
19752WAT      O59497   2.682   5.378   3.965
19752WAT     H159498   2.702   5.473   3.938
19752WAT     H259499   2.585   5.369   3.985
19753WAT      O59500   3.009   3.410   1.060
19753WAT     H159501   2.909   3.416   1.053
19753WAT     H259502   3.033   3.346   1.132
19754WAT      O59503   5.867   8.397   9.171
19754WAT     H159504   5.956   8.367   9.206
19754WAT     H259505   5.797   8.332   9.200
19755WAT      O59506   1.909   5.933   4.833
19755WAT     H159507   1.893   5.911   4.929
19755WAT     H259508   1.932   6.030   4.825
19756WAT      O59509   9.668   3.869   7.796
19756WAT     H159510   9.701   3.913   7.713
19756WAT     H259511   9.656   3.771   7.780
19757WAT      O59512   2.518   1.059   6.063
19757WAT     H159513   2.481   1.131   6.122
19757WAT     H259514   2.481   1.069   5.970
19758WAT      O59515   0.519   7.441   6.741
19758WAT     H159516   0.576   7.439   6.823
19758WAT     H259517   0.422   7.435   6.768
19759WAT      O59518   9.731   2.903   2.824
19759WAT     H159519   9.730   2.864   2.732
19759WAT     H259520   9.641   2.939   2.847
19760WAT      O59521   3.488   0.377   6.727
19760WAT     H159522   3.561   0.404   6.664
19760WAT     H259523   3.423   0.451   6.737
19761WAT      O59524   1.657   1.583   3.141
19761WAT     H159525   1.632   1.505   3.084
19761WAT     H259526   1.752   1.608   3.124
19762WAT      O59527   0.580   3.631   1.423
19762WAT     H159528   0.605   3.544   1.379
19762WAT     H259529   0.623   3.636   1.513
19763WAT      O59530   0.669   0.672   0.668
19763WAT     H159531   0.675   0.760   0.621
19763WAT     H259532   0.640   0.601   0.603
19764WAT      O59533   7.531   6.148   2.576
19764WAT     H159534   7.455   6.091   2.546
19764WAT     H259535   7.504   6.201   2.656
19765WAT      O59536   7.322   1.116   1.183
19765WAT     H159537   7.324   1.067   1.270
19765WAT     H259538   7.234   1.162   1.173
19766WAT      O59539   6.123   8.705   5.343
19766WAT     H159540   6.200   8.693   5.406
19766WAT     H259541   6.157   8.733   5.254
19767WAT      O59542   8.754   0.448   0.951
19767WAT     H159543   8.787   0.386   0.880
19767WAT     H259544   8.802   0.430   1.037
19768WAT      O59545   8.970   4.921   1.750
19768WAT     H159546   8.961   4.833   1.796
19768WAT     H259547   8.981   4.905   1.651
19769WAT      O59548   9.463   4.106   7.468
19769WAT     H159549   9.452   4.188   7.412
19769WAT     H259550   9.428   4.026   7.419
19770WAT      O59551   3.818   8.149   0.150
19770WAT     H159552   3.772   8.121   0.234
19770WAT     H259553   3.749   8.173   0.081
19771WAT      O59554   7.978   5.638   5.634
19771WAT     H159555   7.953   5.579   5.558
19771WAT     H259556   8.009   5.726   5.599
19772WAT      O59557   8.366   0.693   5.991
19772WAT     H159558   8.313   0.717   5.909
19772WAT     H259559   8.454   0.655   5.963
19773WAT      O59560   0.090   0.032   6.963
19773WAT     H159561   0.013   0.096   6.963
19773WAT     H259562   0.085  -0.026   7.044
19774WAT      O59563   2.221   6.017   0.952
19774WAT     H159564   2.200   5.938   0.895
19774WAT     H259565   2.141   6.042   1.006
19775WAT      O59566   1.749   3.193   9.878
19775WAT     H159567   1.776   3.097   9.870
19775WAT     H259568   1.658   3.205   9.839
19776WAT      O59569   8.254   7.710   8.909
19776WAT     H159570   8.159   7.717   8.880
19776WAT     H259571   8.264   7.637   8.976
19777WAT      O59572   0.501   3.736   9.875
19777WAT     H159573   0.501   3.670   9.800
19777WAT     H259574   0.416   3.789   9.873
19778WAT      O59575   6.496   3.338   9.061
19778WAT     H159576   6.592   3.356   9.042
19778WAT     H259577   6.444   3.423   9.053
19779WAT      O59578   6.441   4.900   0.330
19779WAT     H159579   6.488   4.942   0.407
19779WAT     H259580   6.346   4.881   0.355
19780WAT      O59581   0.029   7.391   7.185
19780WAT     H159582   0.103   7.371   7.120
19780WAT     H259583   0.058   7.466   7.246
19781WAT      O59584   6.272   1.083   4.953
19781WAT     H159585   6.308   1.001   4.908
19781WAT     H259586   6.252   1.153   4.885
19782WAT      O59587   6.382   2.612   7.854
19782WAT     H159588   6.326   2.652   7.926
19782WAT     H259589   6.398   2.515   7.873
19783WAT      O59590   1.676   9.476   4.195
19783WAT     H159591   1.639   9.480   4.102
19783WAT     H259592   1.617   9.528   4.257
19784WAT      O59593   5.204   2.974   8.384
19784WAT     H159594   5.241   2.947   8.473
19784WAT     H259595   5.149   3.057   8.394
19785WAT      O59596   8.731   9.196   1.193
19785WAT     H159597   8.718   9.283   1.145
19785WAT     H259598   8.688   9.122   1.141
19786WAT      O59599   6.699   5.289   5.587
19786WAT     H159600   6.678   5.225   5.513
19786WAT     H259601   6.686   5.243   5.675
19787WAT      O59602   4.917   9.392   1.557
19787WAT     H159603   4.976   9.352   1.627
19787WAT     H259604   4.858   9.461   1.600
19788WAT      O59605   1.885   9.212   0.854
19788WAT     H159606   1.827   9.191   0.775
19788WAT     H259607   1.965   9.264   0.824
19789WAT      O59608   5.684   8.880   6.864
19789WAT     H159609   5.603   8.921   6.906
19789WAT     H259610   5.662   8.851   6.771
19790WAT      O59611   0.927   2.382   2.226
19790WAT     H159612   0.917   2.292   2.269
19790WAT     H259613   0.996   2.376   2.153
19791WAT      O59614   9.101   7.292   6.870
19791WAT     H159615   9.110   7.211   6.929
19791WAT     H259616   9.126   7.374   6.921
19792WAT      O59617   7.008   4.612   6.677
19792WAT     H159618   7.005   4.513   6.688
19792WAT     H259619   6.916   4.650   6.693
19793WAT      O59620   6.780   6.356   5.840
19793WAT     H159621   6.862   6.320   5.885
19793WAT     H259622   6.790   6.455   5.829
19794WAT      O59623   3.634   4.266   4.390
19794WAT     H159624   3.702   4.318   4.442
19794WAT     H259625   3.542   4.295   4.417
19795WAT      O59626   1.277   2.458   7.216
19795WAT     H159627   1.321   2.446   7.127
19795WAT     H259628   1.333   2.415   7.287
19796WAT      O59629   3.812   5.945   6.871
19796WAT     H159630   3.893   6.003   6.862
19796WAT     H259631   3.742   5.975   6.806
19797WAT      O59632   9.601   1.432   6.205
19797WAT     H159633   9.622   1.353   6.147
19797WAT     H259634   9.686   1.481   6.225
19798WAT      O59635   7.255   3.468   8.059
19798WAT     H159636   7.196   3.549   8.063
19798WAT     H259637   7.253   3.422   8.148
19799WAT      O59638   0.482   7.287   8.207
19799WAT     H159639   0.564   7.252   8.161
19799WAT     H259640   0.459   7.376   8.169
19800WAT      O59641   4.686   6.321   6.048
19800WAT     H159642   4.779   6.305   6.081
19800WAT     H259643   4.653   6.408   6.083
19801WAT      O59644   8.028   6.366   7.808
19801WAT     H159645   8.097   6.393   7.876
19801WAT     H259646   8.020   6.438   7.739
19802WAT      O59647   8.898   5.633   4.203
19802WAT     H159648   8.886   5.554   4.263
19802WAT     H259649   8.960   5.609   4.128
19803WAT      O59650   5.191   8.658   1.639
19803WAT     H159651   5.218   8.645   1.544
19803WAT     H259652   5.124   8.588   1.665
19804WAT      O59653   9.243   9.016   6.175
19804WAT     H159654   9.173   9.082   6.201
19804WAT     H259655   9.311   9.061   6.117
19805WAT      O59656   3.063   8.233   4.482
19805WAT     H159657   3.076   8.135   4.465
19805WAT     H259658   2.967   8.250   4.505
19806WAT      O59659   0.233   9.524   7.392
19806WAT     H159660   0.164   9.573   7.340
19806WAT     H259661   0.263   9.579   7.469
19807WAT      O59662   3.693   9.751   1.487
19807WAT     H159663   3.662   9.682   1.552
19807WAT     H259664   3.615   9.785   1.434
19808WAT      O59665   4.030   6.042   7.954
19808WAT     H159666   4.033   6.140   7.935
19808WAT     H259667   3.975   6.025   8.036
19809WAT      O59668   3.588   9.807   0.416
19809WAT     H159669   3.566   9.716   0.380
19809WAT     H259670   3.595   9.803   0.515
19810WAT      O59671   5.987   7.967   5.188
19810WAT     H159672   5.905   7.910   5.192
19810WAT     H259673   5.971   8.052   5.238
19811WAT      O59674   0.269   3.670   3.010
19811WAT     H159675   0.328   3.594   2.984
19811WAT     H259676   0.287   3.695   3.105
19812WAT      O59677   0.997   0.200   2.834
19812WAT     H159678   0.937   0.274   2.866
19812WAT     H259679   1.073   0.189   2.898
19813WAT      O59680   0.697   1.700   8.848
19813WAT     H159681   0.698   1.680   8.946
19813WAT     H259682   0.765   1.643   8.802
19814WAT      O59683   9.442   3.923   8.431
19814WAT     H159684   9.510   3.981   8.385
19814WAT     H259685   9.425   3.960   8.522
19815WAT      O59686   2.497   4.870   0.092
19815WAT     H159687   2.562   4.885   0.018
19815WAT     H259688   2.506   4.777   0.126
19816WAT      O59689   6.959   4.442   4.612
19816WAT     H159690   6.930   4.382   4.537
19816WAT     H259691   6.954   4.392   4.698
19817WAT      O59692   2.991   0.684   9.598
19817WAT     H159693   2.937   0.614   9.646
19817WAT     H259694   2.968   0.684   9.501
19818WAT      O59695   5.975   7.038   3.892
19818WAT     H159696   6.052   7.088   3.853
19818WAT     H259697   5.915   7.102   3.941
19819WAT      O59698   3.949   5.922   4.787
19819WAT     H159699   4.010   5.994   4.755
19819WAT     H259700   3.854   5.950   4.772
19820WAT      O59701   1.386   5.498   3.242
19820WAT     H159702   1.405   5.478   3.145
19820WAT     H259703   1.336   5.422   3.282
19821WAT      O59704   2.438   8.244   3.109
19821WAT     H159705   2.480   8.223   3.021
19821WAT     H259706   2.442   8.343   3.126
19822WAT      O59707   5.903   8.401   8.892
19822WAT     H159708   5.816   8.431   8.853
19822WAT     H259709   5.895   8.396   8.992
19823WAT      O59710   0.562   5.980   4.121
19823WAT     H159711   0.590   6.075   4.120
19823WAT     H259712   0.501   5.963   4.198
19824WAT      O59713   8.309   1.294   5.507
19824WAT     H159714   8.236   1.317   5.441
19824WAT     H259715   8.268   1.278   5.597
19825WAT      O59716   4.879   7.911   5.336
19825WAT     H159717   4.909   7.838   5.398
19825WAT     H259718   4.843   7.870   5.252
19826WAT      O59719   4.525   4.213   2.390
19826WAT     H159720   4.562   4.257   2.308
19826WAT     H259721   4.479   4.128   2.363
19827WAT      O59722   0.652   1.330   9.215
19827WAT     H159723   0.602   1.247   9.240
19827WAT     H259724   0.617   1.408   9.267
19828WAT      O59725   4.332   4.933   0.287
19828WAT     H159726   4.241   4.959   0.253
19828WAT     H259727   4.324   4.851   0.344
19829WAT      O59728   5.614   2.380   5.713
19829WAT     H159729   5.556   2.458   5.689
19829WAT     H259730   5.557   2.300   5.731
19830WAT      O59731   7.565   3.527   8.873
19830WAT     H159732   7.600   3.601   8.815
19830WAT     H259733   7.561   3.443   8.819
19831WAT      O59734   8.445   5.809   2.221
19831WAT     H159735   8.368   5.833   2.280
19831WAT     H259736   8.474   5.890   2.170
19832WAT      O59737   0.198   9.532   0.292
19832WAT     H159738   0.170   9.518   0.387
19832WAT     H259739   0.260   9.459   0.264
19833WAT      O59740   4.169   6.496   5.598
19833WAT     H159741   4.239   6.519   5.530
19833WAT     H259742   4.108   6.427   5.561
19834WAT      O59743   0.372   8.924   9.325
19834WAT     H159744   0.338   9.017   9.341
19834WAT     H259745   0.461   8.928   9.279
19835WAT      O59746   8.720   0.233   1.790
19835WAT     H159747   8.732   0.322   1.834
19835WAT     H259748   8.679   0.169   1.855
19836WAT      O59749   4.801   0.455   0.890
19836WAT     H159750   4.721   0.428   0.836
19836WAT     H259751   4.778   0.538   0.942
19837WAT      O59752   1.909   8.121   4.528
19837WAT     H159753   1.974   8.062   4.481
19837WAT     H259754   1.818   8.079   4.524
19838WAT      O59755   6.069   5.379   2.243
19838WAT     H159756   5.984   5.392   2.295
19838WAT     H259757   6.088   5.282   2.233
19839WAT      O59758   3.723   1.284   0.745
19839WAT     H159759   3.702   1.245   0.656
19839WAT     H259760   3.818   1.315   0.746
19840WAT      O59761   7.221   8.447   6.559
19840WAT     H159762   7.252   8.438   6.464
19840WAT     H259763   7.298   8.472   6.618
19841WAT      O59764   3.752   3.365   1.192
19841WAT     H159765   3.755   3.292   1.124
19841WAT     H259766   3.730   3.326   1.281
19842WAT      O59767   9.551   5.622   0.232
19842WAT     H159768   9.459   5.649   0.259
19842WAT     H259769   9.548   5.541   0.174
19843WAT      O59770   2.631   0.787   6.393
19843WAT     H159771   2.656   0.883   6.403
19843WAT     H259772   2.537   0.773   6.423
19844WAT      O59773   1.367   9.481   5.151
19844WAT     H159774   1.360   9.571   5.107
19844WAT     H259775   1.294   9.471   5.218
19845WAT      O59776   8.624   2.254   2.577
19845WAT     H159777   8.642   2.254   2.478
19845WAT     H259778   8.707   2.228   2.626
19846WAT      O59779   7.330   7.177   4.894
19846WAT     H159780   7.321   7.151   4.991
19846WAT     H259781   7.339   7.276   4.887
19847WAT      O59782   7.646   5.476   9.145
19847WAT     H159783   7.665   5.503   9.050
19847WAT     H259784   7.729   5.443   9.188
19848WAT      O59785   1.224   9.494   9.796
19848WAT     H159786   1.261   9.495   9.889
19848WAT     H259787   1.271   9.424   9.743
19849WAT      O59788   0.481   3.000   8.512
19849WAT     H159789   0.482   3.091   8.471
19849WAT     H259790   0.514   3.006   8.607
19850WAT      O59791   5.439   0.433   6.628
19850WAT     H159792   5.403   0.469   6.542
19850WAT     H259793   5.474   0.509   6.683
19851WAT      O59794   2.261   4.769   0.727
19851WAT     H159795   2.266   4.835   0.651
19851WAT     H259796   2.226   4.814   0.808
19852WAT      O59797   2.930   5.335   7.523
19852WAT     H159798   2.875   5.260   7.561
19852WAT     H259799   2.870   5.411   7.499
19853WAT      O59800   2.960   2.522   0.054
19853WAT     H159801   3.043   2.568   0.085
19853WAT     H259802   2.902   2.588   0.007
19854WAT      O59803   8.078   5.243   8.743
19854WAT     H159804   8.025   5.276   8.665
19854WAT     H259805   8.175   5.266   8.729
19855WAT      O59806   8.937   3.812   3.004
19855WAT     H159807   9.001   3.735   2.997
19855WAT     H259808   8.976   3.891   2.957
19856WAT      O59809   1.901   0.795   6.403
19856WAT     H159810   1.811   0.752   6.402
19856WAT     H259811   1.952   0.766   6.484
19857WAT      O59812   4.832   2.777   8.975
19857WAT     H159813   4.849   2.777   9.074
19857WAT     H259814   4.828   2.871   8.942
19858WAT      O59815   5.850   2.448   0.725
19858WAT     H159816   5.915   2.440   0.649
19858WAT     H259817   5.825   2.357   0.757
19859WAT      O59818   7.995   3.884   3.198
19859WAT     H159819   8.013   3.787   3.209
19859WAT     H259820   7.901   3.896   3.165
19860WAT      O59821   2.486   2.092   2.061
19860WAT     H159822   2.445   2.179   2.086
19860WAT     H259823   2.547   2.104   1.982
19861WAT      O59824   2.186   3.159   3.268
19861WAT     H159825   2.209   3.197   3.178
19861WAT     H259826   2.094   3.119   3.264
19862WAT      O59827   1.240   5.109   7.542
19862WAT     H159828   1.286   5.040   7.597
19862WAT     H259829   1.141   5.102   7.554
19863WAT      O59830   9.391   8.124   3.641
19863WAT     H159831   9.364   8.178   3.561
19863WAT     H259832   9.345   8.159   3.722
19864WAT      O59833   7.634   7.501   3.612
19864WAT     H159834   7.590   7.568   3.672
19864WAT     H259835   7.675   7.429   3.668
19865WAT      O59836   9.664   8.806   6.045
19865WAT     H159837   9.658   8.743   6.122
19865WAT     H259838   9.697   8.758   5.964
19866WAT      O59839   6.618   9.527   3.418
19866WAT     H159840   6.688   9.536   3.489
19866WAT     H259841   6.643   9.453   3.356
19867WAT      O59842   9.195   1.929   5.875
19867WAT     H159843   9.157   2.004   5.822
19867WAT     H259844   9.246   1.868   5.815
19868WAT      O59845   1.476   3.822   3.996
19868WAT     H159846   1.546   3.894   3.990
19868WAT     H259847   1.521   3.734   4.009
19869WAT      O59848   1.438   7.905   9.295
19869WAT     H159849   1.406   7.920   9.388
19869WAT     H259850   1.383   7.960   9.232
19870WAT      O59851   3.208   3.530   0.898
19870WAT     H159852   3.144   3.492   0.964
19870WAT     H259853   3.297   3.485   0.908
19871WAT      O59854   2.434   1.088   3.023
19871WAT     H159855   2.463   1.182   3.005
19871WAT     H259856   2.487   1.051   3.099
19872WAT      O59857   4.929   9.104   3.513
19872WAT     H159858   4.964   9.190   3.473
19872WAT     H259859   4.998   9.067   3.575
19873WAT      O59860   5.615   4.764   1.987
19873WAT     H159861   5.523   4.792   1.957
19873WAT     H259862   5.643   4.821   2.064
19874WAT      O59863   4.112   1.369   3.532
19874WAT     H159864   4.102   1.468   3.539
19874WAT     H259865   4.164   1.346   3.449
19875WAT      O59866   5.805   7.906   9.844
19875WAT     H159867   5.873   7.918   9.771
19875WAT     H259868   5.850   7.909   9.933
19876WAT      O59869   7.828   6.061   3.488
19876WAT     H159870   7.741   6.017   3.465
19876WAT     H259871   7.904   6.008   3.449
19877WAT      O59872   6.571   2.437   0.058
19877WAT     H159873   6.626   2.520   0.067
19877WAT     H259874   6.537   2.430  -0.036
19878WAT      O59875   2.465   7.301   2.056
19878WAT     H159876   2.471   7.223   1.995
19878WAT     H259877   2.448   7.269   2.150
19879WAT      O59878   1.353   2.399   2.247
19879WAT     H159879   1.354   2.340   2.327
19879WAT     H259880   1.277   2.372   2.187
19880WAT      O59881   9.488   0.352   2.406
19880WAT     H159882   9.458   0.402   2.487
19880WAT     H259883   9.416   0.353   2.337
19881WAT      O59884   0.779   5.580   9.662
19881WAT     H159885   0.763   5.670   9.701
19881WAT     H259886   0.870   5.578   9.619
19882WAT      O59887   6.739   0.600   2.718
19882WAT     H159888   6.718   0.673   2.783
19882WAT     H259889   6.699   0.514   2.751
19883WAT      O59890   1.721   3.638   7.959
19883WAT     H159891   1.658   3.568   7.993
19883WAT     H259892   1.672   3.725   7.950
19884WAT      O59893   3.820   2.378   5.057
19884WAT     H159894   3.848   2.354   5.150
19884WAT     H259895   3.892   2.432   5.013
19885WAT      O59896   2.097   5.844   8.467
19885WAT     H159897   2.087   5.901   8.549
19885WAT     H259898   2.193   5.839   8.441
19886WAT      O59899   0.893   3.383   7.832
19886WAT     H159900   0.856   3.380   7.739
19886WAT     H259901   0.957   3.460   7.840
19887WAT      O59902   7.982   1.598   5.225
19887WAT     H159903   7.934   1.514   5.199
19887WAT     H259904   8.072   1.600   5.182
19888WAT      O59905   0.676   4.760   9.675
19888WAT     H159906   0.774   4.754   9.694
19888WAT     H259907   0.637   4.840   9.720
19889WAT      O59908   1.644   5.109   8.483
19889WAT     H159909   1.726   5.166   8.476
19889WAT     H259910   1.575   5.143   8.419
19890WAT      O59911   5.437   4.115   6.021
19890WAT     H159912   5.373   4.085   5.951
19890WAT     H259913   5.520   4.059   6.017
19891WAT      O59914   2.946   1.028   7.805
19891WAT     H159915   3.032   0.976   7.812
19891WAT     H259916   2.907   1.041   7.896
19892WAT      O59917   7.505   6.182   9.605
19892WAT     H159918   7.472   6.235   9.684
19892WAT     H259919   7.436   6.185   9.533
19893WAT      O59920   4.324   2.221   6.606
19893WAT     H159921   4.349   2.317   6.592
19893WAT     H259922   4.315   2.176   6.517
19894WAT      O59923   2.598   7.681   9.680
19894WAT     H159924   2.542   7.603   9.650
19894WAT     H259925   2.553   7.766   9.651
19895WAT      O59926   5.647   6.225   3.346
19895WAT     H159927   5.658   6.311   3.396
19895WAT     H259928   5.663   6.148   3.409
19896WAT      O59929   0.518   4.731   8.679
19896WAT     H159930   0.470   4.648   8.707
19896WAT     H259931   0.495   4.805   8.742
19897WAT      O59932   7.344   7.328   7.838
19897WAT     H159933   7.274   7.381   7.887
19897WAT     H259934   7.315   7.233   7.833
19898WAT      O59935   0.425   5.877   4.789
19898WAT     H159936   0.328   5.855   4.781
19898WAT     H259937   0.452   5.876   4.885
19899WAT      O59938   6.561   7.924   7.876
19899WAT     H159939   6.546   7.876   7.790
19899WAT     H259940   6.526   7.869   7.952
19900WAT      O59941   4.733   3.726   2.351
19900WAT     H159942   4.707   3.629   2.358
19900WAT     H259943   4.676   3.771   2.283
19901WAT      O59944   9.122   1.835   1.623
19901WAT     H159945   9.037   1.883   1.644
19901WAT     H259946   9.196   1.901   1.611
19902WAT      O59947   3.378   0.824   5.867
19902WAT     H159948   3.349   0.861   5.779
19902WAT     H259949   3.302   0.829   5.932
19903WAT      O59950   6.759   1.585   3.213
19903WAT     H159951   6.700   1.586   3.132
19903WAT     H259952   6.786   1.490   3.233
19904WAT      O59953   8.725   9.697   9.632
19904WAT     H159954   8.653   9.683   9.700
19904WAT     H259955   8.705   9.780   9.580
19905WAT      O59956   6.752   9.796   6.390
19905WAT     H159957   6.655   9.795   6.417
19905WAT     H259958   6.800   9.867   6.441
19906WAT      O59959   7.176   4.218   1.319
19906WAT     H159960   7.098   4.233   1.260
19906WAT     H259961   7.186   4.296   1.382
19907WAT      O59962   9.814   8.995   9.790
19907WAT     H159963   9.900   9.039   9.814
19907WAT     H259964   9.833   8.906   9.748
19908WAT      O59965   3.263   1.208   0.433
19908WAT     H159966   3.164   1.220   0.423
19908WAT     H259967   3.302   1.287   0.481
19909WAT      O59968   6.409   3.749   3.881
19909WAT     H159969   6.387   3.844   3.906
19909WAT     H259970   6.351   3.720   3.805
19910WAT      O59971   0.555   9.537   8.151
19910WAT     H159972   0.641   9.565   8.108
19910WAT     H259973   0.479   9.570   8.095
19911WAT      O59974   7.740   3.700   6.962
19911WAT     H159975   7.759   3.745   7.049
19911WAT     H259976   7.817   3.642   6.937
19912WAT      O59977   7.411   4.857   5.590
19912WAT     H159978   7.364   4.833   5.506
19912WAT     H259979   7.483   4.924   5.570
19913WAT      O59980   2.947   8.451   3.588
19913WAT     H159981   2.849   8.466   3.576
19913WAT     H259982   2.985   8.409   3.505
19914WAT      O59983   5.110   7.165   7.794
19914WAT     H159984   5.046   7.091   7.812
19914WAT     H259985   5.066   7.233   7.735
19915WAT      O59986   5.587   7.899   8.447
19915WAT     H159987   5.644   7.894   8.529
19915WAT     H259988   5.639   7.867   8.368
19916WAT      O59989   7.175   4.159   7.010
19916WAT     H159990   7.096   4.210   7.045
19916WAT     H259991   7.158   4.132   6.915
19917WAT      O59992   5.384   3.928   3.484
19917WAT     H159993   5.466   3.871   3.483
19917WAT     H259994   5.408   4.022   3.508
19918WAT      O59995   4.826   9.565   3.491
19918WAT     H159996   4.775   9.641   3.531
19918WAT     H259997   4.859   9.591   3.400
19919WAT      O59998   4.451   9.796   5.891
19919WAT     H159999   4.481   9.886   5.861
19919WAT     H260000   4.530   9.739   5.912
19920WAT      O60001   0.193   1.803   3.240
19920WAT     H160002   0.197   1.710   3.276
19920WAT     H260003   0.224   1.867   3.310
19921WAT      O60004   0.837   6.432   4.648
19921WAT     H160005   0.884   6.477   4.573
19921WAT     H260006   0.885   6.348   4.672
19922WAT      O60007   3.503   1.849   1.736
19922WAT     H160008   3.580   1.866   1.674
19922WAT     H260009   3.474   1.935   1.778
19923WAT      O60010   1.756   1.951   6.376
19923WAT     H160011   1.791   2.033   6.421
19923WAT     H260012   1.830   1.887   6.359
19924WAT      O60013   2.302   0.330   6.568
19924WAT     H160014   2.259   0.416   6.594
19924WAT     H260015   2.282   0.311   6.472
19925WAT      O60016   8.082   3.694   9.846
19925WAT     H160017   8.137   3.612   9.864
19925WAT     H260018   8.011   3.672   9.779
19926WAT      O60019   8.006   5.739   1.156
19926WAT     H160020   8.025   5.720   1.060
19926WAT     H260021   7.949   5.665   1.193
19927WAT      O60022   6.865   2.573   4.237
19927WAT     H160023   6.817   2.633   4.301
19927WAT     H260024   6.863   2.479   4.272
19928WAT      O60025   8.739   1.652   3.472
19928WAT     H160026   8.788   1.692   3.549
19928WAT     H260027   8.797   1.653   3.390
19929WAT      O60028   3.878   0.582   6.307
19929WAT     H160029   3.822   0.656   6.270
19929WAT     H260030   3.962   0.621   6.345
19930WAT      O60031   5.189   5.227   4.285
19930WAT     H160032   5.217   5.320   4.262
19930WAT     H260033   5.246   5.162   4.235
19931WAT      O60034   4.290   6.792   5.066
19931WAT     H160035   4.265   6.887   5.053
19931WAT     H260036   4.209   6.734   5.054
19932WAT      O60037   9.647   3.565   5.396
19932WAT     H160038   9.551   3.553   5.421
19932WAT     H260039   9.668   3.506   5.318
19933WAT      O60040   3.601   5.746   3.160
19933WAT     H160041   3.517   5.708   3.199
19933WAT     H260042   3.630   5.824   3.214
19934WAT      O60043   3.669   8.077   2.960
19934WAT     H160044   3.615   8.073   2.876
19934WAT     H260045   3.730   7.997   2.963
19935WAT      O60046   9.017   9.731   1.778
19935WAT     H160047   8.956   9.651   1.781
19935WAT     H260048   9.029   9.767   1.870
19936WAT      O60049   0.275   7.328   6.804
19936WAT     H160050   0.292   7.295   6.897
19936WAT     H260051   0.184   7.369   6.798
19937WAT      O60052   9.588   0.238   8.178
19937WAT     H160053   9.509   0.177   8.176
19937WAT     H260054   9.559   0.331   8.156
19938WAT      O60055   5.600   2.665   8.560
19938WAT     H160056   5.538   2.740   8.580
19938WAT     H260057   5.651   2.684   8.477
19939WAT      O60058   3.288   2.765   4.453
19939WAT     H160059   3.249   2.800   4.538
19939WAT     H260060   3.229   2.790   4.376
19940WAT      O60061   3.233   5.305   5.187
19940WAT     H160062   3.247   5.384   5.127
19940WAT     H260063   3.234   5.335   5.282
19941WAT      O60064   5.523   1.021   1.611
19941WAT     H160065   5.457   1.026   1.686
19941WAT     H260066   5.519   1.106   1.558
19942WAT      O60067   5.866   2.142   2.228
19942WAT     H160068   5.768   2.154   2.246
19942WAT     H260069   5.881   2.051   2.189
19943WAT      O60070   5.065   2.212   1.888
19943WAT     H160071   5.131   2.258   1.947
19943WAT     H260072   5.048   2.267   1.806
19944WAT      O60073   7.091   2.676   4.128
19944WAT     H160074   7.154   2.691   4.204
19944WAT     H260075   6.998   2.664   4.164
19945WAT      O60076   8.947   0.208   4.836
19945WAT     H160077   8.975   0.285   4.894
19945WAT     H260078   8.873   0.158   4.880
19946WAT      O60079   8.489   0.533   6.918
19946WAT     H160080   8.458   0.616   6.873
19946WAT     H260081   8.585   0.515   6.894
19947WAT      O60082   2.516   8.526   6.471
19947WAT     H160083   2.570   8.442   6.473
19947WAT     H260084   2.538   8.578   6.389
19948WAT      O60085   9.184   5.943   9.804
19948WAT     H160086   9.253   5.949   9.877
19948WAT     H260087   9.123   6.022   9.811
19949WAT      O60088   2.301   7.081   5.672
19949WAT     H160089   2.304   7.033   5.584
19949WAT     H260090   2.242   7.031   5.735
19950WAT      O60091   8.875   6.052   2.567
19950WAT     H160092   8.880   6.039   2.468
19950WAT     H260093   8.821   6.134   2.587
19951WAT      O60094   7.542   1.157   3.668
19951WAT     H160095   7.487   1.213   3.606
19951WAT     H260096   7.623   1.124   3.621
19952WAT      O60097   1.020   4.214   1.978
19952WAT     H160098   0.957   4.290   1.994
19952WAT     H260099   1.085   4.208   2.054
19953WAT      O60100   9.274   0.227   0.413
19953WAT     H160101   9.356   0.183   0.375
19953WAT     H260102   9.198   0.217   0.348
19954WAT      O60103   7.628   7.174   9.342
19954WAT     H160104   7.704   7.165   9.407
19954WAT     H260105   7.637   7.260   9.292
19955WAT      O60106   6.098   5.208   0.528
19955WAT     H160107   6.169   5.174   0.590
19955WAT     H260108   6.066   5.297   0.561
19956WAT      O60109   9.052   3.386   7.496
19956WAT     H160110   9.079   3.391   7.592
19956WAT     H260111   9.126   3.347   7.442
19957WAT      O60112   9.022   8.718   0.538
19957WAT     H160113   9.091   8.788   0.555
19957WAT     H260114   9.033   8.644   0.604
19958WAT      O60115   2.469   1.028   2.595
19958WAT     H160116   2.375   1.051   2.622
19958WAT     H260117   2.499   0.946   2.644
19959WAT      O60118   5.350   7.379   3.341
19959WAT     H160119   5.331   7.340   3.251
19959WAT     H260120   5.425   7.445   3.333
19960WAT      O60121   9.217   2.178   8.797
19960WAT     H160122   9.222   2.171   8.698
19960WAT     H260123   9.303   2.217   8.832
19961WAT      O60124   8.627   2.470   1.218
19961WAT     H160125   8.628   2.464   1.318
19961WAT     H260126   8.624   2.379   1.179
19962WAT      O60127   6.779   0.075   0.728
19962WAT     H160128   6.684   0.055   0.753
19962WAT     H260129   6.781   0.147   0.658
19963WAT      O60130   6.159   4.892   7.365
19963WAT     H160131   6.200   4.939   7.287
19963WAT     H260132   6.221   4.822   7.399
19964WAT      O60133   5.967   5.131   2.721
19964WAT     H160134   6.006   5.222   2.708
19964WAT     H260135   5.957   5.113   2.819
19965WAT      O60136   0.816   1.879   4.588
19965WAT     H160137   0.738   1.817   4.598
19965WAT     H260138   0.808   1.928   4.501
19966WAT      O60139   5.362   2.396   8.468
19966WAT     H160140   5.353   2.495   8.473
19966WAT     H260141   5.460   2.372   8.465
19967WAT      O60142   9.076   2.413   5.379
19967WAT     H160143   8.977   2.400   5.385
19967WAT     H260144   9.107   2.397   5.286
19968WAT      O60145   8.965   1.469   9.275
19968WAT     H160146   8.925   1.414   9.202
19968WAT     H260147   8.960   1.419   9.361
19969WAT      O60148   0.088   3.959   7.647
19969WAT     H160149   0.058   3.869   7.681
19969WAT     H260150   0.021   3.994   7.582
19970WAT      O60151   8.441   8.332   6.765
19970WAT     H160152   8.417   8.248   6.717
19970WAT     H260153   8.411   8.411   6.712
19971WAT      O60154   1.373   6.231   8.280
19971WAT     H160155   1.433   6.302   8.317
19971WAT     H260156   1.362   6.244   8.181
19972WAT      O60157   8.952   7.822   1.323
19972WAT     H160158   8.983   7.728   1.325
19972WAT     H260159   8.995   7.874   1.397
19973WAT      O60160   3.067   8.909   1.695
19973WAT     H160161   2.993   8.883   1.632
19973WAT     H260162   3.027   8.940   1.782
19974WAT      O60163   0.652   8.891   3.989
19974WAT     H160164   0.579   8.832   3.955
19974WAT     H260165   0.710   8.840   4.052
19975WAT      O60166   7.959   4.935   3.725
19975WAT     H160167   8.035   4.872   3.708
19975WAT     H260168   7.876   4.882   3.743
19976WAT      O60169   2.983   2.303   6.700
19976WAT     H160170   2.939   2.372   6.643
19976WAT     H260171   2.921   2.278   6.776
19977WAT      O60172   4.325   4.422   7.744
19977WAT     H160173   4.248   4.444   7.685
19977WAT     H260174   4.362   4.506   7.783
19978WAT      O60175   3.515   1.441   8.521
19978WAT     H160176   3.428   1.477   8.488
19978WAT     H260177   3.590   1.491   8.478
19979WAT      O60178   7.024   6.071   7.448
19979WAT     H160179   7.054   6.022   7.365
19979WAT     H260180   7.027   6.008   7.526
19980WAT      O60181   0.506   7.353   9.507
19980WAT     H160182   0.502   7.326   9.603
19980WAT     H260183   0.441   7.298   9.454
19981WAT      O60184   0.754   7.740   2.029
19981WAT     H160185   0.805   7.814   1.986
19981WAT     H260186   0.731   7.765   2.123
19982WAT      O60187   7.179   8.727   3.492
19982WAT     H160188   7.111   8.796   3.517
19982WAT     H260189   7.246   8.767   3.429
19983WAT      O60190   3.823   3.231   9.097
19983WAT     H160191   3.750   3.199   9.157
19983WAT     H260192   3.797   3.319   9.057
19984WAT      O60193   8.835   4.833   8.206
19984WAT     H160194   8.921   4.797   8.240
19984WAT     H260195   8.792   4.766   8.146
19985WAT      O60196   5.614   7.540   0.259
19985WAT     H160197   5.639   7.535   0.355
19985WAT     H260198   5.696   7.531   0.202
19986WAT      O60199   6.551   7.170   4.020
19986WAT     H160200   6.480   7.104   3.994
19986WAT     H260201   6.575   7.227   3.941
19987WAT      O60202   7.484   4.617   4.658
19987WAT     H160203   7.387   4.625   4.635
19987WAT     H260204   7.494   4.563   4.741
19988WAT      O60205   8.507   6.074   8.403
19988WAT     H160206   8.607   6.082   8.394
19988WAT     H260207   8.485   5.999   8.466
19989WAT      O60208   0.022   7.204   3.190
19989WAT     H160209  -0.047   7.168   3.127
19989WAT     H260210  -0.014   7.203   3.283
19990WAT      O60211   3.550   7.290   5.212
19990WAT     H160212   3.614   7.216   5.229
19990WAT     H260213   3.456   7.254   5.211
19991WAT      O60214   7.202   9.203   7.478
19991WAT     H160215   7.215   9.213   7.379
19991WAT     H260216   7.167   9.288   7.516
19992WAT      O60217   0.229   2.455   9.270
19992WAT     H160218   0.207   2.496   9.182
19992WAT     H260219   0.151   2.401   9.302
19993WAT      O60220   5.569   4.326   8.281
19993WAT     H160221   5.497   4.265   8.247
19993WAT     H260222   5.546   4.420   8.258
19994WAT      O60223   4.447   1.701   6.522
19994WAT     H160224   4.462   1.627   6.456
19994WAT     H260225   4.349   1.711   6.539
19995WAT      O60226   4.661   4.556   8.191
19995WAT     H160227   4.640   4.459   8.199
19995WAT     H260228   4.609   4.595   8.115
19996WAT      O60229   7.032   0.038   3.315
19996WAT     H160230   7.112  -0.012   3.281
19996WAT     H260231   6.956   0.026   3.251
19997WAT      O60232   1.321   7.417   2.752
19997WAT     H160233   1.372   7.389   2.671
19997WAT     H260234   1.274   7.504   2.733
19998WAT      O60235   1.703   8.016   8.242
19998WAT     H160236   1.674   7.920   8.247
19998WAT     H260237   1.714   8.043   8.146
19999WAT      O60238   6.499   7.754   6.988
19999WAT     H160239   6.436   7.823   7.022
19999WAT     H260240   6.462   7.714   6.904
20000WAT      O60241   7.342   8.080   4.816
20000WAT     H160242   7.301   8.015   4.880
20000WAT     H260243   7.273   8.146   4.787
20001WAT      O60244   5.994   2.716   4.974
20001WAT     H160245   6.018   2.755   4.885
20001WAT     H260246   5.895   2.699   4.977
20002WAT      O60247   5.582   1.144   9.245
20002WAT     H160248   5.503   1.153   9.305
20002WAT     H260249   5.660   1.107   9.296
20003WAT      O60250   4.107   2.107   1.095
20003WAT     H160251   4.200   2.071   1.088
20003WAT     H260252   4.041   2.038   1.064
20004WAT      O60253   1.861   6.210   7.683
20004WAT     H160254   1.871   6.210   7.782
20004WAT     H260255   1.771   6.246   7.659
20005WAT      O60256   4.655   0.057   1.587
20005WAT     H160257   4.723   0.070   1.660
20005WAT     H260258   4.677   0.115   1.510
20006WAT      O60259   7.432   7.252   7.162
20006WAT     H160260   7.492   7.258   7.082
20006WAT     H260261   7.487   7.247   7.245
20007WAT      O60262   3.945   7.968   6.459
20007WAT     H160263   4.001   8.036   6.506
20007WAT     H260264   3.983   7.951   6.368
20008WAT      O60265   9.605   6.885   3.412
20008WAT     H160266   9.574   6.827   3.336
20008WAT     H260267   9.586   6.980   3.390
20009WAT      O60268   9.527   4.998   3.035
20009WAT     H160269   9.466   5.044   3.100
20009WAT     H260270   9.621   5.031   3.049
20010WAT      O60271   3.674   6.365   8.368
20010WAT     H160272   3.635   6.410   8.288
20010WAT     H260273   3.774   6.374   8.365
20011WAT      O60274   8.098   5.401   8.151
20011WAT     H160275   8.003   5.427   8.168
20011WAT     H260276   8.156   5.440   8.222
20012WAT      O60277   7.669   9.481   8.138
20012WAT     H160278   7.594   9.486   8.203
20012WAT     H260279   7.755   9.504   8.184
20013WAT      O60280   7.452   3.301   8.323
20013WAT     H160281   7.524   3.368   8.345
20013WAT     H260282   7.494   3.215   8.294
20014WAT      O60283   6.229   4.059   8.765
20014WAT     H160284   6.138   4.020   8.752
20014WAT     H260285   6.295   4.011   8.709
20015WAT      O60286   6.162   6.766   5.596
20015WAT     H160287   6.113   6.852   5.609
20015WAT     H260288   6.188   6.729   5.686
20016WAT      O60289   1.882   4.916   8.413
20016WAT     H160290   1.830   4.980   8.470
20016WAT     H260291   1.971   4.898   8.455
20017WAT      O60292   9.638   8.109   3.547
20017WAT     H160293   9.711   8.148   3.604
20017WAT     H260294   9.550   8.123   3.592
20018WAT      O60295   5.298   9.509   9.501
20018WAT     H160296   5.294   9.507   9.601
20018WAT     H260297   5.271   9.600   9.468
20019WAT      O60298   3.754   6.681   9.549
20019WAT     H160299   3.755   6.718   9.456
20019WAT     H260300   3.659   6.664   9.577
20020WAT      O60301   4.681   9.275   8.361
20020WAT     H160302   4.640   9.361   8.331
20020WAT     H260303   4.695   9.216   8.282
20021WAT      O60304   8.810   5.450   1.701
20021WAT     H160305   8.888   5.459   1.763
20021WAT     H260306   8.725   5.447   1.754
20022WAT      O60307   9.848   8.881   3.525
20022WAT     H160308   9.768   8.821   3.530
20022WAT     H260309   9.856   8.919   3.433
20023WAT      O60310   0.659   2.076   8.588
20023WAT     H160311   0.614   1.989   8.608
20023WAT     H260312   0.738   2.059   8.528
20024WAT      O60313   6.268   8.008   5.894
20024WAT     H160314   6.182   8.017   5.843
20024WAT     H260315   6.296   8.098   5.928
20025WAT      O60316   1.823   8.287   0.576
20025WAT     H160317   1.730   8.268   0.609
20025WAT     H260318   1.858   8.369   0.621
20026WAT      O60319   8.345   9.804   8.996
20026WAT     H160320   8.404   9.754   8.932
20026WAT     H260321   8.331   9.748   9.078
20027WAT      O60322   2.887   3.829   5.746
20027WAT     H160323   2.958   3.806   5.812
20027WAT     H260324   2.833   3.747   5.724
20028WAT      O60325   6.156   8.716   1.792
20028WAT     H160326   6.253   8.731   1.772
20028WAT     H260327   6.114   8.665   1.718
20029WAT      O60328   2.071   9.104   9.745
20029WAT     H160329   2.004   9.054   9.690
20029WAT     H260330   2.095   9.190   9.700
20030WAT      O60331   8.076   8.242   5.628
20030WAT     H160332   8.165   8.269   5.666
20030WAT     H260333   8.087   8.159   5.574
20031WAT      O60334   5.426   7.734   9.314
20031WAT     H160335   5.408   7.826   9.348
20031WAT     H260336   5.488   7.687   9.376
20032WAT      O60337   1.249   9.172   5.796
20032WAT     H160338   1.189   9.121   5.733
20032WAT     H260339   1.195   9.240   5.845
20033WAT      O60340   7.380   0.409   0.479
20033WAT     H160341   7.467   0.389   0.523
20033WAT     H260342   7.380   0.372   0.386
20034WAT      O60343   6.392   9.387   4.410
20034WAT     H160344   6.461   9.327   4.369
20034WAT     H260345   6.358   9.450   4.340
20035WAT      O60346   0.117   7.100   6.999
20035WAT     H160347   0.082   7.009   7.023
20035WAT     H260348   0.058   7.140   6.928
20036WAT      O60349   6.439   3.504   2.068
20036WAT     H160350   6.536   3.501   2.047
20036WAT     H260351   6.390   3.551   1.995
20037WAT      O60352   5.952   7.001   5.052
20037WAT     H160353   6.002   7.073   5.004
20037WAT     H260354   5.885   7.042   5.113
20038WAT      O60355   0.201   2.252   2.744
20038WAT     H160356   0.231   2.344   2.767
20038WAT     H260357   0.102   2.252   2.728
20039WAT      O60358   6.907   7.780   1.194
20039WAT     H160359   6.982   7.806   1.253
20039WAT     H260360   6.899   7.680   1.191
20040WAT      O60361   6.354   1.805   7.309
20040WAT     H160362   6.290   1.746   7.259
20040WAT     H260363   6.322   1.899   7.304
20041WAT      O60364   1.862   0.388   1.961
20041WAT     H160365   1.809   0.472   1.949
20041WAT     H260366   1.862   0.363   2.058
20042WAT      O60367   5.000   7.242   3.767
20042WAT     H160368   5.077   7.204   3.820
20042WAT     H260369   5.027   7.331   3.729
20043WAT      O60370   7.780   8.779   7.440
20043WAT     H160371   7.866   8.728   7.449
20043WAT     H260372   7.726   8.767   7.524
20044WAT      O60373   5.638   5.046   8.379
20044WAT     H160374   5.653   5.010   8.287
20044WAT     H260375   5.621   4.970   8.442
20045WAT      O60376   5.746   9.159   0.080
20045WAT     H160377   5.797   9.243   0.098
20045WAT     H260378   5.649   9.180   0.068
20046WAT      O60379   1.514   2.140   4.472
20046WAT     H160380   1.586   2.171   4.535
20046WAT     H260381   1.426   2.175   4.502
20047WAT      O60382   5.898   6.086   8.155
20047WAT     H160383   5.893   5.993   8.191
20047WAT     H260384   5.927   6.083   8.059
20048WAT      O60385   2.352   5.774   5.816
20048WAT     H160386   2.263   5.733   5.833
20048WAT     H260387   2.412   5.758   5.894
20049WAT      O60388   0.792   5.465   9.075
20049WAT     H160389   0.892   5.461   9.081
20049WAT     H260390   0.762   5.424   8.990
20050WAT      O60391   8.750   3.261   4.394
20050WAT     H160392   8.784   3.310   4.314
20050WAT     H260393   8.779   3.309   4.477
20051WAT      O60394   4.395   5.596   9.676
20051WAT     H160395   4.329   5.641   9.615
20051WAT     H260396   4.347   5.551   9.751
20052WAT      O60397   1.477   9.311   1.645
20052WAT     H160398   1.466   9.317   1.546
20052WAT     H260399   1.397   9.265   1.684
20053WAT      O60400   1.852   2.063   8.759
20053WAT     H160401   1.758   2.030   8.766
20053WAT     H260402   1.891   2.072   8.850
20054WAT      O60403   9.206   8.008   2.826
20054WAT     H160404   9.256   8.093   2.840
20054WAT     H260405   9.253   7.953   2.757
20055WAT      O60406   7.115   7.703   5.582
20055WAT     H160407   7.049   7.717   5.508
20055WAT     H260408   7.169   7.786   5.595
20056WAT      O60409   6.210   0.750   1.363
20056WAT     H160410   6.180   0.822   1.300
20056WAT     H260411   6.222   0.664   1.313
20057WAT      O60412   5.720   0.417   0.982
20057WAT     H160413   5.813   0.451   0.986
20057WAT     H260414   5.677   0.444   0.895
20058WAT      O60415   9.805   1.961   9.044
20058WAT     H160416   9.768   1.891   8.983
20058WAT     H260417   9.737   2.033   9.057
20059WAT      O60418   3.641   5.459   2.767
20059WAT     H160419   3.622   5.503   2.679
20059WAT     H260420   3.672   5.528   2.833
20060WAT      O60421   7.113   9.524   0.317
20060WAT     H160422   7.112   9.460   0.239
20060WAT     H260423   7.188   9.500   0.378
20061WAT      O60424   2.913   3.891   1.205
20061WAT     H160425   2.968   3.919   1.284
20061WAT     H260426   2.816   3.890   1.230
20062WAT      O60427   4.717   7.017   8.994
20062WAT     H160428   4.633   6.967   8.974
20062WAT     H260429   4.762   7.043   8.908
20063WAT      O60430   1.144   4.282   7.201
20063WAT     H160431   1.186   4.273   7.111
20063WAT     H260432   1.156   4.197   7.252
20064WAT      O60433   6.097   0.102   4.116
20064WAT     H160434   6.195   0.110   4.096
20064WAT     H260435   6.085   0.061   4.206
20065WAT      O60436   2.232   2.747   2.806
20065WAT     H160437   2.296   2.798   2.863
20065WAT     H260438   2.159   2.710   2.864
20066WAT      O60439   7.461   4.501   8.233
20066WAT     H160440   7.368   4.534   8.246
20066WAT     H260441   7.460   4.406   8.201
20067WAT      O60442   4.488   3.686   8.662
20067WAT     H160443   4.474   3.774   8.616
20067WAT     H260444   4.403   3.634   8.662
20068WAT      O60445   6.655   0.042   4.924
20068WAT     H160446   6.703   0.119   4.883
20068WAT     H260447   6.558   0.064   4.933
20069WAT      O60448   9.037   1.700   8.023
20069WAT     H160449   8.992   1.616   8.053
20069WAT     H260450   8.977   1.778   8.041
20070WAT      O60451   2.599   0.742   4.368
20070WAT     H160452   2.672   0.674   4.371
20070WAT     H260453   2.589   0.785   4.458
20071WAT      O60454   3.278   7.830   2.330
20071WAT     H160455   3.258   7.907   2.391
20071WAT     H260456   3.309   7.866   2.241
20072WAT      O60457   0.202   8.774   3.554
20072WAT     H160458   0.115   8.823   3.563
20072WAT     H260459   0.185   8.681   3.521
20073WAT      O60460   0.229   6.257   0.356
20073WAT     H160461   0.262   6.284   0.266
20073WAT     H260462   0.158   6.320   0.386
20074WAT      O60463   9.825   7.469   4.003
20074WAT     H160464   9.798   7.373   3.997
20074WAT     H260465   9.765   7.524   3.944
20075WAT      O60466   6.702   0.952   4.058
20075WAT     H160467   6.732   0.928   4.150
20075WAT     H260468   6.776   0.998   4.009
20076WAT      O60469   4.469   9.706   1.744
20076WAT     H160470   4.544   9.740   1.689
20076WAT     H260471   4.387   9.761   1.726
20077WAT      O60472   6.576   2.063   3.017
20077WAT     H160473   6.649   2.052   3.085
20077WAT     H260474   6.593   2.145   2.964
20078WAT      O60475   3.443   1.463   4.308
20078WAT     H160476   3.406   1.484   4.218
20078WAT     H260477   3.541   1.487   4.311
20079WAT      O60478   2.418   5.228   5.226
20079WAT     H160479   2.473   5.175   5.290
20079WAT     H260480   2.325   5.192   5.224
20080WAT      O60481   6.570   2.103   8.292
20080WAT     H160482   6.494   2.042   8.314
20080WAT     H260483   6.540   2.171   8.226
20081WAT      O60484   6.363   6.666   4.044
20081WAT     H160485   6.403   6.627   4.127
20081WAT     H260486   6.264   6.662   4.050
20082WAT      O60487   1.329   6.609   2.953
20082WAT     H160488   1.337   6.580   3.049
20082WAT     H260489   1.260   6.681   2.946
20083WAT      O60490   9.714   1.020   5.377
20083WAT     H160491   9.748   0.983   5.291
20083WAT     H260492   9.783   1.081   5.417
20084WAT      O60493   4.446   7.030   5.389
20084WAT     H160494   4.458   6.931   5.384
20084WAT     H260495   4.397   7.053   5.473
20085WAT      O60496   1.662   9.091   1.571
20085WAT     H160497   1.663   9.041   1.658
20085WAT     H260498   1.626   9.182   1.585
20086WAT      O60499   6.317   3.538   6.805
20086WAT     H160500   6.332   3.465   6.739
20086WAT     H260501   6.301   3.624   6.757
20087WAT      O60502   4.530   2.674   7.937
20087WAT     H160503   4.544   2.723   7.851
20087WAT     H260504   4.619   2.648   7.974
20088WAT      O60505   3.480   2.892   3.442
20088WAT     H160506   3.475   2.972   3.383
20088WAT     H260507   3.388   2.861   3.464
20089WAT      O60508   4.295   0.974   8.375
20089WAT     H160509   4.226   0.920   8.424
20089WAT     H260510   4.277   1.071   8.390
20090WAT      O60511   6.793   2.399   6.247
20090WAT     H160512   6.844   2.350   6.176
20090WAT     H260513   6.805   2.498   6.234
20091WAT      O60514   8.079   1.403   1.441
20091WAT     H160515   8.107   1.475   1.504
20091WAT     H260516   8.073   1.316   1.491
20092WAT      O60517   2.191   5.389   8.788
20092WAT     H160518   2.290   5.394   8.797
20092WAT     H260519   2.168   5.325   8.714
20093WAT      O60520   6.515   0.616   6.197
20093WAT     H160521   6.456   0.546   6.159
20093WAT     H260522   6.464   0.670   6.264
20094WAT      O60523   5.865   1.060   3.728
20094WAT     H160524   5.796   1.129   3.750
20094WAT     H260525   5.834   1.006   3.650
20095WAT      O60526   7.440   5.388   1.550
20095WAT     H160527   7.498   5.310   1.570
20095WAT     H260528   7.402   5.426   1.634
20096WAT      O60529   5.979   6.160   7.191
20096WAT     H160530   6.050   6.097   7.158
20096WAT     H260531   6.023   6.241   7.231
20097WAT      O60532   2.922   5.006   4.491
20097WAT     H160533   2.838   5.058   4.474
20097WAT     H260534   2.954   5.025   4.584
20098WAT      O60535   9.820   3.435   5.558
20098WAT     H160536   9.814   3.483   5.645
20098WAT     H260537   9.773   3.487   5.487
20099WAT      O60538   2.437   5.969   3.016
20099WAT     H160539   2.347   5.951   2.978
20099WAT     H260540   2.447   5.922   3.104
20100WAT      O60541   1.323   5.870   5.534
20100WAT     H160542   1.300   5.806   5.607
20100WAT     H260543   1.413   5.911   5.551
20101WAT      O60544   2.927   8.109   5.689
20101WAT     H160545   2.971   8.109   5.599
20101WAT     H260546   2.991   8.071   5.757
20102WAT      O60547   8.104   4.309   8.481
20102WAT     H160548   8.178   4.332   8.544
20102WAT     H260549   8.140   4.300   8.389
20103WAT      O60550   3.456   2.845   8.861
20103WAT     H160551   3.459   2.884   8.770
20103WAT     H260552   3.415   2.911   8.925
20104WAT      O60553   9.790   2.713   0.962
20104WAT     H160554   9.799   2.810   0.984
20104WAT     H260555   9.740   2.702   0.876
20105WAT      O60556   7.721   6.933   0.311
20105WAT     H160557   7.773   6.855   0.347
20105WAT     H260558   7.682   6.985   0.387
20106WAT      O60559   2.740   8.301   6.041
20106WAT     H160560   2.820   8.310   6.101
20106WAT     H260561   2.662   8.268   6.094
20107WAT      O60562   3.438   5.768   7.467
20107WAT     H160563   3.451   5.676   7.505
20107WAT     H260564   3.372   5.764   7.392
20108WAT      O60565   7.173   7.295   7.092
20108WAT     H160566   7.162   7.392   7.071
20108WAT     H260567   7.270   7.276   7.108
20109WAT      O60568   0.935   8.751   1.452
20109WAT     H160569   0.906   8.846   1.441
20109WAT     H260570   1.026   8.739   1.412
20110WAT      O60571   0.747   5.595   3.760
20110WAT     H160572   0.678   5.527   3.735
20110WAT     H260573   0.735   5.621   3.856
20111WAT      O60574   5.739   9.196   1.305
20111WAT     H160575   5.836   9.189   1.282
20111WAT     H260576   5.715   9.292   1.318
20112WAT      O60577   8.495   5.837   7.554
20112WAT     H160578   8.484   5.935   7.537
20112WAT     H260579   8.413   5.788   7.526
20113WAT      O60580   5.467   9.831   8.029
20113WAT     H160581   5.542   9.767   8.047
20113WAT     H260582   5.468   9.903   8.097
20114WAT      O60583   6.881   2.917   8.016
20114WAT     H160584   6.977   2.897   7.994
20114WAT     H260585   6.867   3.016   8.010
20115WAT      O60586   7.761   1.073   5.674
20115WAT     H160587   7.856   1.055   5.697
20115WAT     H260588   7.719   0.990   5.639
20116WAT      O60589   7.525   2.044   7.022
20116WAT     H160590   7.439   2.065   6.975
20116WAT     H260591   7.529   1.946   7.043
20117WAT      O60592   0.478   9.051   5.224
20117WAT     H160593   0.414   9.122   5.254
20117WAT     H260594   0.427   8.968   5.200
20118WAT      O60595   4.040   0.721   0.649
20118WAT     H160596   3.996   0.631   0.645
20118WAT     H260597   3.973   0.789   0.679
20119WAT      O60598   5.085   9.125   6.129
20119WAT     H160599   5.125   9.141   6.038
20119WAT     H260600   5.002   9.071   6.120
20120WAT      O60601   9.834   7.673   6.288
20120WAT     H160602   9.849   7.764   6.250
20120WAT     H260603   9.872   7.604   6.226
20121WAT      O60604   3.299   8.049   7.291
20121WAT     H160605   3.243   7.985   7.343
20121WAT     H260606   3.291   8.140   7.331
20122WAT      O60607   9.134   5.110   6.212
20122WAT     H160608   9.078   5.075   6.287
20122WAT     H260609   9.114   5.207   6.197
20123WAT      O60610   2.941   1.346   4.369
20123WAT     H160611   2.843   1.366   4.362
20123WAT     H260612   2.978   1.333   4.277
20124WAT      O60613   0.045   1.506   4.005
20124WAT     H160614  -0.041   1.506   4.055
20124WAT     H260615   0.031   1.542   3.913
20125WAT      O60616   6.195   8.879   1.339
20125WAT     H160617   6.119   8.944   1.340
20125WAT     H260618   6.281   8.929   1.326
20126WAT      O60619   5.609   5.450   6.893
20126WAT     H160620   5.685   5.465   6.956
20126WAT     H260621   5.628   5.497   6.807
20127WAT      O60622   0.840   0.610   2.033
20127WAT     H160623   0.936   0.594   2.010
20127WAT     H260624   0.782   0.582   1.956
20128WAT      O60625   5.163   2.275   9.010
20128WAT     H160626   5.116   2.351   9.055
20128WAT     H260627   5.231   2.312   8.946
20129WAT      O60628   7.786   4.871   5.770
20129WAT     H160629   7.693   4.907   5.780
20129WAT     H260630   7.829   4.910   5.689
20130WAT      O60631   4.950   5.084   3.622
20130WAT     H160632   4.861   5.084   3.576
20130WAT     H260633   4.963   4.996   3.669
20131WAT      O60634   0.854   5.739   8.930
20131WAT     H160635   0.757   5.736   8.952
20131WAT     H260636   0.907   5.733   9.015
20132WAT      O60637   2.197   9.720   6.292
20132WAT     H160638   2.177   9.622   6.285
20132WAT     H260639   2.208   9.758   6.201
20133WAT      O60640   0.715   5.303   9.565
20133WAT     H160641   0.722   5.292   9.466
20133WAT     H260642   0.683   5.395   9.586
20134WAT      O60643   5.183   3.318   9.294
20134WAT     H160644   5.194   3.385   9.220
20134WAT     H260645   5.106   3.346   9.352
20135WAT      O60646   6.116   8.551   9.885
20135WAT     H160647   6.088   8.474   9.828
20135WAT     H260648   6.047   8.624   9.878
20136WAT      O60649   1.692   0.234   0.718
20136WAT     H160650   1.784   0.242   0.756
20136WAT     H260651   1.661   0.324   0.688
20137WAT      O60652   0.684   7.668   8.312
20137WAT     H160653   0.722   7.760   8.321
20137WAT     H260654   0.641   7.658   8.222
20138WAT      O60655   5.111   5.142   6.811
20138WAT     H160656   5.064   5.197   6.879
20138WAT     H260657   5.195   5.103   6.850
20139WAT      O60658   1.126   3.971   8.814
20139WAT     H160659   1.034   3.943   8.840
20139WAT     H260660   1.180   3.891   8.788
20140WAT      O60661   3.640   8.054   2.121
20140WAT     H160662   3.550   8.011   2.125
20140WAT     H260663   3.684   8.032   2.034
20141WAT      O60664   6.110   4.105   3.768
20141WAT     H160665   6.140   4.187   3.719
20141WAT     H260666   6.029   4.127   3.822
20142WAT      O60667   6.710   8.895   1.508
20142WAT     H160668   6.696   8.802   1.542
20142WAT     H260669   6.687   8.960   1.580
20143WAT      O60670   8.097   4.988   6.831
20143WAT     H160671   8.115   4.907   6.775
20143WAT     H260672   8.025   5.043   6.788
20144WAT      O60673   9.749   1.441   7.361
20144WAT     H160674   9.816   1.387   7.410
20144WAT     H260675   9.657   1.413   7.387
20145WAT      O60676   7.626   5.180   4.458
20145WAT     H160677   7.657   5.238   4.534
20145WAT     H260678   7.529   5.197   4.440
20146WAT      O60679   2.194   7.057   6.235
20146WAT     H160680   2.125   7.081   6.166
20146WAT     H260681   2.254   6.985   6.199
20147WAT      O60682   0.324   5.001   9.182
20147WAT     H160683   0.384   5.078   9.202
20147WAT     H260684   0.366   4.943   9.112
20148WAT      O60685   1.253   9.514   2.972
20148WAT     H160686   1.176   9.460   3.006
20148WAT     H260687   1.322   9.523   3.044
20149WAT      O60688   8.180   1.777   9.726
20149WAT     H160689   8.208   1.861   9.771
20149WAT     H260690   8.087   1.788   9.689
20150WAT      O60691   8.871   0.387   3.145
20150WAT     H160692   8.796   0.321   3.152
20150WAT     H260693   8.958   0.338   3.139
20151WAT      O60694   9.134   5.647   2.842
20151WAT     H160695   9.134   5.634   2.743
20151WAT     H260696   9.087   5.733   2.864
20152WAT      O60697   7.497   9.732   3.677
20152WAT     H160698   7.538   9.761   3.591
20152WAT     H260699   7.495   9.632   3.682
20153WAT      O60700   5.797   2.634   6.614
20153WAT     H160701   5.865   2.692   6.660
20153WAT     H260702   5.818   2.629   6.517
20154WAT      O60703   8.190   1.707   3.075
20154WAT     H160704   8.175   1.787   3.018
20154WAT     H260705   8.122   1.637   3.052
20155WAT      O60706   3.578   7.597   4.785
20155WAT     H160707   3.479   7.607   4.776
20155WAT     H260708   3.604   7.504   4.760
20156WAT      O60709   5.281   2.997   3.735
20156WAT     H160710   5.256   2.979   3.830
20156WAT     H260711   5.343   2.926   3.702
20157WAT      O60712   1.631   0.370   8.284
20157WAT     H160713   1.658   0.405   8.195
20157WAT     H260714   1.608   0.446   8.345
20158WAT      O60715   9.327   0.728   6.747
20158WAT     H160716   9.280   0.656   6.696
20158WAT     H260717   9.426   0.718   6.736
20159WAT      O60718   3.029   2.290   5.768
20159WAT     H160719   3.009   2.313   5.673
20159WAT     H260720   2.954   2.322   5.826
20160WAT      O60721   4.386   2.010   2.970
20160WAT     H160722   4.391   2.090   2.911
20160WAT     H260723   4.358   1.931   2.916
20161WAT      O60724   7.624   5.021   5.552
20161WAT     H160725   7.707   4.995   5.504
20161WAT     H260726   7.646   5.087   5.624
20162WAT      O60727   3.766   4.478   3.130
20162WAT     H160728   3.834   4.511   3.196
20162WAT     H260729   3.812   4.442   3.049
20163WAT      O60730   6.327   6.936   3.725
20163WAT     H160731   6.337   6.976   3.634
20163WAT     H260732   6.271   6.853   3.719
20164WAT      O60733   5.413   2.743   5.869
20164WAT     H160734   5.354   2.683   5.923
20164WAT     H260735   5.504   2.747   5.911
20165WAT      O60736   2.337   3.279   0.283
20165WAT     H160737   2.272   3.352   0.260
20165WAT     H260738   2.331   3.207   0.214
20166WAT      O60739   2.777   6.135   7.704
20166WAT     H160740   2.823   6.211   7.658
20166WAT     H260741   2.748   6.067   7.636
20167WAT      O60742   6.119   4.094   9.819
20167WAT     H160743   6.131   4.193   9.823
20167WAT     H260744   6.207   4.049   9.838
20168WAT      O60745   2.865   4.194   9.327
20168WAT     H160746   2.957   4.183   9.290
20168WAT     H260747   2.801   4.141   9.272
20169WAT      O60748   5.494   7.752   0.106
20169WAT     H160749   5.521   7.667   0.151
20169WAT     H260750   5.503   7.740   0.007
20170WAT      O60751   2.609   7.716   7.545
20170WAT     H160752   2.559   7.691   7.628
20170WAT     H260753   2.552   7.695   7.465
20171WAT      O60754   4.870   2.608   5.024
20171WAT     H160755   4.884   2.515   4.991
20171WAT     H260756   4.782   2.643   4.991
20172WAT      O60757   2.766   8.872   0.340
20172WAT     H160758   2.777   8.808   0.264
20172WAT     H260759   2.848   8.929   0.347
20173WAT      O60760   2.904   5.049   8.301
20173WAT     H160761   2.894   5.022   8.397
20173WAT     H260762   2.938   5.143   8.296
20174WAT      O60763   2.545   6.881   6.370
20174WAT     H160764   2.643   6.899   6.379
20174WAT     H260765   2.525   6.854   6.276
20175WAT      O60766   9.229   9.663   4.626
20175WAT     H160767   9.165   9.587   4.617
20175WAT     H260768   9.314   9.641   4.577
20176WAT      O60769   2.787   7.727   7.082
20176WAT     H160770   2.712   7.792   7.098
20176WAT     H260771   2.865   7.776   7.043
20177WAT      O60772   6.468   2.762   3.139
20177WAT     H160773   6.535   2.755   3.214
20177WAT     H260774   6.432   2.855   3.136
20178WAT      O60775   0.553   3.771   5.452
20178WAT     H160776   0.545   3.724   5.540
20178WAT     H260777   0.639   3.823   5.450
20179WAT      O60778   7.311   2.192   2.535
20179WAT     H160779   7.366   2.217   2.456
20179WAT     H260780   7.368   2.146   2.603
20180WAT      O60781   3.475   8.888   0.489
20180WAT     H160782   3.376   8.885   0.480
20180WAT     H260783   3.516   8.814   0.437
20181WAT      O60784   5.096   8.451   9.768
20181WAT     H160785   5.060   8.394   9.842
20181WAT     H260786   5.148   8.394   9.704
20182WAT      O60787   2.591   7.460   1.422
20182WAT     H160788   2.667   7.498   1.475
20182WAT     H260789   2.509   7.457   1.479
20183WAT      O60790   7.526   7.163   5.911
20183WAT     H160791   7.529   7.073   5.868
20183WAT     H260792   7.496   7.153   6.006
20184WAT      O60793   4.701   0.780   3.875
20184WAT     H160794   4.684   0.763   3.973
20184WAT     H260795   4.614   0.795   3.829
20185WAT      O60796   7.565   4.936   2.801
20185WAT     H160797   7.466   4.943   2.787
20185WAT     H260798   7.595   5.006   2.865
20186WAT      O60799   9.579   2.715   7.306
20186WAT     H160800   9.611   2.799   7.264
20186WAT     H260801   9.516   2.668   7.244
20187WAT      O60802   9.772   8.408   1.641
20187WAT     H160803   9.866   8.442   1.651
20187WAT     H260804   9.739   8.376   1.730
20188WAT      O60805   3.353   7.478   3.656
20188WAT     H160806   3.296   7.555   3.684
20188WAT     H260807   3.448   7.507   3.649
20189WAT      O60808   6.980   7.648   8.499
20189WAT     H160809   7.063   7.702   8.516
20189WAT     H260810   7.006   7.559   8.460
20190WAT      O60811   1.068   6.227   5.048
20190WAT     H160812   1.041   6.274   5.132
20190WAT     H260813   1.014   6.262   4.972
20191WAT      O60814   8.022   0.788   8.779
20191WAT     H160815   8.087   0.864   8.787
20191WAT     H260816   8.059   0.718   8.719
20192WAT      O60817   6.037   8.033   3.993
20192WAT     H160818   6.059   8.095   4.068
20192WAT     H260819   5.990   8.083   3.920
20193WAT      O60820   4.971   6.261   8.094
20193WAT     H160821   4.931   6.303   8.175
20193WAT     H260822   5.055   6.309   8.070
20194WAT      O60823   5.282   5.528   1.546
20194WAT     H160824   5.276   5.568   1.638
20194WAT     H260825   5.275   5.600   1.478
20195WAT      O60826   3.127   0.004   1.316
20195WAT     H160827   3.068  -0.059   1.267
20195WAT     H260828   3.122   0.095   1.274
20196WAT      O60829   6.507   9.142   2.372
20196WAT     H160830   6.436   9.072   2.360
20196WAT     H260831   6.506   9.204   2.294
20197WAT      O60832   1.057   1.836   8.421
20197WAT     H160833   1.115   1.902   8.469
20197WAT     H260834   1.113   1.786   8.354
20198WAT      O60835   5.514   1.233   7.936
20198WAT     H160836   5.587   1.259   7.873
20198WAT     H260837   5.515   1.294   8.016
20199WAT      O60838   5.967   9.706   3.876
20199WAT     H160839   5.870   9.709   3.851
20199WAT     H260840   6.021   9.748   3.803
20200WAT      O60841   1.457   3.268   8.309
20200WAT     H160842   1.398   3.264   8.390
20200WAT     H260843   1.446   3.184   8.255
20201WAT      O60844   8.323   3.696   4.294
20201WAT     H160845   8.352   3.601   4.282
20201WAT     H260846   8.388   3.757   4.249
20202WAT      O60847   1.693   7.319   0.158
20202WAT     H160848   1.621   7.352   0.219
20202WAT     H260849   1.729   7.233   0.192
20203WAT      O60850   3.258   6.052   6.910
20203WAT     H160851   3.234   6.073   6.815
20203WAT     H260852   3.269   6.138   6.961
20204WAT      O60853   3.357   7.583   6.919
20204WAT     H160854   3.279   7.520   6.923
20204WAT     H260855   3.440   7.536   6.948
20205WAT      O60856   1.271   7.975   4.370
20205WAT     H160857   1.259   8.029   4.286
20205WAT     H260858   1.359   7.928   4.367
20206WAT      O60859   4.531   9.010   7.469
20206WAT     H160860   4.478   9.083   7.427
20206WAT     H260861   4.469   8.949   7.519
20207WAT      O60862   5.109   4.750   9.604
20207WAT     H160863   5.134   4.723   9.511
20207WAT     H260864   5.043   4.685   9.641
20208WAT      O60865   8.288   7.357   8.736
20208WAT     H160866   8.319   7.268   8.703
20208WAT     H260867   8.367   7.417   8.748
20209WAT      O60868   7.829   5.581   7.383
20209WAT     H160869   7.840   5.679   7.367
20209WAT     H260870   7.774   5.566   7.465
20210WAT      O60871   6.039   7.376   0.016
20210WAT     H160872   6.046   7.336  -0.075
20210WAT     H260873   6.052   7.304   0.085
20211WAT      O60874   9.451   7.949   0.810
20211WAT     H160875   9.501   7.923   0.727
20211WAT     H260876   9.498   7.912   0.890
20212WAT      O60877   2.012   1.052   3.575
20212WAT     H160878   1.954   0.972   3.590
20212WAT     H260879   2.080   1.031   3.505
20213WAT      O60880   4.452   2.111   0.053
20213WAT     H160881   4.394   2.137   0.129
20213WAT     H260882   4.425   2.162  -0.029
20214WAT      O60883   3.090   7.996   7.875
20214WAT     H160884   3.030   8.002   7.955
20214WAT     H260885   3.043   8.031   7.795
20215WAT      O60886   4.775   5.358   1.232
20215WAT     H160887   4.732   5.283   1.181
20215WAT     H260888   4.743   5.445   1.195
20216WAT      O60889   2.749   2.939   2.337
20216WAT     H160890   2.784   3.013   2.280
20216WAT     H260891   2.825   2.897   2.387
20217WAT      O60892   1.897   3.724   4.000
20217WAT     H160893   1.840   3.702   4.080
20217WAT     H260894   1.990   3.744   4.030
20218WAT      O60895   9.001   0.962   6.334
20218WAT     H160896   8.941   1.004   6.266
20218WAT     H260897   9.029   0.872   6.301
20219WAT      O60898   4.172   6.756   3.314
20219WAT     H160899   4.208   6.833   3.367
20219WAT     H260900   4.098   6.712   3.366
20220WAT      O60901   7.400   3.802   0.521
20220WAT     H160902   7.320   3.743   0.516
20220WAT     H260903   7.407   3.842   0.613
20221WAT      O60904   5.169   0.034   9.201
20221WAT     H160905   5.223  -0.036   9.153
20221WAT     H260906   5.106   0.078   9.137
20222WAT      O60907   6.622   5.429   6.779
20222WAT     H160908   6.563   5.351   6.800
20222WAT     H260909   6.716   5.409   6.807
20223WAT      O60910   3.351   3.591   7.625
20223WAT     H160911   3.401   3.677   7.626
20223WAT     H260912   3.314   3.574   7.534
20224WAT      O60913   2.704   3.540   3.308
20224WAT     H160914   2.784   3.584   3.350
20224WAT     H260915   2.707   3.553   3.209
20225WAT      O60916   7.298   2.397   7.707
20225WAT     H160917   7.234   2.386   7.631
20225WAT     H260918   7.251   2.442   7.783
20226WAT      O60919   9.545   4.781   8.510
20226WAT     H160920   9.507   4.873   8.519
20226WAT     H260921   9.500   4.721   8.576
20227WAT      O60922   1.758   9.581   3.684
20227WAT     H160923   1.845   9.554   3.644
20227WAT     H260924   1.770   9.667   3.735
20228WAT      O60925   1.153   4.533   7.332
20228WAT     H160926   1.231   4.587   7.302
20228WAT     H260927   1.146   4.450   7.276
20229WAT      O60928   8.735   7.569   5.552
20229WAT     H160929   8.816   7.539   5.502
20229WAT     H260930   8.664   7.597   5.487
20230WAT      O60931   4.333   1.867   1.067
20230WAT     H160932   4.389   1.889   1.146
20230WAT     H260933   4.365   1.919   0.988
20231WAT      O60934   3.117   4.957   4.764
20231WAT     H160935   3.166   4.934   4.680
20231WAT     H260936   3.093   5.054   4.764
20232WAT      O60937   1.276   0.105   1.111
20232WAT     H160938   1.344   0.129   1.042
20232WAT     H260939   1.323   0.075   1.194
20233WAT      O60940   2.435   1.178   4.685
20233WAT     H160941   2.441   1.213   4.779
20233WAT     H260942   2.525   1.149   4.655
20234WAT      O60943   4.324   4.399   9.351
20234WAT     H160944   4.392   4.454   9.302
20234WAT     H260945   4.308   4.314   9.302
20235WAT      O60946   7.915   9.258   7.345
20235WAT     H160947   7.930   9.199   7.425
20235WAT     H260948   7.822   9.244   7.311
20236WAT      O60949   3.331   1.949   2.864
20236WAT     H160950   3.264   1.876   2.850
20236WAT     H260951   3.318   2.020   2.795
20237WAT      O60952   6.311   7.639   9.478
20237WAT     H160953   6.299   7.698   9.398
20237WAT     H260954   6.305   7.543   9.450
20238WAT      O60955   2.091   7.875   8.779
20238WAT     H160956   2.086   7.817   8.698
20238WAT     H260957   2.184   7.912   8.787
20239WAT      O60958   8.155   1.963   8.867
20239WAT     H160959   8.221   1.941   8.939
20239WAT     H260960   8.184   1.920   8.782
20240WAT      O60961   0.898   9.021   1.400
20240WAT     H160962   0.937   9.078   1.327
20240WAT     H260963   0.814   9.064   1.434
20241WAT      O60964   5.522   8.135   0.325
20241WAT     H160965   5.578   8.058   0.294
20241WAT     H260966   5.582   8.212   0.349
20242WAT      O60967   0.097   8.271   8.198
20242WAT     H160968   0.096   8.233   8.106
20242WAT     H260969   0.164   8.222   8.254
20243WAT      O60970   6.483   1.101   3.644
20243WAT     H160971   6.451   1.096   3.738
20243WAT     H260972   6.578   1.131   3.642
20244WAT      O60973   8.829   9.447   8.737
20244WAT     H160974   8.772   9.413   8.812
20244WAT     H260975   8.878   9.528   8.767
20245WAT      O60976   3.946   8.908   3.890
20245WAT     H160977   4.021   8.930   3.828
20245WAT     H260978   3.861   8.945   3.854
20246WAT      O60979   5.650   6.914   3.502
20246WAT     H160980   5.706   6.874   3.430
20246WAT     H260981   5.615   7.003   3.471
20247WAT      O60982   6.916   9.622   2.963
20247WAT     H160983   6.971   9.572   3.029
20247WAT     H260984   6.938   9.593   2.870
20248WAT      O60985   9.699   1.243   7.957
20248WAT     H160986   9.725   1.245   8.054
20248WAT     H260987   9.779   1.217   7.903
20249WAT      O60988   8.102   6.819   9.703
20249WAT     H160989   8.065   6.883   9.636
20249WAT     H260990   8.198   6.839   9.720
20250WAT      O60991   6.599   3.736   6.184
20250WAT     H160992   6.587   3.637   6.178
20250WAT     H260993   6.675   3.756   6.246
20251WAT      O60994   4.562   6.004   2.149
20251WAT     H160995   4.573   6.067   2.072
20251WAT     H260996   4.465   5.997   2.173
20252WAT      O60997   2.125   2.834   4.205
20252WAT     H160998   2.159   2.923   4.233
20252WAT     H260999   2.147   2.819   4.108
20253WAT      O61000   9.344   8.835   0.526
20253WAT     H161001   9.357   8.794   0.436
20253WAT     H261002   9.410   8.909   0.539
20254WAT      O61003   8.446   8.848   1.280
20254WAT     H161004   8.476   8.918   1.345
20254WAT     H261005   8.401   8.774   1.329
20255WAT      O61006   9.750   7.778   1.981
20255WAT     H161007   9.772   7.680   1.983
20255WAT     H261008   9.730   7.810   2.073
20256WAT      O61009   1.519   2.782   6.557
20256WAT     H161010   1.500   2.794   6.655
20256WAT     H261011   1.542   2.871   6.517
20257WAT      O61012   6.109   1.732   3.618
20257WAT     H161013   6.114   1.812   3.677
20257WAT     H261014   6.174   1.743   3.542
20258WAT      O61015   4.064   3.571   8.060
20258WAT     H161016   3.977   3.621   8.070
20258WAT     H261017   4.046   3.473   8.068
20259WAT      O61018   5.129   1.047   1.401
20259WAT     H161019   5.125   0.966   1.460
20259WAT     H261020   5.105   1.128   1.454
20260WAT      O61021   8.607   0.812   5.504
20260WAT     H161022   8.551   0.861   5.571
20260WAT     H261023   8.554   0.735   5.467
20261WAT      O61024   0.158   1.612   5.556
20261WAT     H161025   0.205   1.692   5.518
20261WAT     H261026   0.218   1.564   5.619
20262WAT      O61027   5.029   1.229   8.546
20262WAT     H161028   5.042   1.153   8.482
20262WAT     H261029   5.073   1.311   8.511
20263WAT      O61030   6.049   8.697   4.942
20263WAT     H161031   6.141   8.715   4.908
20263WAT     H261032   6.024   8.765   5.012
20264WAT      O61033   0.053   6.211   0.066
20264WAT     H161034  -0.008   6.289   0.073
20264WAT     H261035   0.147   6.243   0.053
20265WAT      O61036   7.772   7.224   6.621
20265WAT     H161037   7.736   7.314   6.598
20265WAT     H261038   7.709   7.154   6.588
20266WAT      O61039   0.114   8.347   4.997
20266WAT     H161040   0.151   8.256   5.014
20266WAT     H261041   0.176   8.416   5.035
20267WAT      O61042   7.525   9.194   2.943
20267WAT     H161043   7.615   9.153   2.955
20267WAT     H261044   7.509   9.212   2.845
20268WAT      O61045   8.512   1.513   3.794
20268WAT     H161046   8.445   1.524   3.721
20268WAT     H261047   8.534   1.416   3.805
20269WAT      O61048   1.811   4.920   5.017
20269WAT     H161049   1.872   4.900   5.094
20269WAT     H261050   1.825   5.014   4.987
20270WAT      O61051   3.806   4.327   0.120
20270WAT     H161052   3.754   4.377   0.050
20270WAT     H261053   3.853   4.250   0.078
20271WAT      O61054   9.838   3.283   0.238
20271WAT     H161055   9.862   3.377   0.264
20271WAT     H261056   9.913   3.243   0.185
20272WAT      O61057   7.555   8.827   3.825
20272WAT     H161058   7.488   8.757   3.801
20272WAT     H261059   7.585   8.875   3.743
20273WAT      O61060   1.389   9.327   9.676
20273WAT     H161061   1.449   9.247   9.673
20273WAT     H261062   1.434   9.404   9.631
20274WAT      O61063   0.082   9.723   8.878
20274WAT     H161064   0.058   9.702   8.972
20274WAT     H261065   0.144   9.653   8.842
20275WAT      O61066   3.922   2.377   0.935
20275WAT     H161067   3.892   2.284   0.957
20275WAT     H261068   4.021   2.378   0.927
20276WAT      O61069   2.839   4.398   2.163
20276WAT     H161070   2.792   4.378   2.249
20276WAT     H261071   2.878   4.490   2.167
20277WAT      O61072   0.881   7.771   4.541
20277WAT     H161073   0.979   7.760   4.525
20277WAT     H261074   0.857   7.732   4.630
20278WAT      O61075   3.943   2.246   0.544
20278WAT     H161076   3.882   2.224   0.620
20278WAT     H261077   4.003   2.322   0.570
20279WAT      O61078   6.210   3.987   8.323
20279WAT     H161079   6.241   3.899   8.361
20279WAT     H261080   6.119   3.976   8.283
20280WAT      O61081   3.109   2.469   7.843
20280WAT     H161082   3.080   2.555   7.884
20280WAT     H261083   3.076   2.392   7.899
20281WAT      O61084   7.282   8.836   0.357
20281WAT     H161085   7.243   8.883   0.436
20281WAT     H261086   7.211   8.785   0.309
20282WAT      O61087   7.223   8.927   7.856
20282WAT     H161088   7.314   8.886   7.853
20282WAT     H261089   7.216   8.985   7.937
20283WAT      O61090   1.909   0.003   8.294
20283WAT     H161091   1.886  -0.054   8.373
20283WAT     H261092   1.980   0.069   8.320
20284WAT      O61093   9.123   8.378   5.620
20284WAT     H161094   9.166   8.444   5.681
20284WAT     H261095   9.023   8.383   5.631
20285WAT      O61096   8.137   2.609   1.915
20285WAT     H161097   8.132   2.533   1.850
20285WAT     H261098   8.230   2.644   1.917
20286WAT      O61099   0.361   4.884   2.532
20286WAT     H161100   0.440   4.910   2.475
20286WAT     H261101   0.352   4.785   2.533
20287WAT      O61102   8.261   1.877   1.886
20287WAT     H161103   8.186   1.813   1.870
20287WAT     H261104   8.248   1.923   1.973
20288WAT      O61105   3.721   1.645   8.699
20288WAT     H161106   3.635   1.677   8.659
20288WAT     H261107   3.798   1.681   8.646
20289WAT      O61108   1.322   3.718   6.029
20289WAT     H161109   1.321   3.763   6.119
20289WAT     H261110   1.349   3.784   5.959
20290WAT      O61111   7.555   9.526   6.123
20290WAT     H161112   7.522   9.434   6.099
20290WAT     H261113   7.605   9.564   6.045
20291WAT      O61114   5.619   7.807   2.794
20291WAT     H161115   5.700   7.854   2.829
20291WAT     H261116   5.613   7.820   2.695
20292WAT      O61117   0.965   0.587   4.472
20292WAT     H161118   0.976   0.518   4.401
20292WAT     H261119   0.867   0.602   4.490
20293WAT      O61120   7.500   0.131   2.692
20293WAT     H161121   7.404   0.136   2.719
20293WAT     H261122   7.558   0.168   2.765
20294WAT      O61123   9.699   0.018   5.827
20294WAT     H161124   9.677   0.103   5.875
20294WAT     H261125   9.768  -0.033   5.878
20295WAT      O61126   1.195   1.469   2.001
20295WAT     H161127   1.116   1.414   1.976
20295WAT     H261128   1.174   1.566   1.987
20296WAT      O61129   5.346   0.037   8.791
20296WAT     H161130   5.342  -0.063   8.801
20296WAT     H261131   5.268   0.078   8.839
20297WAT      O61132   5.327   6.938   9.791
20297WAT     H161133   5.308   6.842   9.813
20297WAT     H261134   5.277   6.997   9.854
20298WAT      O61135   8.564   4.298   4.958
20298WAT     H161136   8.572   4.369   5.029
20298WAT     H261137   8.611   4.329   4.875
20299WAT      O61138   4.662   6.238   6.975
20299WAT     H161139   4.676   6.237   7.074
20299WAT     H261140   4.566   6.259   6.955
20300WAT      O61141   0.542   4.969   7.240
20300WAT     H161142   0.547   4.961   7.340
20300WAT     H261143   0.625   4.929   7.200
20301WAT      O61144   4.084   6.160   0.559
20301WAT     H161145   4.123   6.088   0.501
20301WAT     H261146   4.075   6.126   0.653
20302WAT      O61147   2.961   5.460   7.130
20302WAT     H161148   2.989   5.440   7.036
20302WAT     H261149   3.021   5.411   7.193
20303WAT      O61150   4.277   4.116   0.541
20303WAT     H161151   4.327   4.085   0.622
20303WAT     H261152   4.186   4.074   0.541
20304WAT      O61153   5.680   6.566   4.962
20304WAT     H161154   5.690   6.643   4.899
20304WAT     H261155   5.764   6.556   5.015
20305WAT      O61156   3.029   7.271   6.344
20305WAT     H161157   3.000   7.357   6.387
20305WAT     H261158   2.983   7.261   6.256
20306WAT      O61159   7.280   1.485   5.422
20306WAT     H161160   7.290   1.533   5.335
20306WAT     H261161   7.365   1.436   5.442
20307WAT      O61162   6.252   9.360   3.786
20307WAT     H161163   6.159   9.338   3.758
20307WAT     H261164   6.300   9.405   3.710
20308WAT      O61165   0.862   4.318   4.981
20308WAT     H161166   0.764   4.297   4.985
20308WAT     H261167   0.890   4.360   5.067
20309WAT      O61168   2.263   7.268   3.318
20309WAT     H161169   2.270   7.168   3.311
20309WAT     H261170   2.172   7.297   3.288
20310WAT      O61171   7.507   1.209   4.062
20310WAT     H161172   7.573   1.255   4.003
20310WAT     H261173   7.415   1.226   4.029
20311WAT      O61174   8.350   1.170   2.719
20311WAT     H161175   8.442   1.205   2.735
20311WAT     H261176   8.284   1.226   2.769
20312WAT      O61177   3.152   3.883   8.527
20312WAT     H161178   3.198   3.865   8.440
20312WAT     H261179   3.057   3.853   8.521
20313WAT      O61180   2.114   2.092   8.646
20313WAT     H161181   2.155   2.182   8.633
20313WAT     H261182   2.035   2.099   8.708
20314WAT      O61183   8.477   4.882   1.542
20314WAT     H161184   8.463   4.834   1.629
20314WAT     H261185   8.512   4.818   1.474
20315WAT      O61186   8.946   8.040   1.957
20315WAT     H161187   8.946   7.969   2.026
20315WAT     H261188   8.910   8.004   1.871
20316WAT      O61189   3.970   1.812   4.120
20316WAT     H161190   4.004   1.900   4.086
20316WAT     H261191   4.047   1.757   4.152
20317WAT      O61192   1.246   1.944   6.276
20317WAT     H161193   1.225   1.988   6.188
20317WAT     H261194   1.166   1.951   6.336
20318WAT      O61195   0.529   2.655   9.842
20318WAT     H161196   0.559   2.567   9.806
20318WAT     H261197   0.561   2.665   9.936
20319WAT      O61198   7.700   7.569   1.595
20319WAT     H161199   7.780   7.605   1.546
20319WAT     H261200   7.629   7.545   1.529
20320WAT      O61201   7.351   8.896   0.849
20320WAT     H161202   7.380   8.842   0.770
20320WAT     H261203   7.425   8.901   0.915
20321WAT      O61204   1.915   5.801   8.260
20321WAT     H161205   1.911   5.796   8.160
20321WAT     H261206   2.006   5.831   8.289
20322WAT      O61207   9.821   2.585   7.371
20322WAT     H161208   9.878   2.630   7.302
20322WAT     H261209   9.728   2.622   7.366
20323WAT      O61210   2.313   8.905   2.752
20323WAT     H161211   2.365   8.840   2.807
20323WAT     H261212   2.241   8.946   2.808
20324WAT      O61213   0.693   4.672   8.962
20324WAT     H161214   0.708   4.757   8.911
20324WAT     H261215   0.781   4.628   8.981
20325WAT      O61216   2.581   1.709   1.903
20325WAT     H161217   2.599   1.706   2.002
20325WAT     H261218   2.624   1.790   1.864
20326WAT      O61219   3.269   1.488   0.964
20326WAT     H161220   3.358   1.486   0.918
20326WAT     H261221   3.251   1.399   1.006
20327WAT      O61222   2.494   2.444   7.591
20327WAT     H161223   2.521   2.442   7.494
20327WAT     H261224   2.404   2.401   7.601
20328WAT      O61225   9.693   3.325   8.831
20328WAT     H161226   9.696   3.360   8.737
20328WAT     H261227   9.597   3.320   8.861
20329WAT      O61228   8.710   8.819   9.537
20329WAT     H161229   8.649   8.746   9.567
20329WAT     H261230   8.657   8.904   9.525
20330WAT      O61231   6.467   0.496   0.001
20330WAT     H161232   6.428   0.427   0.061
20330WAT     H261233   6.565   0.478  -0.010
20331WAT      O61234   6.774   6.518   3.431
20331WAT     H161235   6.735   6.605   3.462
20331WAT     H261236   6.864   6.535   3.389
20332WAT      O61237   9.396   3.869   6.471
20332WAT     H161238   9.364   3.913   6.555
20332WAT     H261239   9.340   3.788   6.452
20333WAT      O61240   7.193   7.917   3.558
20333WAT     H161241   7.108   7.912   3.611
20333WAT     H261242   7.207   8.011   3.527
20334WAT      O61243   4.254   7.364   5.457
20334WAT     H161244   4.206   7.430   5.515
20334WAT     H261245   4.271   7.280   5.510
20335WAT      O61246   1.988   1.819   1.725
20335WAT     H161247   1.968   1.809   1.628
20335WAT     H261248   1.934   1.895   1.763
20336WAT      O61249   7.768   8.182   4.550
20336WAT     H161250   7.867   8.197   4.546
20336WAT     H261251   7.749   8.085   4.535
20337WAT      O61252   4.039   8.520   4.157
20337WAT     H161253   4.049   8.459   4.079
20337WAT     H261254   4.116   8.584   4.159
20338WAT      O61255   1.153   8.768   7.770
20338WAT     H161256   1.111   8.685   7.806
20338WAT     H261257   1.250   8.769   7.793
20339WAT      O61258   2.810   1.248   1.644
20339WAT     H161259   2.732   1.216   1.698
20339WAT     H261260   2.895   1.210   1.682
20340WAT      O61261   8.563   0.893   2.882
20340WAT     H161262   8.491   0.878   2.814
20340WAT     H261263   8.568   0.991   2.903
20341WAT      O61264   3.949   5.336   0.776
20341WAT     H161265   3.913   5.245   0.794
20341WAT     H261266   3.874   5.400   0.760
20342WAT      O61267   8.783   5.266   4.033
20342WAT     H161268   8.752   5.344   4.087
20342WAT     H261269   8.719   5.252   3.956
20343WAT      O61270   8.151   6.572   7.500
20343WAT     H161271   8.123   6.602   7.591
20343WAT     H261272   8.250   6.563   7.496
20344WAT      O61273   6.537   6.045   2.324
20344WAT     H161274   6.629   6.074   2.350
20344WAT     H261275   6.472   6.076   2.393
20345WAT      O61276   0.528   0.306   8.339
20345WAT     H161277   0.526   0.234   8.269
20345WAT     H261278   0.580   0.384   8.304
20346WAT      O61279   3.966   6.762   8.234
20346WAT     H161280   3.938   6.683   8.180
20346WAT     H261281   3.940   6.846   8.186
20347WAT      O61282   2.025   3.339   0.793
20347WAT     H161283   1.981   3.334   0.703
20347WAT     H261284   2.045   3.435   0.814
20348WAT      O61285   0.742   5.359   1.685
20348WAT     H161286   0.644   5.370   1.706
20348WAT     H261287   0.774   5.273   1.723
20349WAT      O61288   7.644   9.377   7.492
20349WAT     H161289   7.650   9.327   7.578
20349WAT     H261290   7.621   9.473   7.511
20350WAT      O61291   0.567   4.586   6.372
20350WAT     H161292   0.471   4.609   6.356
20350WAT     H261293   0.611   4.567   6.284
20351WAT      O61294   6.077   8.080   0.922
20351WAT     H161295   6.017   8.074   0.842
20351WAT     H261296   6.172   8.075   0.893
20352WAT      O61297   0.794   4.101   0.250
20352WAT     H161298   0.764   4.032   0.184
20352WAT     H261299   0.715   4.138   0.299
20353WAT      O61300   1.224   6.720   2.535
20353WAT     H161301   1.269   6.641   2.576
20353WAT     H261302   1.251   6.803   2.582
20354WAT      O61303   9.025   4.891   2.787
20354WAT     H161304   9.009   4.973   2.732
20354WAT     H261305   9.088   4.913   2.862
20355WAT      O61306   5.780   3.924   1.431
20355WAT     H161307   5.749   3.841   1.385
20355WAT     H261308   5.773   3.912   1.530
20356WAT      O61309   9.395   3.688   3.407
20356WAT     H161310   9.354   3.737   3.484
20356WAT     H261311   9.495   3.693   3.414
20357WAT      O61312   4.047   7.434   6.329
20357WAT     H161313   4.048   7.489   6.246
20357WAT     H261314   4.077   7.489   6.407
20358WAT      O61315   2.484   2.292   6.038
20358WAT     H161316   2.570   2.336   6.063
20358WAT     H261317   2.493   2.193   6.048
20359WAT      O61318   5.473   7.643   1.401
20359WAT     H161319   5.469   7.694   1.487
20359WAT     H261320   5.562   7.658   1.358
20360WAT      O61321   2.648   9.479   6.161
20360WAT     H161322   2.676   9.505   6.069
20360WAT     H261323   2.706   9.525   6.228
20361WAT      O61324   2.116   0.520   0.517
20361WAT     H161325   2.019   0.527   0.541
20361WAT     H261326   2.126   0.458   0.439
20362WAT      O61327   7.712   0.632   8.010
20362WAT     H161328   7.614   0.613   8.007
20362WAT     H261329   7.727   0.729   8.032
20363WAT      O61330   2.472   2.181   4.455
20363WAT     H161331   2.510   2.156   4.544
20363WAT     H261332   2.524   2.256   4.416
20364WAT      O61333   6.147   9.609   1.357
20364WAT     H161334   6.061   9.608   1.409
20364WAT     H261335   6.128   9.637   1.263
20365WAT      O61336   2.071   7.253   8.971
20365WAT     H161337   2.118   7.332   8.931
20365WAT     H261338   2.130   7.209   9.038
20366WAT      O61339   0.647   7.316   7.640
20366WAT     H161340   0.695   7.257   7.705
20366WAT     H261341   0.710   7.346   7.569
20367WAT      O61342   6.686   7.166   1.267
20367WAT     H161343   6.693   7.071   1.239
20367WAT     H261344   6.778   7.204   1.280
20368WAT      O61345   1.515   0.819   6.465
20368WAT     H161346   1.449   0.782   6.530
20368WAT     H261347   1.467   0.859   6.387
20369WAT      O61348   9.512   0.033   5.287
20369WAT     H161349   9.420   0.072   5.295
20369WAT     H261350   9.513  -0.061   5.321
20370WAT      O61351   9.517   1.704   6.828
20370WAT     H161352   9.534   1.699   6.729
20370WAT     H261353   9.528   1.798   6.859
20371WAT      O61354   5.349   2.633   6.497
20371WAT     H161355   5.274   2.636   6.563
20371WAT     H261356   5.436   2.643   6.545
20372WAT      O61357   9.562   8.545   9.532
20372WAT     H161358   9.568   8.448   9.554
20372WAT     H261359   9.531   8.556   9.438
20373WAT      O61360   4.749   0.256   8.461
20373WAT     H161361   4.829   0.199   8.440
20373WAT     H261362   4.693   0.210   8.530
20374WAT      O61363   2.609   8.959   5.560
20374WAT     H161364   2.541   8.948   5.632
20374WAT     H261365   2.694   8.915   5.588
20375WAT      O61366   0.613   0.440   6.393
20375WAT     H161367   0.672   0.371   6.350
20375WAT     H261368   0.580   0.503   6.324
20376WAT      O61369   5.501   5.804   2.856
20376WAT     H161370   5.564   5.859   2.910
20376WAT     H261371   5.439   5.753   2.916
20377WAT      O61372   3.370   8.927   1.918
20377WAT     H161373   3.457   8.944   1.964
20377WAT     H261374   3.295   8.933   1.984
20378WAT      O61375   8.249   5.232   4.668
20378WAT     H161376   8.269   5.326   4.698
20378WAT     H261377   8.177   5.194   4.726
20379WAT      O61378   8.409   0.207   1.141
20379WAT     H161379   8.352   0.212   1.059
20379WAT     H261380   8.479   0.278   1.138
20380WAT      O61381   3.583   4.200   6.246
20380WAT     H161382   3.516   4.215   6.174
20380WAT     H261383   3.571   4.267   6.319
20381WAT      O61384   9.470   1.375   0.127
20381WAT     H161385   9.501   1.458   0.081
20381WAT     H261386   9.376   1.389   0.161
20382WAT      O61387   8.474   1.585   8.463
20382WAT     H161388   8.573   1.595   8.477
20382WAT     H261389   8.434   1.535   8.539
20383WAT      O61390   8.183   5.570   3.987
20383WAT     H161391   8.198   5.483   4.034
20383WAT     H261392   8.125   5.629   4.043
20384WAT      O61393   9.572   9.454   1.839
20384WAT     H161394   9.566   9.513   1.758
20384WAT     H261395   9.489   9.466   1.895
20385WAT      O61396   2.206   1.022   3.171
20385WAT     H161397   2.189   0.927   3.143
20385WAT     H261398   2.296   1.050   3.140
20386WAT      O61399   3.742   9.755   5.369
20386WAT     H161400   3.675   9.765   5.442
20386WAT     H261401   3.779   9.845   5.346
20387WAT      O61402   1.231   7.345   8.939
20387WAT     H161403   1.196   7.307   9.025
20387WAT     H261404   1.302   7.412   8.959
20388WAT      O61405   9.389   3.358   5.984
20388WAT     H161406   9.324   3.282   5.993
20388WAT     H261407   9.461   3.333   5.920
20389WAT      O61408   4.924   4.639   9.189
20389WAT     H161409   4.984   4.579   9.135
20389WAT     H261410   4.857   4.583   9.238
20390WAT      O61411   4.941   3.489   2.627
20390WAT     H161412   5.009   3.420   2.603
20390WAT     H261413   4.918   3.482   2.724
20391WAT      O61414   9.439   1.152   7.941
20391WAT     H161415   9.537   1.168   7.951
20391WAT     H261416   9.412   1.167   7.846
20392WAT      O61417   6.295   2.150   8.607
20392WAT     H161418   6.227   2.213   8.571
20392WAT     H261419   6.386   2.180   8.579
20393WAT      O61420   4.159   7.854   0.099
20393WAT     H161421   4.228   7.786   0.123
20393WAT     H261422   4.082   7.848   0.163
20394WAT      O61423   0.629   2.175   3.307
20394WAT     H161424   0.531   2.168   3.286
20394WAT     H261425   0.646   2.132   3.396
20395WAT      O61426   9.545   8.029   5.870
20395WAT     H161427   9.504   8.068   5.952
20395WAT     H261428   9.605   7.952   5.895
20396WAT      O61429   4.471   8.465   1.699
20396WAT     H161430   4.450   8.548   1.750
20396WAT     H261431   4.561   8.474   1.657
20397WAT      O61432   6.504   5.438   2.850
20397WAT     H161433   6.453   5.409   2.931
20397WAT     H261434   6.464   5.398   2.768
20398WAT      O61435   5.039   5.362   1.128
20398WAT     H161436   5.059   5.266   1.108
20398WAT     H261437   4.957   5.368   1.185
20399WAT      O61438   3.719   6.814   1.094
20399WAT     H161439   3.813   6.828   1.124
20399WAT     H261440   3.656   6.833   1.170
20400WAT      O61441   3.768   4.063   3.590
20400WAT     H161442   3.735   3.975   3.558
20400WAT     H261443   3.713   4.136   3.550
20401WAT      O61444   3.161   2.771   2.713
20401WAT     H161445   3.088   2.793   2.777
20401WAT     H261446   3.144   2.681   2.673
20402WAT      O61447   4.824   4.982   4.667
20402WAT     H161448   4.907   5.033   4.644
20402WAT     H261449   4.847   4.910   4.732
20403WAT      O61450   3.749   6.279   6.706
20403WAT     H161451   3.775   6.298   6.800
20403WAT     H261452   3.759   6.362   6.651
20404WAT      O61453   1.746   1.831   6.706
20404WAT     H161454   1.754   1.922   6.746
20404WAT     H261455   1.669   1.782   6.748
20405WAT      O61456   1.729   4.348   7.252
20405WAT     H161457   1.696   4.329   7.159
20405WAT     H261458   1.829   4.351   7.252
20406WAT      O61459   7.173   2.466   3.298
20406WAT     H161460   7.129   2.544   3.342
20406WAT     H261461   7.259   2.445   3.344
20407WAT      O61462   1.956   7.345   0.868
20407WAT     H161463   1.995   7.432   0.836
20407WAT     H261464   2.030   7.279   0.883
20408WAT      O61465   2.032   2.406   1.195
20408WAT     H161466   2.001   2.325   1.245
20408WAT     H261467   2.055   2.478   1.259
20409WAT      O61468   3.566   5.427   8.706
20409WAT     H161469   3.568   5.385   8.797
20409WAT     H261470   3.473   5.460   8.687
20410WAT      O61471   4.268   2.355   3.488
20410WAT     H161472   4.255   2.451   3.512
20410WAT     H261473   4.242   2.340   3.393
20411WAT      O61474   7.849   8.220   2.019
20411WAT     H161475   7.835   8.137   1.964
20411WAT     H261476   7.770   8.281   2.009
20412WAT      O61477   2.133   5.264   6.662
20412WAT     H161478   2.182   5.216   6.589
20412WAT     H261479   2.199   5.299   6.728
20413WAT      O61480   8.624   5.781   1.062
20413WAT     H161481   8.580   5.866   1.035
20413WAT     H261482   8.724   5.791   1.055
20414WAT      O61483   2.541   0.119   8.187
20414WAT     H161484   2.563   0.187   8.258
20414WAT     H261485   2.621   0.063   8.168
20415WAT      O61486   9.777   7.809   3.977
20415WAT     H161487   9.859   7.840   3.929
20415WAT     H261488   9.762   7.866   4.058
20416WAT      O61489   5.302   6.499   3.709
20416WAT     H161490   5.232   6.450   3.656
20416WAT     H261491   5.367   6.541   3.647
20417WAT      O61492   8.472   6.436   9.197
20417WAT     H161493   8.449   6.432   9.100
20417WAT     H261494   8.545   6.370   9.216
20418WAT      O61495   1.470   7.030   3.072
20418WAT     H161496   1.539   6.970   3.030
20418WAT     H261497   1.432   7.090   3.002
20419WAT      O61498   8.133   7.222   5.119
20419WAT     H161499   8.050   7.182   5.080
20419WAT     H261500   8.176   7.156   5.180
20420WAT      O61501   5.183   6.500   7.542
20420WAT     H161502   5.227   6.584   7.511
20420WAT     H261503   5.169   6.504   7.641
20421WAT      O61504   0.020   7.982   4.285
20421WAT     H161505  -0.007   7.886   4.273
20421WAT     H261506  -0.016   8.036   4.210
20422WAT      O61507   0.231   5.718   3.665
20422WAT     H161508   0.240   5.783   3.740
20422WAT     H261509   0.181   5.761   3.590
20423WAT      O61510   4.437   8.504   4.465
20423WAT     H161511   4.532   8.533   4.468
20423WAT     H261512   4.419   8.456   4.379
20424WAT      O61513   7.160   1.739   5.541
20424WAT     H161514   7.229   1.676   5.577
20424WAT     H261515   7.117   1.788   5.618
20425WAT      O61516   9.474   8.633   5.858
20425WAT     H161517   9.572   8.616   5.874
20425WAT     H261518   9.453   8.728   5.882
20426WAT      O61519   0.950   6.256   6.706
20426WAT     H161520   0.891   6.306   6.770
20426WAT     H261521   0.894   6.195   6.650
20427WAT      O61522   5.397   6.745   2.938
20427WAT     H161523   5.394   6.722   3.035
20427WAT     H261524   5.449   6.675   2.888
20428WAT      O61525   2.767   3.563   9.757
20428WAT     H161526   2.832   3.491   9.732
20428WAT     H261527   2.686   3.556   9.699
20429WAT      O61528   3.348   7.701   8.503
20429WAT     H161529   3.375   7.796   8.521
20429WAT     H261530   3.249   7.694   8.503
20430WAT      O61531   8.759   4.648   7.824
20430WAT     H161532   8.678   4.623   7.771
20430WAT     H261533   8.827   4.574   7.817
20431WAT      O61534   8.203   3.047   7.378
20431WAT     H161535   8.260   3.111   7.431
20431WAT     H261536   8.233   3.046   7.283
20432WAT      O61537   5.563   3.105   0.543
20432WAT     H161538   5.496   3.032   0.526
20432WAT     H261539   5.650   3.081   0.500
20433WAT      O61540   4.982   5.548   7.236
20433WAT     H161541   4.992   5.449   7.249
20433WAT     H261542   4.894   5.577   7.274
20434WAT      O61543   4.204   0.331   6.938
20434WAT     H161544   4.206   0.422   6.980
20434WAT     H261545   4.213   0.261   7.009
20435WAT      O61546   2.089   6.685   5.936
20435WAT     H161547   2.076   6.716   6.030
20435WAT     H261548   2.026   6.610   5.917
20436WAT      O61549   1.554   8.678   5.748
20436WAT     H161550   1.572   8.757   5.690
20436WAT     H261551   1.627   8.610   5.736
20437WAT      O61552   4.091   6.159   3.577
20437WAT     H161553   4.147   6.236   3.546
20437WAT     H261554   4.042   6.184   3.660
20438WAT      O61555   2.885   0.049   9.246
20438WAT     H161556   2.901  -0.048   9.230
20438WAT     H261557   2.820   0.084   9.178
20439WAT      O61558   0.225   9.061   4.075
20439WAT     H161559   0.291   9.032   4.005
20439WAT     H261560   0.197   9.155   4.056
20440WAT      O61561   4.517   9.052   4.180
20440WAT     H161562   4.453   9.072   4.253
20440WAT     H261563   4.611   9.066   4.212
20441WAT      O61564   4.656   7.537   3.947
20441WAT     H161565   4.565   7.496   3.954
20441WAT     H261566   4.674   7.591   4.028
20442WAT      O61567   1.184   3.925   4.643
20442WAT     H161568   1.192   3.939   4.742
20442WAT     H261569   1.101   3.971   4.610
20443WAT      O61570   3.711   6.004   5.789
20443WAT     H161571   3.810   6.018   5.783
20443WAT     H261572   3.688   5.972   5.881
20444WAT      O61573   8.745   6.465   7.025
20444WAT     H161574   8.660   6.427   6.989
20444WAT     H261575   8.724   6.540   7.088
20445WAT      O61576   1.972   1.803   6.340
20445WAT     H161577   1.932   1.777   6.252
20445WAT     H261578   2.038   1.877   6.326
20446WAT      O61579   5.196   3.935   0.498
20446WAT     H161580   5.162   3.896   0.583
20446WAT     H261581   5.196   4.035   0.504
20447WAT      O61582   7.137   9.249   7.840
20447WAT     H161583   7.229   9.257   7.801
20447WAT     H261584   7.144   9.231   7.939
20448WAT      O61585   6.997   5.910   6.608
20448WAT     H161586   6.901   5.891   6.629
20448WAT     H261587   7.008   5.923   6.510
20449WAT      O61588   3.940   8.361   6.886
20449WAT     H161589   3.986   8.416   6.816
20449WAT     H261590   4.003   8.342   6.960
20450WAT      O61591   1.051   6.128   2.516
20450WAT     H161592   0.953   6.122   2.500
20450WAT     H261593   1.068   6.168   2.606
20451WAT      O61594   6.365   3.742   6.004
20451WAT     H161595   6.451   3.733   6.055
20451WAT     H261596   6.356   3.665   5.941
20452WAT      O61597   8.844   8.276   0.543
20452WAT     H161598   8.930   8.268   0.593
20452WAT     H261599   8.803   8.186   0.530
20453WAT      O61600   5.970   6.062   7.872
20453WAT     H161601   6.034   5.987   7.853
20453WAT     H261602   5.912   6.079   7.793
20454WAT      O61603   8.880   4.582   3.124
20454WAT     H161604   8.879   4.598   3.025
20454WAT     H261605   8.969   4.545   3.150
20455WAT      O61606   5.310   0.132   4.827
20455WAT     H161607   5.333   0.228   4.813
20455WAT     H261608   5.390   0.075   4.808
20456WAT      O61609   9.467   7.017   6.141
20456WAT     H161610   9.435   7.085   6.074
20456WAT     H261611   9.462   7.057   6.233
20457WAT      O61612   5.120   5.199   3.442
20457WAT     H161613   5.088   5.160   3.528
20457WAT     H261614   5.055   5.268   3.410
20458WAT      O61615   7.121   6.996   4.155
20458WAT     H161616   7.155   7.055   4.228
20458WAT     H261617   7.021   6.993   4.159
20459WAT      O61618   4.174   9.666   0.849
20459WAT     H161619   4.101   9.724   0.813
20459WAT     H261620   4.171   9.668   0.949
20460WAT      O61621   9.728   9.801   7.894
20460WAT     H161622   9.796   9.764   7.829
20460WAT     H261623   9.637   9.793   7.854
20461WAT      O61624   6.835   4.982   6.902
20461WAT     H161625   6.930   4.950   6.899
20461WAT     H261626   6.825   5.052   6.973
20462WAT      O61627   4.134   7.227   7.259
20462WAT     H161628   4.138   7.132   7.290
20462WAT     H261629   4.043   7.245   7.221
20463WAT      O61630   3.347   1.816   5.504
20463WAT     H161631   3.307   1.742   5.559
20463WAT     H261632   3.348   1.900   5.558
20464WAT      O61633   8.672   2.856   2.472
20464WAT     H161634   8.606   2.853   2.548
20464WAT     H261635   8.760   2.889   2.506
20465WAT      O61636   8.326   6.387   3.820
20465WAT     H161637   8.275   6.304   3.800
20465WAT     H261638   8.409   6.390   3.763
20466WAT      O61639   9.202   5.585   1.620
20466WAT     H161640   9.127   5.557   1.680
20466WAT     H261641   9.271   5.513   1.618
20467WAT      O61642   5.210   4.055   6.224
20467WAT     H161643   5.237   3.966   6.188
20467WAT     H261644   5.283   4.092   6.281
20468WAT      O61645   3.772   8.697   7.128
20468WAT     H161646   3.841   8.639   7.171
20468WAT     H261647   3.767   8.677   7.030
20469WAT      O61648   3.560   6.571   6.978
20469WAT     H161649   3.650   6.595   6.942
20469WAT     H261650   3.491   6.631   6.938
20470WAT      O61651   1.335   9.165   3.746
20470WAT     H161652   1.314   9.243   3.687
20470WAT     H261653   1.249   9.121   3.775
20471WAT      O61654   3.916   9.242   6.238
20471WAT     H161655   3.848   9.170   6.246
20471WAT     H261656   3.872   9.328   6.215
20472WAT      O61657   4.819   4.020   2.774
20472WAT     H161658   4.832   3.926   2.805
20472WAT     H261659   4.724   4.048   2.792
20473WAT      O61660   4.064   4.407   7.159
20473WAT     H161661   4.148   4.354   7.172
20473WAT     H261662   4.071   4.493   7.208
20474WAT      O61663   0.316   7.313   9.039
20474WAT     H161664   0.290   7.258   8.960
20474WAT     H261665   0.414   7.331   9.036
20475WAT      O61666   4.303   8.989   1.439
20475WAT     H161667   4.206   8.978   1.460
20475WAT     H261668   4.314   9.063   1.372
20476WAT      O61669   9.179   3.216   2.575
20476WAT     H161670   9.196   3.124   2.612
20476WAT     H261671   9.235   3.283   2.624
20477WAT      O61672   5.886   6.017   2.025
20477WAT     H161673   5.978   6.021   1.987
20477WAT     H261674   5.850   6.110   2.036
20478WAT      O61675   1.484   4.686   9.589
20478WAT     H161676   1.558   4.738   9.547
20478WAT     H261677   1.404   4.745   9.601
20479WAT      O61678   0.475   0.239   3.154
20479WAT     H161679   0.558   0.215   3.204
20479WAT     H261680   0.406   0.272   3.219
20480WAT      O61681   0.910   1.666   3.007
20480WAT     H161682   0.911   1.705   3.099
20480WAT     H261683   0.892   1.738   2.940
20481WAT      O61684   4.694   1.930   4.444
20481WAT     H161685   4.688   1.936   4.344
20481WAT     H261686   4.692   1.834   4.471
20482WAT      O61687   9.329   1.186   0.747
20482WAT     H161688   9.269   1.106   0.753
20482WAT     H261689   9.415   1.159   0.703
20483WAT      O61690   1.760   4.992   8.978
20483WAT     H161691   1.697   5.000   8.901
20483WAT     H261692   1.843   5.045   8.958
20484WAT      O61693   0.442   3.259   2.775
20484WAT     H161694   0.348   3.287   2.791
20484WAT     H261695   0.470   3.287   2.683
20485WAT      O61696   5.693   9.584   8.687
20485WAT     H161697   5.643   9.510   8.641
20485WAT     H261698   5.674   9.670   8.641
20486WAT      O61699   6.432   3.130   2.688
20486WAT     H161700   6.432   3.034   2.717
20486WAT     H261701   6.522   3.171   2.707
20487WAT      O61702   1.591   7.270   4.720
20487WAT     H161703   1.529   7.333   4.768
20487WAT     H261704   1.681   7.313   4.711
20488WAT      O61705   9.102   0.338   5.555
20488WAT     H161706   9.077   0.383   5.469
20488WAT     H261707   9.174   0.271   5.538
20489WAT      O61708   8.553   7.824   7.706
20489WAT     H161709   8.602   7.845   7.790
20489WAT     H261710   8.602   7.863   7.628
20490WAT      O61711   3.490   7.973   1.283
20490WAT     H161712   3.553   7.982   1.360
20490WAT     H261713   3.502   8.051   1.221
20491WAT      O61714   2.927   7.908   2.644
20491WAT     H161715   2.932   8.005   2.620
20491WAT     H261716   3.019   7.869   2.645
20492WAT      O61717   1.472   9.336   1.348
20492WAT     H161718   1.411   9.401   1.303
20492WAT     H261719   1.562   9.340   1.305
20493WAT      O61720   3.044   4.203   4.073
20493WAT     H161721   3.047   4.217   3.974
20493WAT     H261722   3.070   4.109   4.095
20494WAT      O61723   5.559   7.981   5.251
20494WAT     H161724   5.472   7.932   5.246
20494WAT     H261725   5.543   8.075   5.282
20495WAT      O61726   3.468   8.268   1.855
20495WAT     H161727   3.449   8.203   1.782
20495WAT     H261728   3.470   8.221   1.943
20496WAT      O61729   1.877   5.905   5.908
20496WAT     H161730   1.879   5.961   5.991
20496WAT     H261731   1.928   5.951   5.836
20497WAT      O61732   2.061   4.871   6.888
20497WAT     H161733   2.139   4.897   6.831
20497WAT     H261734   1.978   4.872   6.834
20498WAT      O61735   3.476   5.514   3.550
20498WAT     H161736   3.518   5.427   3.575
20498WAT     H261737   3.547   5.581   3.528
20499WAT      O61738   1.678   6.729   0.762
20499WAT     H161739   1.668   6.636   0.797
20499WAT     H261740   1.726   6.786   0.829
20500WAT      O61741   0.321   8.395   9.710
20500WAT     H161742   0.310   8.439   9.621
20500WAT     H261743   0.353   8.463   9.777
20501WAT      O61744   0.527   2.977   2.776
20501WAT     H161745   0.494   3.069   2.799
20501WAT     H261746   0.541   2.925   2.860
20502WAT      O61747   5.717   0.284   4.436
20502WAT     H161748   5.656   0.283   4.357
20502WAT     H261749   5.812   0.284   4.405
20503WAT      O61750   4.105   7.522   5.597
20503WAT     H161751   4.152   7.610   5.594
20503WAT     H261752   4.006   7.538   5.593
20504WAT      O61753   1.891   5.546   3.153
20504WAT     H161754   1.936   5.473   3.100
20504WAT     H261755   1.809   5.509   3.197
20505WAT      O61756   3.425   9.323   5.516
20505WAT     H161757   3.444   9.348   5.421
20505WAT     H261758   3.456   9.396   5.577
20506WAT      O61759   9.622   2.181   5.555
20506WAT     H161760   9.558   2.136   5.618
20506WAT     H261761   9.576   2.198   5.468
20507WAT      O61762   1.925   9.095   2.405
20507WAT     H161763   2.007   9.051   2.368
20507WAT     H261764   1.874   9.137   2.330
20508WAT      O61765   2.443   2.060   7.740
20508WAT     H161766   2.385   2.046   7.660
20508WAT     H261767   2.440   1.978   7.798
20509WAT      O61768   7.416   7.372   8.133
20509WAT     H161769   7.483   7.444   8.155
20509WAT     H261770   7.458   7.305   8.072
20510WAT      O61771   8.319   1.151   7.151
20510WAT     H161772   8.301   1.221   7.220
20510WAT     H261773   8.399   1.097   7.179
20511WAT      O61774   6.127   0.842   1.942
20511WAT     H161775   6.147   0.940   1.950
20511WAT     H261776   6.206   0.794   1.905
20512WAT      O61777   3.012   4.507   6.660
20512WAT     H161778   3.050   4.416   6.643
20512WAT     H261779   3.048   4.571   6.591
20513WAT      O61780   8.019   7.120   4.655
20513WAT     H161781   8.066   7.053   4.598
20513WAT     H261782   7.958   7.176   4.598
20514WAT      O61783   5.280   0.816   9.794
20514WAT     H161784   5.250   0.908   9.767
20514WAT     H261785   5.380   0.814   9.803
20515WAT      O61786   0.457   1.524   3.549
20515WAT     H161787   0.505   1.586   3.611
20515WAT     H261788   0.524   1.466   3.501
20516WAT      O61789   6.601   1.520   4.714
20516WAT     H161790   6.561   1.506   4.624
20516WAT     H261791   6.691   1.477   4.718
20517WAT      O61792   7.341   0.946   3.685
20517WAT     H161793   7.424   0.999   3.668
20517WAT     H261794   7.361   0.849   3.673
20518WAT      O61795   2.021   0.497   2.825
20518WAT     H161796   2.041   0.411   2.870
20518WAT     H261797   1.943   0.485   2.763
20519WAT      O61798   8.969   2.196   0.603
20519WAT     H161799   9.011   2.269   0.656
20519WAT     H261800   8.902   2.148   0.659
20520WAT      O61801   1.216   2.469   7.515
20520WAT     H161802   1.254   2.559   7.535
20520WAT     H261803   1.271   2.398   7.561
20521WAT      O61804   8.315   7.414   1.451
20521WAT     H161805   8.347   7.417   1.546
20521WAT     H261806   8.306   7.508   1.417
20522WAT      O61807   4.816   4.541   8.474
20522WAT     H161808   4.839   4.522   8.379
20522WAT     H261809   4.815   4.639   8.490
20523WAT      O61810   7.723   1.278   6.368
20523WAT     H161811   7.663   1.199   6.353
20523WAT     H261812   7.817   1.254   6.343
20524WAT      O61813   4.363   0.597   2.906
20524WAT     H161814   4.378   0.521   2.844
20524WAT     H261815   4.437   0.600   2.974
20525WAT      O61816   1.228   8.041   5.914
20525WAT     H161817   1.321   8.047   5.949
20525WAT     H261818   1.179   7.969   5.961
20526WAT      O61819   5.647   6.949   4.058
20526WAT     H161820   5.576   6.903   4.004
20526WAT     H261821   5.736   6.905   4.041
20527WAT      O61822   5.225   2.347   6.986
20527WAT     H161823   5.237   2.404   6.905
20527WAT     H261824   5.139   2.296   6.979
20528WAT      O61825   5.734   7.962   2.125
20528WAT     H161826   5.714   7.884   2.183
20528WAT     H261827   5.695   8.045   2.165
20529WAT      O61828   3.675   3.301   6.544
20529WAT     H161829   3.641   3.395   6.535
20529WAT     H261830   3.622   3.252   6.613
20530WAT      O61831   9.617   6.710   4.254
20530WAT     H161832   9.671   6.716   4.170
20530WAT     H261833   9.549   6.782   4.255
20531WAT      O61834   3.120   8.921   2.629
20531WAT     H161835   3.076   8.909   2.540
20531WAT     H261836   3.219   8.919   2.619
20532WAT      O61837   3.348   3.555   0.274
20532WAT     H161838   3.290   3.632   0.250
20532WAT     H261839   3.422   3.547   0.207
20533WAT      O61840   0.582   6.499   7.033
20533WAT     H161841   0.631   6.583   7.053
20533WAT     H261842   0.601   6.432   7.105
20534WAT      O61843   2.104   5.766   7.599
20534WAT     H161844   2.038   5.840   7.587
20534WAT     H261845   2.075   5.687   7.545
20535WAT      O61846   7.654   3.038   5.204
20535WAT     H161847   7.631   3.072   5.295
20535WAT     H261848   7.707   3.107   5.155
20536WAT      O61849   7.892   4.499   9.660
20536WAT     H161850   7.808   4.531   9.704
20536WAT     H261851   7.904   4.546   9.572
20537WAT      O61852   2.979   8.620   5.352
20537WAT     H161853   3.051   8.552   5.340
20537WAT     H261854   2.987   8.691   5.282
20538WAT      O61855   4.037   0.438   1.241
20538WAT     H161856   4.056   0.411   1.335
20538WAT     H261857   4.005   0.358   1.190
20539WAT      O61858   5.191   8.555   0.798
20539WAT     H161859   5.239   8.468   0.788
20539WAT     H261860   5.165   8.590   0.708
20540WAT      O61861   4.138   7.108   4.145
20540WAT     H161862   4.144   7.056   4.230
20540WAT     H261863   4.044   7.104   4.110
20541WAT      O61864   1.558   9.354   4.995
20541WAT     H161865   1.522   9.261   5.007
20541WAT     H261866   1.506   9.417   5.054
20542WAT      O61867   6.371   8.298   9.670
20542WAT     H161868   6.322   8.318   9.585
20542WAT     H261869   6.413   8.382   9.704
20543WAT      O61870   0.146   1.656   8.958
20543WAT     H161871   0.079   1.627   9.027
20543WAT     H261872   0.099   1.706   8.886
20544WAT      O61873   7.530   1.367   9.173
20544WAT     H161874   7.593   1.291   9.192
20544WAT     H261875   7.499   1.406   9.260
20545WAT      O61876   7.724   8.207   1.075
20545WAT     H161877   7.804   8.152   1.050
20545WAT     H261878   7.697   8.263   0.997
20546WAT      O61879   3.831   1.768   3.012
20546WAT     H161880   3.815   1.756   3.110
20546WAT     H261881   3.758   1.824   2.973
20547WAT      O61882   1.694   0.726   3.433
20547WAT     H161883   1.656   0.803   3.484
20547WAT     H261884   1.720   0.756   3.341
20548WAT      O61885   6.360   6.703   0.742
20548WAT     H161886   6.388   6.710   0.837
20548WAT     H261887   6.434   6.737   0.683
20549WAT      O61888   4.251   0.822   9.373
20549WAT     H161889   4.218   0.758   9.304
20549WAT     H261890   4.174   0.874   9.410
20550WAT      O61891   2.763   3.556   9.433
20550WAT     H161892   2.801   3.633   9.485
20550WAT     H261893   2.663   3.560   9.437
20551WAT      O61894   2.534   5.970   7.039
20551WAT     H161895   2.469   6.016   6.977
20551WAT     H261896   2.626   5.977   7.001
20552WAT      O61897   2.816   5.211   8.799
20552WAT     H161898   2.869   5.126   8.793
20552WAT     H261899   2.726   5.191   8.838
20553WAT      O61900   0.709   2.986   7.000
20553WAT     H161901   0.773   2.912   6.980
20553WAT     H261902   0.673   2.976   7.092
20554WAT      O61903   8.098   2.196   4.920
20554WAT     H161904   8.109   2.203   5.019
20554WAT     H261905   8.187   2.207   4.876
20555WAT      O61906   9.084   1.689   6.156
20555WAT     H161907   9.091   1.740   6.071
20555WAT     H261908   8.995   1.706   6.198
20556WAT      O61909   1.189   6.806   7.408
20556WAT     H161910   1.102   6.792   7.455
20556WAT     H261911   1.177   6.792   7.309
20557WAT      O61912   4.551   6.748   8.993
20557WAT     H161913   4.600   6.744   9.081
20557WAT     H261914   4.453   6.752   9.010
20558WAT      O61915   3.160   9.804   5.027
20558WAT     H161916   3.067   9.810   5.063
20558WAT     H261917   3.217   9.750   5.089
20559WAT      O61918   5.073   3.395   9.655
20559WAT     H161919   5.144   3.461   9.633
20559WAT     H261920   5.095   3.349   9.741
20560WAT      O61921   6.721   0.983   1.831
20560WAT     H161922   6.622   0.968   1.825
20560WAT     H261923   6.740   1.041   1.911
20561WAT      O61924   9.689   1.267   3.246
20561WAT     H161925   9.622   1.213   3.193
20561WAT     H261926   9.760   1.207   3.280
20562WAT      O61927   4.822   6.838   5.059
20562WAT     H161928   4.779   6.748   5.053
20562WAT     H261929   4.769   6.904   5.007
20563WAT      O61930   7.763   6.269   1.125
20563WAT     H161931   7.786   6.174   1.146
20563WAT     H261932   7.666   6.285   1.146
20564WAT      O61933   9.686   3.918   4.444
20564WAT     H161934   9.638   3.839   4.406
20564WAT     H261935   9.780   3.919   4.411
20565WAT      O61936   6.603   3.196   6.021
20565WAT     H161937   6.676   3.264   6.037
20565WAT     H261938   6.568   3.164   6.109
20566WAT      O61939   9.638   4.360   0.352
20566WAT     H161940   9.704   4.339   0.424
20566WAT     H261941   9.583   4.439   0.380
20567WAT      O61942   8.203   5.744   6.154
20567WAT     H161943   8.300   5.721   6.162
20567WAT     H261944   8.156   5.725   6.240
20568WAT      O61945   1.413   1.028   8.298
20568WAT     H161946   1.492   1.061   8.350
20568WAT     H261947   1.420   1.060   8.203
20569WAT      O61948   7.503   5.915   0.613
20569WAT     H161949   7.496   5.890   0.517
20569WAT     H261950   7.425   5.971   0.640
20570WAT      O61951   0.419   6.470   7.359
20570WAT     H161952   0.510   6.508   7.372
20570WAT     H261953   0.425   6.387   7.303
20571WAT      O61954   5.587   7.675   8.866
20571WAT     H161955   5.547   7.590   8.901
20571WAT     H261956   5.668   7.652   8.811
20572WAT      O61957   0.876   5.722   6.216
20572WAT     H161958   0.863   5.736   6.118
20572WAT     H261959   0.901   5.627   6.233
20573WAT      O61960   5.625   6.916   9.271
20573WAT     H161961   5.578   6.893   9.356
20573WAT     H261962   5.598   6.851   9.200
20574WAT      O61963   0.800   8.398   2.975
20574WAT     H161964   0.764   8.469   3.037
20574WAT     H261965   0.768   8.416   2.882
20575WAT      O61966   1.798   3.602   5.137
20575WAT     H161967   1.887   3.557   5.145
20575WAT     H261968   1.790   3.643   5.046
20576WAT      O61969   3.063   6.656   2.060
20576WAT     H161970   3.132   6.595   2.019
20576WAT     H261971   3.101   6.697   2.143
20577WAT      O61972   3.530   1.985   6.333
20577WAT     H161973   3.445   1.950   6.293
20577WAT     H261974   3.592   2.014   6.260
20578WAT      O61975   3.078   5.452   4.162
20578WAT     H161976   3.029   5.425   4.245
20578WAT     H261977   3.091   5.373   4.103
20579WAT      O61978   1.152   0.141   2.533
20579WAT     H161979   1.215   0.073   2.571
20579WAT     H261980   1.153   0.222   2.592
20580WAT      O61981   3.730   9.017   6.357
20580WAT     H161982   3.721   9.089   6.425
20580WAT     H261983   3.656   9.024   6.289
20581WAT      O61984   1.083   0.894   5.373
20581WAT     H161985   1.067   0.941   5.286
20581WAT     H261986   0.996   0.860   5.408
20582WAT      O61987   6.986   6.787   2.797
20582WAT     H161988   6.944   6.759   2.883
20582WAT     H261989   7.030   6.876   2.810
20583WAT      O61990   3.114   8.650   5.964
20583WAT     H161991   3.033   8.597   5.941
20583WAT     H261992   3.100   8.694   6.053
20584WAT      O61993   5.603   2.703   7.970
20584WAT     H161994   5.567   2.695   7.877
20584WAT     H261995   5.698   2.733   7.967
20585WAT      O61996   8.013   6.989   1.008
20585WAT     H161997   7.945   7.053   0.973
20585WAT     H261998   7.988   6.896   0.982
20586WAT      O61999   7.185   3.625   9.469
20586WAT     H162000   7.268   3.633   9.524
20586WAT     H262001   7.193   3.681   9.387
20587WAT      O62002   3.864   6.915   5.968
20587WAT     H162003   3.796   6.978   6.004
20587WAT     H262004   3.935   6.899   6.036
20588WAT      O62005   5.597   4.682   6.425
20588WAT     H162006   5.611   4.589   6.392
20588WAT     H262007   5.536   4.731   6.363
20589WAT      O62008   3.012   4.204   5.437
20589WAT     H162009   3.111   4.205   5.443
20589WAT     H262010   2.977   4.116   5.469
20590WAT      O62011   8.135   4.162   7.670
20590WAT     H162012   8.211   4.101   7.689
20590WAT     H262013   8.138   4.241   7.731
20591WAT      O62014   3.708   0.461   3.646
20591WAT     H162015   3.686   0.556   3.621
20591WAT     H262016   3.671   0.399   3.577
20592WAT      O62017   6.295   2.298   1.235
20592WAT     H162018   6.270   2.377   1.291
20592WAT     H262019   6.358   2.240   1.286
20593WAT      O62020   5.949   1.571   2.349
20593WAT     H162021   5.905   1.660   2.352
20593WAT     H262022   6.002   1.563   2.264
20594WAT      O62023   4.012   7.811   1.226
20594WAT     H162024   4.021   7.902   1.186
20594WAT     H262025   4.093   7.757   1.204
20595WAT      O62026   8.644   6.437   4.407
20595WAT     H162027   8.661   6.513   4.344
20595WAT     H262028   8.679   6.352   4.366
20596WAT      O62029   3.802   5.576   7.642
20596WAT     H162030   3.860   5.497   7.622
20596WAT     H262031   3.839   5.627   7.719
20597WAT      O62032   8.544   9.673   8.854
20597WAT     H162033   8.625   9.614   8.854
20597WAT     H262034   8.565   9.758   8.807
20598WAT      O62035   4.109   4.068   2.485
20598WAT     H162036   4.193   4.045   2.434
20598WAT     H262037   4.030   4.029   2.437
20599WAT      O62038   2.745   7.817   2.858
20599WAT     H162039   2.805   7.827   2.778
20599WAT     H262040   2.702   7.727   2.857
20600WAT      O62041   1.517   3.690   5.560
20600WAT     H162042   1.539   3.662   5.654
20600WAT     H262043   1.554   3.623   5.496
20601WAT      O62044   0.414   0.012   6.099
20601WAT     H162045   0.449   0.076   6.168
20601WAT     H262046   0.455   0.033   6.011
20602WAT      O62047   1.681   8.685   3.536
20602WAT     H162048   1.695   8.750   3.461
20602WAT     H262049   1.660   8.595   3.498
20603WAT      O62050   9.488   2.992   3.087
20603WAT     H162051   9.464   3.018   2.994
20603WAT     H262052   9.423   3.033   3.151
20604WAT      O62053   8.461   1.454   0.210
20604WAT     H162054   8.450   1.403   0.125
20604WAT     H262055   8.552   1.437   0.248
20605WAT      O62056   4.853   2.965   5.296
20605WAT     H162057   4.884   2.933   5.386
20605WAT     H262058   4.754   2.954   5.289
20606WAT      O62059   6.970   6.212   7.055
20606WAT     H162060   6.979   6.246   7.149
20606WAT     H262061   7.060   6.191   7.018
20607WAT      O62062   2.485   7.549   0.967
20607WAT     H162063   2.461   7.642   0.941
20607WAT     H262064   2.548   7.510   0.899
20608WAT      O62065   9.746   2.228   6.175
20608WAT     H162066   9.669   2.292   6.167
20608WAT     H262067   9.778   2.226   6.269
20609WAT      O62068   4.802   7.586   2.553
20609WAT     H162069   4.788   7.487   2.563
20609WAT     H262070   4.877   7.603   2.490
20610WAT      O62071   3.609   1.745   5.492
20610WAT     H162072   3.631   1.732   5.589
20610WAT     H262073   3.514   1.776   5.485
20611WAT      O62074   0.003   2.283   9.262
20611WAT     H162075   0.010   2.261   9.165
20611WAT     H262076   0.010   2.199   9.316
20612WAT      O62077   1.600   2.670   7.929
20612WAT     H162078   1.540   2.747   7.906
20612WAT     H262079   1.551   2.607   7.989
20613WAT      O62080   8.719   9.433   2.156
20613WAT     H162081   8.633   9.460   2.200
20613WAT     H262082   8.731   9.334   2.166
20614WAT      O62083   4.732   5.824   0.082
20614WAT     H162084   4.821   5.850   0.046
20614WAT     H262085   4.678   5.907   0.100
20615WAT      O62086   5.296   8.657   9.795
20615WAT     H162087   5.240   8.739   9.792
20615WAT     H262088   5.240   8.577   9.772
20616WAT      O62089   3.910   9.714   3.182
20616WAT     H162090   3.967   9.742   3.104
20616WAT     H262091   3.819   9.690   3.149
20617WAT      O62092   3.170   2.210   7.419
20617WAT     H162093   3.077   2.198   7.453
20617WAT     H262094   3.170   2.210   7.319
20618WAT      O62095   0.502   8.197   5.208
20618WAT     H162096   0.470   8.269   5.269
20618WAT     H262097   0.578   8.231   5.152
20619WAT      O62098   8.994   8.888   8.352
20619WAT     H162099   8.999   8.798   8.395
20619WAT     H262100   9.029   8.957   8.415
20620WAT      O62101   8.923   0.060   9.243
20620WAT     H162102   8.904  -0.038   9.247
20620WAT     H262103   8.846   0.111   9.282
20621WAT      O62104   9.691   7.269   7.189
20621WAT     H162105   9.775   7.320   7.209
20621WAT     H262106   9.715   7.179   7.152
20622WAT      O62107   2.296   7.718   7.130
20622WAT     H162108   2.345   7.676   7.054
20622WAT     H262109   2.238   7.793   7.096
20623WAT      O62110   3.486   6.866   4.399
20623WAT     H162111   3.511   6.854   4.495
20623WAT     H262112   3.391   6.836   4.386
20624WAT      O62113   5.082   8.439   9.278
20624WAT     H162114   5.080   8.539   9.281
20624WAT     H262115   5.166   8.409   9.233
20625WAT      O62116   1.225   5.871   6.314
20625WAT     H162117   1.317   5.912   6.312
20625WAT     H262118   1.185   5.884   6.405
20626WAT      O62119   2.217   6.564   7.650
20626WAT     H162120   2.285   6.579   7.721
20626WAT     H262121   2.132   6.531   7.691
20627WAT      O62122   2.518   4.354   2.772
20627WAT     H162123   2.573   4.427   2.731
20627WAT     H262124   2.478   4.298   2.699
20628WAT      O62125   8.171   3.680   6.951
20628WAT     H162126   8.251   3.633   6.913
20628WAT     H262127   8.168   3.665   7.049
20629WAT      O62128   7.568   5.171   3.567
20629WAT     H162129   7.537   5.226   3.489
20629WAT     H262130   7.618   5.229   3.631
20630WAT      O62131   2.402   5.112   1.310
20630WAT     H162132   2.389   5.018   1.278
20630WAT     H262133   2.383   5.175   1.235
20631WAT      O62134   9.110   9.803   4.359
20631WAT     H162135   9.112   9.757   4.270
20631WAT     H262136   9.124   9.736   4.432
20632WAT      O62137   5.922   9.177   9.016
20632WAT     H162138   5.868   9.225   8.947
20632WAT     H262139   5.869   9.100   9.052
20633WAT      O62140   7.781   8.606   3.314
20633WAT     H162141   7.701   8.573   3.263
20633WAT     H262142   7.793   8.704   3.298
20634WAT      O62143   4.256   9.459   8.441
20634WAT     H162144   4.198   9.394   8.392
20634WAT     H262145   4.211   9.548   8.443
20635WAT      O62146   8.119   8.999   5.343
20635WAT     H162147   8.036   9.049   5.367
20635WAT     H262148   8.095   8.910   5.305
20636WAT      O62149   9.466   6.976   4.580
20636WAT     H162150   9.540   7.027   4.623
20636WAT     H262151   9.378   7.017   4.603
20637WAT      O62152   2.921   4.404   8.704
20637WAT     H162153   3.010   4.424   8.746
20637WAT     H262154   2.878   4.328   8.754
20638WAT      O62155   3.579   0.187   9.267
20638WAT     H162156   3.490   0.230   9.276
20638WAT     H262157   3.600   0.134   9.350
20639WAT      O62158   1.641   6.463   0.834
20639WAT     H162159   1.692   6.503   0.910
20639WAT     H262160   1.592   6.381   0.866
20640WAT      O62161   4.354   2.748   2.555
20640WAT     H162162   4.400   2.681   2.496
20640WAT     H262163   4.266   2.712   2.585
20641WAT      O62164   4.832   2.461   1.726
20641WAT     H162165   4.815   2.445   1.629
20641WAT     H262166   4.900   2.534   1.736
20642WAT      O62167   2.370   0.338   9.666
20642WAT     H162168   2.391   0.325   9.763
20642WAT     H262169   2.271   0.346   9.655
20643WAT      O62170   2.293   7.204   4.664
20643WAT     H162171   2.322   7.184   4.570
20643WAT     H262172   2.193   7.205   4.668
20644WAT      O62173   7.155   6.742   7.491
20644WAT     H162174   7.109   6.781   7.570
20644WAT     H262175   7.173   6.814   7.423
20645WAT      O62176   7.227   2.830   3.652
20645WAT     H162177   7.318   2.868   3.636
20645WAT     H262178   7.191   2.794   3.566
20646WAT      O62179   9.510   7.956   0.411
20646WAT     H162180   9.449   8.033   0.429
20646WAT     H262181   9.560   7.972   0.326
20647WAT      O62182   1.324   7.045   6.456
20647WAT     H162183   1.300   7.126   6.403
20647WAT     H262184   1.419   7.020   6.436
20648WAT      O62185   3.503   8.743   3.021
20648WAT     H162186   3.596   8.729   3.055
20648WAT     H262187   3.506   8.794   2.935
20649WAT      O62188   1.509   7.611   1.584
20649WAT     H162189   1.559   7.694   1.606
20649WAT     H262190   1.538   7.577   1.494
20650WAT      O62191   0.119   1.217   7.927
20650WAT     H162192   0.107   1.140   7.864
20650WAT     H262193   0.207   1.209   7.974
20651WAT      O62194   5.578   3.371   7.625
20651WAT     H162195   5.609   3.395   7.533
20651WAT     H262196   5.657   3.357   7.684
20652WAT      O62197   6.500   1.494   9.865
20652WAT     H162198   6.514   1.401   9.832
20652WAT     H262199   6.497   1.494   9.965
20653WAT      O62200   5.728   6.949   8.694
20653WAT     H162201   5.736   6.868   8.751
20653WAT     H262202   5.683   6.926   8.608
20654WAT      O62203   5.197   3.971   9.002
20654WAT     H162204   5.267   3.939   8.938
20654WAT     H262205   5.223   4.061   9.038
20655WAT      O62206   2.171   8.428   7.048
20655WAT     H162207   2.191   8.481   6.965
20655WAT     H262208   2.248   8.367   7.067
20656WAT      O62209   7.578   5.429   6.828
20656WAT     H162210   7.503   5.475   6.780
20656WAT     H262211   7.664   5.449   6.781
20657WAT      O62212   0.957   2.032   1.336
20657WAT     H162213   0.960   2.132   1.332
20657WAT     H262214   1.015   1.994   1.264
20658WAT      O62215   9.199   3.110   1.050
20658WAT     H162216   9.251   3.110   0.964
20658WAT     H262217   9.253   3.155   1.121
20659WAT      O62218   7.734   7.752   7.914
20659WAT     H162219   7.828   7.719   7.922
20659WAT     H262220   7.713   7.815   7.989
20660WAT      O62221   6.824   7.938   5.470
20660WAT     H162222   6.845   7.840   5.475
20660WAT     H262223   6.844   7.972   5.378
20661WAT      O62224   7.306   3.200   2.496
20661WAT     H162225   7.301   3.225   2.593
20661WAT     H262226   7.383   3.138   2.482
20662WAT      O62227   0.058   3.768   0.758
20662WAT     H162228   0.118   3.844   0.781
20662WAT     H262229   0.073   3.692   0.821
20663WAT      O62230   7.329   7.493   5.384
20663WAT     H162231   7.241   7.461   5.347
20663WAT     H262232   7.355   7.434   5.461
20664WAT      O62233   2.330   9.764   3.308
20664WAT     H162234   2.421   9.725   3.321
20664WAT     H262235   2.289   9.782   3.397
20665WAT      O62236   0.052   3.514   0.329
20665WAT     H162237   0.137   3.537   0.283
20665WAT     H262238   0.054   3.552   0.422
20666WAT      O62239   7.634   9.692   5.384
20666WAT     H162240   7.667   9.700   5.290
20666WAT     H262241   7.647   9.598   5.415
20667WAT      O62242   9.167   6.344   5.217
20667WAT     H162243   9.219   6.360   5.301
20667WAT     H262244   9.082   6.297   5.238
20668WAT      O62245   1.567   6.640   5.606
20668WAT     H162246   1.542   6.690   5.523
20668WAT     H262247   1.658   6.667   5.636
20669WAT      O62248   6.244   8.776   4.571
20669WAT     H162249   6.219   8.700   4.631
20669WAT     H262250   6.336   8.809   4.595
20670WAT      O62251   3.172   3.524   5.260
20670WAT     H162252   3.151   3.430   5.286
20670WAT     H262253   3.218   3.571   5.335
20671WAT      O62254   4.260   5.733   4.991
20671WAT     H162255   4.344   5.779   5.019
20671WAT     H262256   4.182   5.775   5.037
20672WAT      O62257   8.863   3.942   9.042
20672WAT     H162258   8.918   3.947   8.959
20672WAT     H262259   8.766   3.950   9.018
20673WAT      O62260   6.406   5.939   9.364
20673WAT     H162261   6.461   5.944   9.447
20673WAT     H262262   6.418   5.849   9.321
20674WAT      O62263   1.116   2.929   9.451
20674WAT     H162264   1.212   2.946   9.431
20674WAT     H262265   1.059   2.970   9.381
20675WAT      O62266   5.063   3.370   8.105
20675WAT     H162267   5.132   3.304   8.134
20675WAT     H262268   4.981   3.359   8.161
20676WAT      O62269   4.919   6.978   1.989
20676WAT     H162270   4.951   7.023   1.905
20676WAT     H262271   4.987   6.988   2.061
20677WAT      O62272   5.105   7.638   9.870
20677WAT     H162273   5.178   7.582   9.830
20677WAT     H262274   5.047   7.580   9.929
20678WAT      O62275   3.077   3.790   4.417
20678WAT     H162276   3.098   3.699   4.453
20678WAT     H262277   3.034   3.845   4.489
20679WAT      O62278   0.111   5.578   7.055
20679WAT     H162279   0.071   5.662   7.019
20679WAT     H262280   0.122   5.511   6.982
20680WAT      O62281   9.352   1.861   0.010
20680WAT     H162282   9.367   1.960   0.009
20680WAT     H262283   9.314   1.835   0.099
20681WAT      O62284   3.348   4.554   2.221
20681WAT     H162285   3.267   4.496   2.224
20681WAT     H262286   3.426   4.504   2.258
20682WAT      O62287   8.287   3.701   3.867
20682WAT     H162288   8.274   3.791   3.908
20682WAT     H262289   8.209   3.679   3.809
20683WAT      O62290   8.831   1.640   5.242
20683WAT     H162291   8.880   1.724   5.267
20683WAT     H262292   8.813   1.641   5.144
20684WAT      O62293   0.580   1.587   1.990
20684WAT     H162294   0.541   1.515   1.932
20684WAT     H262295   0.507   1.648   2.020
20685WAT      O62296   4.858   3.204   2.965
20685WAT     H162297   4.920   3.182   2.890
20685WAT     H262298   4.785   3.136   2.970
20686WAT      O62299   1.469   0.902   3.053
20686WAT     H162300   1.461   0.880   3.151
20686WAT     H262301   1.379   0.929   3.018
20687WAT      O62302   1.260   5.844   1.467
20687WAT     H162303   1.177   5.793   1.488
20687WAT     H262304   1.337   5.780   1.460
20688WAT      O62305   3.853   6.959   1.822
20688WAT     H162306   3.828   7.014   1.742
20688WAT     H262307   3.879   6.867   1.792
20689WAT      O62308   8.361   0.956   6.737
20689WAT     H162309   8.417   0.872   6.734
20689WAT     H262310   8.395   1.015   6.810
20690WAT      O62311   5.537   8.926   6.261
20690WAT     H162312   5.572   8.835   6.280
20690WAT     H262313   5.542   8.982   6.344
20691WAT      O62314   2.347   9.821   0.591
20691WAT     H162315   2.379   9.795   0.682
20691WAT     H262316   2.293   9.746   0.552
20692WAT      O62317   8.805   4.596   6.576
20692WAT     H162318   8.716   4.624   6.612
20692WAT     H262319   8.875   4.608   6.648
20693WAT      O62320   2.690   8.038   6.660
20693WAT     H162321   2.756   8.111   6.678
20693WAT     H262322   2.712   7.995   6.572
20694WAT      O62323   3.429   6.644   8.775
20694WAT     H162324   3.370   6.693   8.711
20694WAT     H262325   3.500   6.594   8.725
20695WAT      O62326   6.092   8.203   4.915
20695WAT     H162327   6.082   8.106   4.894
20695WAT     H262328   6.165   8.242   4.859
20696WAT      O62329   8.712   8.959   8.954
20696WAT     H162330   8.616   8.944   8.928
20696WAT     H262331   8.772   8.918   8.886
20697WAT      O62332   1.096   7.059   1.587
20697WAT     H162333   1.161   7.096   1.653
20697WAT     H262334   1.011   7.111   1.590
20698WAT      O62335   9.516   1.508   5.535
20698WAT     H162336   9.486   1.486   5.628
20698WAT     H262337   9.566   1.430   5.497
20699WAT      O62338   8.348   9.278   1.236
20699WAT     H162339   8.255   9.271   1.273
20699WAT     H262340   8.413   9.294   1.311
20700WAT      O62341   6.564   5.970   7.421
20700WAT     H162342   6.648   5.939   7.466
20700WAT     H262343   6.582   6.054   7.370
20701WAT      O62344   2.120   1.379   5.598
20701WAT     H162345   2.069   1.391   5.513
20701WAT     H262346   2.072   1.314   5.657
20702WAT      O62347   4.210   4.615   6.343
20702WAT     H162348   4.144   4.544   6.321
20702WAT     H262349   4.170   4.705   6.323
20703WAT      O62350   9.842   9.433   7.180
20703WAT     H162351   9.849   9.531   7.199
20703WAT     H262352   9.929   9.388   7.201
20704WAT      O62353   6.055   0.306   0.370
20704WAT     H162354   6.136   0.246   0.363
20704WAT     H262355   6.004   0.302   0.284
20705WAT      O62356   5.544   6.656   0.953
20705WAT     H162357   5.455   6.611   0.952
20705WAT     H262358   5.575   6.671   0.859
20706WAT      O62359   4.147   9.334   7.777
20706WAT     H162360   4.105   9.332   7.687
20706WAT     H262361   4.194   9.247   7.794
20707WAT      O62362   2.732   2.810   0.829
20707WAT     H162363   2.656   2.866   0.862
20707WAT     H262364   2.739   2.727   0.885
20708WAT      O62365   3.719   5.944   3.280
20708WAT     H162366   3.725   6.037   3.317
20708WAT     H262367   3.805   5.896   3.298
20709WAT      O62368   9.498   8.276   7.617
20709WAT     H162369   9.531   8.363   7.580
20709WAT     H262370   9.427   8.239   7.558
20710WAT      O62371   2.859   7.643   1.951
20710WAT     H162372   2.911   7.623   1.868
20710WAT     H262373   2.768   7.602   1.944
20711WAT      O62374   3.500   6.161   3.442
20711WAT     H162375   3.444   6.116   3.372
20711WAT     H262376   3.586   6.190   3.401
20712WAT      O62377   9.002   0.296   7.908
20712WAT     H162378   8.934   0.304   7.835
20712WAT     H262379   8.956   0.291   7.997
20713WAT      O62380   7.580   4.744   3.413
20713WAT     H162381   7.511   4.677   3.385
20713WAT     H262382   7.539   4.810   3.476
20714WAT      O62383   6.217   7.969   2.854
20714WAT     H162384   6.234   7.942   2.760
20714WAT     H262385   6.219   7.888   2.913
20715WAT      O62386   1.843   7.780   8.934
20715WAT     H162387   1.809   7.871   8.959
20715WAT     H262388   1.883   7.784   8.842
20716WAT      O62389   6.418   7.281   3.654
20716WAT     H162390   6.400   7.363   3.600
20716WAT     H262391   6.511   7.284   3.690
20717WAT      O62392   1.457   9.738   8.453
20717WAT     H162393   1.476   9.655   8.401
20717WAT     H262394   1.495   9.817   8.405
20718WAT      O62395   1.051   3.792   2.395
20718WAT     H162396   0.974   3.807   2.456
20718WAT     H262397   1.021   3.802   2.300
20719WAT      O62398   6.502   4.612   7.301
20719WAT     H162399   6.469   4.690   7.247
20719WAT     H262400   6.602   4.611   7.300
20720WAT      O62401   0.860   8.864   9.379
20720WAT     H162402   0.890   8.807   9.302
20720WAT     H262403   0.876   8.960   9.357
20721WAT      O62404   8.294   0.265   9.230
20721WAT     H162405   8.393   0.274   9.236
20721WAT     H262406   8.251   0.349   9.263
20722WAT      O62407   4.075   7.482   3.974
20722WAT     H162408   4.134   7.441   3.903
20722WAT     H262409   4.084   7.430   4.059
20723WAT      O62410   4.796   5.901   1.994
20723WAT     H162411   4.706   5.919   2.034
20723WAT     H262412   4.784   5.861   1.903
20724WAT      O62413   0.648   9.478   5.778
20724WAT     H162414   0.729   9.481   5.719
20724WAT     H262415   0.663   9.536   5.858
20725WAT      O62416   3.460   8.321   8.480
20725WAT     H162417   3.361   8.337   8.487
20725WAT     H262418   3.506   8.407   8.458
20726WAT      O62419   7.037   2.051   6.803
20726WAT     H162420   7.024   2.146   6.776
20726WAT     H262421   7.081   2.001   6.728
20727WAT      O62422   4.030   1.178   7.502
20727WAT     H162423   3.959   1.108   7.495
20727WAT     H262424   4.098   1.149   7.570
20728WAT      O62425   5.439   7.033   6.071
20728WAT     H162426   5.392   6.947   6.091
20728WAT     H262427   5.479   7.070   6.155
20729WAT      O62428   0.170   3.683   8.118
20729WAT     H162429   0.259   3.643   8.139
20729WAT     H262430   0.101   3.610   8.115
20730WAT      O62431   8.668   7.880   4.256
20730WAT     H162432   8.654   7.792   4.211
20730WAT     H262433   8.725   7.938   4.197
20731WAT      O62434   3.395   2.587   8.215
20731WAT     H162435   3.302   2.590   8.178
20731WAT     H262436   3.442   2.507   8.179
20732WAT      O62437   4.057   5.794   1.504
20732WAT     H162438   4.077   5.807   1.406
20732WAT     H262439   3.978   5.849   1.529
20733WAT      O62440   6.546   0.120   9.378
20733WAT     H162441   6.478   0.097   9.448
20733WAT     H262442   6.554   0.219   9.370
20734WAT      O62443   7.766   2.415   4.737
20734WAT     H162444   7.730   2.341   4.681
20734WAT     H262445   7.691   2.463   4.782
20735WAT      O62446   6.172   7.752   6.924
20735WAT     H162447   6.165   7.659   6.960
20735WAT     H262448   6.182   7.817   6.999
20736WAT      O62449   7.244   6.960   7.366
20736WAT     H162450   7.180   7.005   7.304
20736WAT     H262451   7.270   7.022   7.439
20737WAT      O62452   4.868   7.005   9.458
20737WAT     H162453   4.902   7.000   9.365
20737WAT     H262454   4.782   6.955   9.466
20738WAT      O62455   1.985   6.229   1.627
20738WAT     H162456   1.916   6.166   1.663
20738WAT     H262457   2.073   6.209   1.670
20739WAT      O62458   7.174   4.533   9.813
20739WAT     H162459   7.201   4.476   9.735
20739WAT     H262460   7.254   4.583   9.846
20740WAT      O62461   8.452   9.379   8.536
20740WAT     H162462   8.551   9.368   8.542
20740WAT     H262463   8.429   9.476   8.536
20741WAT      O62464   4.204   3.755   9.847
20741WAT     H162465   4.230   3.815   9.923
20741WAT     H262466   4.254   3.782   9.765
20742WAT      O62467   3.280   7.362   8.079
20742WAT     H162468   3.204   7.405   8.030
20742WAT     H262469   3.334   7.433   8.125
20743WAT      O62470   1.259   1.962   4.817
20743WAT     H162471   1.169   2.002   4.796
20743WAT     H262472   1.309   1.946   4.732
20744WAT      O62473   0.836   7.297   9.177
20744WAT     H162474   0.818   7.272   9.271
20744WAT     H262475   0.751   7.297   9.125
20745WAT      O62476   5.608   3.065   5.714
20745WAT     H162477   5.690   3.027   5.757
20745WAT     H262478   5.605   3.039   5.618
20746WAT      O62479   9.444   8.242   4.623
20746WAT     H162480   9.467   8.328   4.670
20746WAT     H262481   9.457   8.254   4.525
20747WAT      O62482   6.617   6.182   4.282
20747WAT     H162483   6.582   6.089   4.290
20747WAT     H262484   6.702   6.181   4.229
20748WAT      O62485   4.649   9.251   3.291
20748WAT     H162486   4.714   9.181   3.260
20748WAT     H262487   4.647   9.326   3.225
20749WAT      O62488   7.320   5.229   5.366
20749WAT     H162489   7.260   5.286   5.311
20749WAT     H262490   7.265   5.160   5.414
20750WAT      O62491   2.133   1.991   6.719
20750WAT     H162492   2.138   1.977   6.818
20750WAT     H262493   2.085   1.915   6.677
20751WAT      O62494   2.392   2.725   9.009
20751WAT     H162495   2.440   2.752   9.092
20751WAT     H262496   2.422   2.783   8.933
20752WAT      O62497   6.253   6.363   3.712
20752WAT     H162498   6.185   6.300   3.751
20752WAT     H262499   6.284   6.329   3.624
20753WAT      O62500   9.660   1.541   3.156
20753WAT     H162501   9.650   1.449   3.194
20753WAT     H262502   9.578   1.564   3.103
20754WAT      O62503   7.427   6.612   9.680
20754WAT     H162504   7.350   6.639   9.739
20754WAT     H262505   7.467   6.694   9.639
20755WAT      O62506   4.682   9.161   2.944
20755WAT     H162507   4.718   9.123   3.029
20755WAT     H262508   4.587   9.189   2.957
20756WAT      O62509   0.276   5.735   1.155
20756WAT     H162510   0.248   5.822   1.194
20756WAT     H262511   0.261   5.737   1.056
20757WAT      O62512   0.513   6.151   6.686
20757WAT     H162513   0.462   6.079   6.639
20757WAT     H262514   0.511   6.134   6.784
20758WAT      O62515   3.631   6.594   0.983
20758WAT     H162516   3.658   6.689   0.999
20758WAT     H262517   3.679   6.560   0.901
20759WAT      O62518   3.813   8.643   7.511
20759WAT     H162519   3.803   8.743   7.516
20759WAT     H262520   3.810   8.614   7.416
20760WAT      O62521   6.677   1.857   1.057
20760WAT     H162522   6.639   1.846   0.965
20760WAT     H262523   6.730   1.776   1.080
20761WAT      O62524   8.021   4.523   2.185
20761WAT     H162525   8.071   4.608   2.203
20761WAT     H262526   7.934   4.525   2.234
20762WAT      O62527   7.376   0.412   8.703
20762WAT     H162528   7.462   0.368   8.731
20762WAT     H262529   7.373   0.505   8.738
20763WAT      O62530   0.208   6.560   1.226
20763WAT     H162531   0.287   6.508   1.260
20763WAT     H262532   0.186   6.634   1.289
20764WAT      O62533   7.323   5.297   2.757
20764WAT     H162534   7.367   5.295   2.667
20764WAT     H262535   7.233   5.252   2.752
20765WAT      O62536   9.820   5.840   4.112
20765WAT     H162537   9.843   5.807   4.204
20765WAT     H262538   9.858   5.931   4.099
20766WAT      O62539   4.593   8.270   2.599
20766WAT     H162540   4.535   8.290   2.678
20766WAT     H262541   4.631   8.178   2.608
20767WAT      O62542   7.450   5.784   3.737
20767WAT     H162543   7.431   5.712   3.803
20767WAT     H262544   7.430   5.873   3.777
20768WAT      O62545   4.398   4.011   0.767
20768WAT     H162546   4.350   3.969   0.844
20768WAT     H262547   4.456   4.085   0.800
20769WAT      O62548   1.305   6.090   8.533
20769WAT     H162549   1.386   6.136   8.497
20769WAT     H262550   1.288   6.007   8.480
20770WAT      O62551   8.793   5.042   4.794
20770WAT     H162552   8.834   4.971   4.738
20770WAT     H262553   8.840   5.047   4.882
20771WAT      O62554   2.154   6.000   1.822
20771WAT     H162555   2.175   5.961   1.732
20771WAT     H262556   2.129   5.926   1.885
20772WAT      O62557   6.526   4.888   3.762
20772WAT     H162558   6.606   4.906   3.704
20772WAT     H262559   6.545   4.915   3.856
20773WAT      O62560   2.048   6.200   9.684
20773WAT     H162561   1.967   6.232   9.735
20773WAT     H262562   2.125   6.261   9.703
20774WAT      O62563   0.277   4.466   4.200
20774WAT     H162564   0.273   4.372   4.166
20774WAT     H262565   0.243   4.528   4.131
20775WAT      O62566   3.384   4.623   2.525
20775WAT     H162567   3.340   4.568   2.454
20775WAT     H262568   3.315   4.678   2.572
20776WAT      O62569   1.714   1.217   6.598
20776WAT     H162570   1.664   1.299   6.627
20776WAT     H262571   1.798   1.245   6.550
20777WAT      O62572   2.541   8.121   7.629
20777WAT     H162573   2.580   8.058   7.696
20777WAT     H262574   2.456   8.083   7.592
20778WAT      O62575   0.053   1.007   3.916
20778WAT     H162576   0.108   0.964   3.988
20778WAT     H262577   0.082   1.102   3.904
20779WAT      O62578   5.583   4.011   7.456
20779WAT     H162579   5.497   4.016   7.507
20779WAT     H262580   5.564   4.008   7.358
20780WAT      O62581   2.099   0.095   4.561
20780WAT     H162582   2.026   0.029   4.583
20780WAT     H262583   2.083   0.180   4.610
20781WAT      O62584   3.252   9.237   9.135
20781WAT     H162585   3.195   9.261   9.214
20781WAT     H262586   3.193   9.216   9.057
20782WAT      O62587   2.825   0.663   9.084
20782WAT     H162588   2.733   0.671   9.123
20782WAT     H262589   2.891   0.644   9.156
20783WAT      O62590   4.976   4.840   4.906
20783WAT     H162591   5.069   4.808   4.925
20783WAT     H262592   4.930   4.862   4.992
20784WAT      O62593   7.351   0.969   4.377
20784WAT     H162594   7.407   0.893   4.344
20784WAT     H262595   7.367   0.982   4.475
20785WAT      O62596   4.638   6.837   0.704
20785WAT     H162597   4.662   6.760   0.763
20785WAT     H262598   4.606   6.803   0.616
20786WAT      O62599   4.274   3.921   0.168
20786WAT     H162600   4.266   3.846   0.233
20786WAT     H262601   4.288   4.007   0.217
20787WAT      O62602   0.818   0.228   8.778
20787WAT     H162603   0.724   0.220   8.745
20787WAT     H262604   0.847   0.141   8.818
20788WAT      O62605   5.731   9.378   5.743
20788WAT     H162606   5.651   9.346   5.795
20788WAT     H262607   5.812   9.330   5.775
20789WAT      O62608   6.889   8.534   7.157
20789WAT     H162609   6.799   8.510   7.194
20789WAT     H262610   6.891   8.631   7.135
20790WAT      O62611   2.525   6.037   9.107
20790WAT     H162612   2.538   5.989   9.193
20790WAT     H262613   2.479   6.124   9.124
20791WAT      O62614   8.560   5.015   1.827
20791WAT     H162615   8.550   4.917   1.811
20791WAT     H262616   8.654   5.036   1.854
20792WAT      O62617   5.909   3.485   8.158
20792WAT     H162618   5.836   3.418   8.171
20792WAT     H262619   5.997   3.442   8.180
20793WAT      O62620   5.842   8.356   5.940
20793WAT     H162621   5.746   8.330   5.931
20793WAT     H262622   5.886   8.353   5.851
20794WAT      O62623   2.410   9.324   0.018
20794WAT     H162624   2.509   9.325   0.033
20794WAT     H262625   2.383   9.236  -0.023
20795WAT      O62626   0.492   3.671   5.683
20795WAT     H162627   0.549   3.640   5.760
20795WAT     H262628   0.395   3.664   5.710
20796WAT      O62629   7.242   2.015   0.519
20796WAT     H162630   7.157   2.021   0.572
20796WAT     H262631   7.255   2.099   0.468
20797WAT      O62632   4.740   3.630   8.640
20797WAT     H162633   4.753   3.534   8.666
20797WAT     H262634   4.642   3.650   8.636
20798WAT      O62635   5.019   3.156   8.417
20798WAT     H162636   4.970   3.088   8.472
20798WAT     H262637   4.954   3.218   8.375
20799WAT      O62638   9.431   5.941   0.091
20799WAT     H162639   9.402   5.915   0.184
20799WAT     H262640   9.500   5.877   0.059
20800WAT      O62641   9.343   6.374   5.436
20800WAT     H162642   9.390   6.308   5.494
20800WAT     H262643   9.349   6.465   5.477
20801WAT      O62644   0.714   5.409   7.235
20801WAT     H162645   0.796   5.359   7.209
20801WAT     H262646   0.633   5.352   7.216
20802WAT      O62647   0.177   0.990   0.115
20802WAT     H162648   0.137   1.045   0.188
20802WAT     H262649   0.232   1.049   0.055
20803WAT      O62650   7.768   0.766   1.765
20803WAT     H162651   7.786   0.848   1.711
20803WAT     H262652   7.694   0.713   1.722
20804WAT      O62653   1.976   9.588   6.031
20804WAT     H162654   1.902   9.520   6.026
20804WAT     H262655   1.937   9.678   6.052
20805WAT      O62656   0.332   2.220   5.754
20805WAT     H162657   0.402   2.223   5.683
20805WAT     H262658   0.340   2.134   5.806
20806WAT      O62659   3.967   6.381   8.335
20806WAT     H162660   3.987   6.396   8.432
20806WAT     H262661   4.053   6.373   8.284
20807WAT      O62662   1.193   8.661   3.301
20807WAT     H162663   1.286   8.697   3.308
20807WAT     H262664   1.161   8.669   3.207
20808WAT      O62665   6.362   3.570   1.766
20808WAT     H162666   6.299   3.597   1.693
20808WAT     H262667   6.380   3.472   1.759
20809WAT      O62668   1.254   4.474   3.272
20809WAT     H162669   1.298   4.420   3.344
20809WAT     H262670   1.158   4.489   3.295
20810WAT      O62671   6.726   0.491   8.790
20810WAT     H162672   6.726   0.465   8.887
20810WAT     H262673   6.670   0.574   8.778
20811WAT      O62674   8.075   2.229   1.038
20811WAT     H162675   8.166   2.259   1.067
20811WAT     H262676   8.053   2.272   0.951
20812WAT      O62677   4.251   8.615   7.692
20812WAT     H162678   4.315   8.546   7.726
20812WAT     H262679   4.170   8.570   7.654
20813WAT      O62680   4.050   5.819   5.185
20813WAT     H162681   4.018   5.767   5.265
20813WAT     H262682   4.063   5.915   5.210
20814WAT      O62683   8.280   8.271   9.121
20814WAT     H162684   8.207   8.228   9.069
20814WAT     H262685   8.250   8.361   9.152
20815WAT      O62686   2.677   8.264   4.018
20815WAT     H162687   2.627   8.252   4.104
20815WAT     H262688   2.679   8.176   3.969
20816WAT      O62689   6.532   0.641   7.400
20816WAT     H162690   6.578   0.719   7.358
20816WAT     H262691   6.495   0.581   7.330
20817WAT      O62692   9.814   9.098   8.362
20817WAT     H162693   9.860   9.020   8.405
20817WAT     H262694   9.771   9.154   8.432
20818WAT      O62695   0.734   5.175   2.294
20818WAT     H162696   0.685   5.092   2.267
20818WAT     H262697   0.803   5.196   2.225
20819WAT      O62698   0.332   5.111   3.820
20819WAT     H162699   0.256   5.173   3.842
20819WAT     H262700   0.376   5.142   3.736
20820WAT      O62701   1.210   3.553   1.475
20820WAT     H162702   1.163   3.468   1.498
20820WAT     H262703   1.173   3.590   1.389
20821WAT      O62704   8.262   2.139   4.380
20821WAT     H162705   8.168   2.173   4.386
20821WAT     H262706   8.261   2.041   4.362
20822WAT      O62707   3.411   6.731   7.286
20822WAT     H162708   3.404   6.650   7.229
20822WAT     H262709   3.320   6.761   7.315
20823WAT      O62710   2.855   3.335   7.850
20823WAT     H162711   2.927   3.319   7.917
20823WAT     H262712   2.853   3.432   7.826
20824WAT      O62713   7.078   6.818   8.875
20824WAT     H162714   7.171   6.819   8.838
20824WAT     H262715   7.028   6.739   8.839
20825WAT      O62716   1.678   5.623   9.604
20825WAT     H162717   1.622   5.564   9.547
20825WAT     H262718   1.702   5.706   9.553
20826WAT      O62719   8.644   8.592   0.827
20826WAT     H162720   8.650   8.643   0.913
20826WAT     H262721   8.673   8.650   0.751
20827WAT      O62722   3.847   8.386   5.271
20827WAT     H162723   3.857   8.484   5.291
20827WAT     H262724   3.920   8.357   5.210
20828WAT      O62725   8.650   7.492   4.878
20828WAT     H162726   8.587   7.515   4.804
20828WAT     H262727   8.655   7.393   4.888
20829WAT      O62728   4.779   6.779   3.943
20829WAT     H162729   4.818   6.725   4.018
20829WAT     H262730   4.765   6.873   3.974
20830WAT      O62731   2.498   9.687   4.045
20830WAT     H162732   2.559   9.674   4.123
20830WAT     H262733   2.439   9.766   4.062
20831WAT      O62734   3.024   0.179   9.045
20831WAT     H162735   3.040   0.157   9.141
20831WAT     H262736   3.024   0.095   8.990
20832WAT      O62737   7.636   2.126   5.608
20832WAT     H162738   7.620   2.158   5.701
20832WAT     H262739   7.726   2.155   5.577
20833WAT      O62740   7.673   0.484   0.310
20833WAT     H162741   7.675   0.412   0.378
20833WAT     H262742   7.668   0.444   0.218
20834WAT      O62743   9.105   3.134   7.765
20834WAT     H162744   9.106   3.099   7.672
20834WAT     H262745   9.073   3.229   7.764
20835WAT      O62746   9.519   3.849   3.901
20835WAT     H162747   9.521   3.792   3.983
20835WAT     H262748   9.433   3.901   3.900
20836WAT      O62749   5.447   2.721   4.747
20836WAT     H162750   5.456   2.634   4.797
20836WAT     H262751   5.409   2.791   4.807
20837WAT      O62752   9.213   2.705   2.735
20837WAT     H162753   9.136   2.666   2.687
20837WAT     H262754   9.207   2.682   2.832
20838WAT      O62755   0.199   6.136   7.086
20838WAT     H162756   0.185   6.110   7.182
20838WAT     H262757   0.235   6.058   7.035
20839WAT      O62758   8.365   1.258   4.279
20839WAT     H162759   8.323   1.201   4.208
20839WAT     H262760   8.406   1.339   4.237
20840WAT      O62761   7.213   4.719   7.633
20840WAT     H162762   7.142   4.662   7.592
20840WAT     H262763   7.269   4.663   7.695
20841WAT      O62764   8.008   7.926   0.360
20841WAT     H162765   7.994   7.973   0.272
20841WAT     H262766   7.998   7.992   0.434
20842WAT      O62767   8.525   7.327   5.269
20842WAT     H162768   8.559   7.407   5.219
20842WAT     H262769   8.475   7.356   5.350
20843WAT      O62770   0.875   7.959   3.424
20843WAT     H162771   0.923   7.950   3.336
20843WAT     H262772   0.916   8.034   3.476
20844WAT      O62773   9.467   2.889   3.440
20844WAT     H162774   9.401   2.955   3.476
20844WAT     H262775   9.459   2.803   3.491
20845WAT      O62776   6.698   1.320   0.182
20845WAT     H162777   6.606   1.289   0.163
20845WAT     H262778   6.760   1.288   0.111
20846WAT      O62779   7.008   8.022   8.635
20846WAT     H162780   6.928   7.968   8.663
20846WAT     H262781   7.065   7.967   8.575
20847WAT      O62782   8.070   4.304   6.956
20847WAT     H162783   8.131   4.226   6.969
20847WAT     H262784   8.125   4.387   6.946
20848WAT      O62785   2.249   0.558   2.689
20848WAT     H162786   2.233   0.657   2.689
20848WAT     H262787   2.163   0.510   2.700
20849WAT      O62788   4.355   4.168   0.259
20849WAT     H162789   4.363   4.127   0.350
20849WAT     H262790   4.302   4.253   0.265
20850WAT      O62791   0.968   5.183   5.632
20850WAT     H162792   0.980   5.159   5.728
20850WAT     H262793   1.037   5.250   5.605
20851WAT      O62794   8.457   0.031   6.140
20851WAT     H162795   8.417   0.090   6.071
20851WAT     H262796   8.390   0.012   6.211
20852WAT      O62797   5.724   1.589   1.662
20852WAT     H162798   5.795   1.650   1.695
20852WAT     H262799   5.635   1.631   1.673
20853WAT      O62800   7.849   4.345   0.803
20853WAT     H162801   7.873   4.427   0.750
20853WAT     H262802   7.781   4.370   0.873
20854WAT      O62803   1.202   2.074   7.611
20854WAT     H162804   1.263   2.052   7.535
20854WAT     H262805   1.227   2.017   7.690
20855WAT      O62806   2.177   7.899   3.937
20855WAT     H162807   2.222   7.817   3.973
20855WAT     H262808   2.124   7.875   3.856
20856WAT      O62809   4.594   4.505   9.731
20856WAT     H162810   4.573   4.444   9.654
20856WAT     H262811   4.546   4.592   9.719
20857WAT      O62812   3.434   2.169   3.550
20857WAT     H162813   3.497   2.224   3.605
20857WAT     H262814   3.391   2.101   3.609
20858WAT      O62815   8.788   0.341   2.691
20858WAT     H162816   8.752   0.426   2.729
20858WAT     H262817   8.715   0.273   2.685
20859WAT      O62818   1.493   2.036   6.403
20859WAT     H162819   1.580   1.987   6.405
20859WAT     H262820   1.419   1.972   6.380
20860WAT      O62821   2.581   5.191   3.463
20860WAT     H162822   2.626   5.135   3.532
20860WAT     H262823   2.488   5.156   3.447
20861WAT      O62824   5.102   7.229   9.312
20861WAT     H162825   5.024   7.226   9.250
20861WAT     H262826   5.110   7.141   9.360
20862WAT      O62827   2.164   1.144   0.245
20862WAT     H162828   2.144   1.179   0.337
20862WAT     H262829   2.256   1.104   0.244
20863WAT      O62830   8.878   1.581   6.981
20863WAT     H162831   8.869   1.674   6.945
20863WAT     H262832   8.797   1.559   7.036
20864WAT      O62833   5.160   2.325   3.252
20864WAT     H162834   5.139   2.350   3.158
20864WAT     H262835   5.082   2.277   3.292
20865WAT      O62836   0.329   1.966   3.443
20865WAT     H162837   0.426   1.945   3.426
20865WAT     H262838   0.305   2.052   3.400
20866WAT      O62839   3.198   5.992   5.151
20866WAT     H162840   3.121   6.056   5.153
20866WAT     H262841   3.199   5.939   5.236
20867WAT      O62842   5.605   4.362   9.481
20867WAT     H162843   5.625   4.362   9.383
20867WAT     H262844   5.639   4.278   9.522
20868WAT      O62845   9.531   9.525   0.046
20868WAT     H162846   9.597   9.599   0.036
20868WAT     H262847   9.463   9.530  -0.027
20869WAT      O62848   6.812   9.646   7.680
20869WAT     H162849   6.791   9.549   7.669
20869WAT     H262850   6.904   9.657   7.717
20870WAT      O62851   2.077   9.225   1.248
20870WAT     H162852   2.022   9.295   1.202
20870WAT     H262853   2.140   9.184   1.182
20871WAT      O62854   7.836   7.764   5.066
20871WAT     H162855   7.844   7.667   5.041
20871WAT     H262856   7.782   7.773   5.149
20872WAT      O62857   2.329   0.664   9.468
20872WAT     H162858   2.277   0.597   9.415
20872WAT     H262859   2.417   0.626   9.493
20873WAT      O62860   8.640   8.730   1.829
20873WAT     H162861   8.725   8.681   1.849
20873WAT     H262862   8.607   8.776   1.911
20874WAT      O62863   8.517   4.743   6.229
20874WAT     H162864   8.441   4.790   6.185
20874WAT     H262865   8.489   4.711   6.320
20875WAT      O62866   9.055   2.203   7.928
20875WAT     H162867   9.051   2.111   7.968
20875WAT     H262868   9.025   2.270   7.995
20876WAT      O62869   4.219   8.427   9.591
20876WAT     H162870   4.225   8.447   9.688
20876WAT     H262871   4.261   8.502   9.539
20877WAT      O62872   6.564   3.465   6.165
20877WAT     H162873   6.593   3.469   6.260
20877WAT     H262874   6.470   3.430   6.160
20878WAT      O62875   4.304   2.964   5.779
20878WAT     H162876   4.293   2.895   5.850
20878WAT     H262877   4.395   2.956   5.738
20879WAT      O62878   5.898   3.153   1.799
20879WAT     H162879   5.870   3.248   1.802
20879WAT     H262880   5.863   3.105   1.880
20880WAT      O62881   6.947   7.056   1.133
20880WAT     H162882   6.894   6.987   1.181
20880WAT     H262883   7.035   7.018   1.104
20881WAT      O62884   4.493   3.415   6.910
20881WAT     H162885   4.484   3.504   6.863
20881WAT     H262886   4.409   3.397   6.962
20882WAT      O62887   2.241   6.583   4.095
20882WAT     H162888   2.284   6.507   4.143
20882WAT     H262889   2.295   6.666   4.108
20883WAT      O62890   5.938   1.642   7.076
20883WAT     H162891   5.868   1.660   7.008
20883WAT     H262892   5.937   1.713   7.146
20884WAT      O62893   8.781   5.509   6.159
20884WAT     H162894   8.741   5.495   6.250
20884WAT     H262895   8.879   5.487   6.162
20885WAT      O62896   7.515   7.588   1.399
20885WAT     H162897   7.506   7.688   1.407
20885WAT     H262898   7.560   7.565   1.314
20886WAT      O62899   1.993   0.652   9.459
20886WAT     H162900   2.032   0.579   9.402
20886WAT     H262901   1.995   0.623   9.555
20887WAT      O62902   7.845   8.310   8.374
20887WAT     H162903   7.837   8.326   8.276
20887WAT     H262904   7.918   8.244   8.392
20888WAT      O62905   3.784   2.926   1.805
20888WAT     H162906   3.712   2.951   1.870
20888WAT     H262907   3.811   2.831   1.819
20889WAT      O62908   7.714   9.658   4.178
20889WAT     H162909   7.802   9.703   4.163
20889WAT     H262910   7.728   9.561   4.197
20890WAT      O62911   8.684   9.665   4.903
20890WAT     H162912   8.735   9.640   4.820
20890WAT     H262913   8.738   9.642   4.984
20891WAT      O62914   7.650   8.115   5.550
20891WAT     H162915   7.638   8.026   5.594
20891WAT     H262916   7.624   8.187   5.613
20892WAT      O62917   4.680   9.705   7.888
20892WAT     H162918   4.674   9.755   7.802
20892WAT     H262919   4.775   9.695   7.915
20893WAT      O62920   3.024   9.837   0.304
20893WAT     H162921   3.060   9.930   0.313
20893WAT     H262922   3.087   9.772   0.346
20894WAT      O62923   8.602   0.075   8.756
20894WAT     H162924   8.630   0.060   8.661
20894WAT     H262925   8.529   0.144   8.758
20895WAT      O62926   9.198   7.980   4.368
20895WAT     H162927   9.185   8.058   4.429
20895WAT     H262928   9.144   7.992   4.285
20896WAT      O62929   3.265   0.336   9.816
20896WAT     H162930   3.225   0.361   9.904
20896WAT     H262931   3.329   0.260   9.829
20897WAT      O62932   2.040   6.843   9.878
20897WAT     H162933   1.983   6.851   9.796
20897WAT     H262934   1.991   6.883   9.956
20898WAT      O62935   7.748   6.869   6.381
20898WAT     H162936   7.824   6.820   6.423
20898WAT     H262937   7.781   6.918   6.300
20899WAT      O62938   0.494   9.739   7.931
20899WAT     H162939   0.404   9.696   7.922
20899WAT     H262940   0.526   9.770   7.842
20900WAT      O62941   8.890   0.096   0.331
20900WAT     H162942   8.962   0.164   0.316
20900WAT     H262943   8.905   0.017   0.270
20901WAT      O62944   5.853   1.450   9.372
20901WAT     H162945   5.946   1.423   9.398
20901WAT     H262946   5.840   1.547   9.392
20902WAT      O62947   9.869   4.041   0.123
20902WAT     H162948   9.962   4.055   0.157
20902WAT     H262949   9.873   3.989   0.037
20903WAT      O62950   8.824   8.948   5.250
20903WAT     H162951   8.825   8.986   5.158
20903WAT     H262952   8.730   8.926   5.277
20904WAT      O62953   7.257   4.527   0.271
20904WAT     H162954   7.239   4.592   0.198
20904WAT     H262955   7.353   4.532   0.299
20905WAT      O62956   2.356   2.833   0.116
20905WAT     H162957   2.406   2.748   0.097
20905WAT     H262958   2.259   2.812   0.127
20906WAT      O62959   2.260   9.435   9.047
20906WAT     H162960   2.265   9.527   9.087
20906WAT     H262961   2.177   9.389   9.079
20907WAT      O62962   1.110   7.102   7.490
20907WAT     H162963   1.193   7.065   7.449
20907WAT     H262964   1.133   7.147   7.576
20908WAT      O62965   4.063   0.302   5.902
20908WAT     H162966   4.058   0.329   5.998
20908WAT     H262967   4.095   0.207   5.896
20909WAT      O62968   4.537   8.664   2.582
20909WAT     H162969   4.531   8.589   2.516
20909WAT     H262970   4.445   8.685   2.616
20910WAT      O62971   5.097   2.783   0.233
20910WAT     H162972   5.025   2.785   0.301
20910WAT     H262973   5.084   2.858   0.167
20911WAT      O62974   6.418   9.210   8.667
20911WAT     H162975   6.367   9.233   8.584
20911WAT     H262976   6.397   9.116   8.694
20912WAT      O62977   7.784   1.770   5.271
20912WAT     H162978   7.858   1.704   5.261
20912WAT     H262979   7.770   1.818   5.184
20913WAT      O62980   0.468   2.102   6.172
20913WAT     H162981   0.392   2.042   6.195
20913WAT     H262982   0.432   2.188   6.136
20914WAT      O62983   9.711   6.064   6.308
20914WAT     H162984   9.792   6.113   6.275
20914WAT     H262985   9.698   5.981   6.254
20915WAT      O62986   5.965   1.004   0.093
20915WAT     H162987   6.050   0.974   0.050
20915WAT     H262988   5.980   1.015   0.192
20916WAT      O62989   7.740   2.716   9.220
20916WAT     H162990   7.711   2.677   9.307
20916WAT     H262991   7.718   2.652   9.146
20917WAT      O62992   9.087   4.263   4.041
20917WAT     H162993   9.072   4.354   4.002
20917WAT     H262994   9.009   4.205   4.018
20918WAT      O62995   2.270   7.314   6.224
20918WAT     H162996   2.292   7.345   6.132
20918WAT     H262997   2.245   7.217   6.222
20919WAT      O62998   8.232   8.751   2.217
20919WAT     H162999   8.259   8.661   2.183
20919WAT     H263000   8.137   8.748   2.248
20920WAT      O63001   7.684   5.770   8.166
20920WAT     H163002   7.747   5.844   8.140
20920WAT     H263003   7.614   5.807   8.228
20921WAT      O63004   1.354   7.779   5.368
20921WAT     H163005   1.415   7.712   5.411
20921WAT     H263006   1.401   7.867   5.360
20922WAT      O63007   6.856   0.906   1.320
20922WAT     H163008   6.804   0.922   1.404
20922WAT     H263009   6.828   0.820   1.279
20923WAT      O63010   3.340   6.853   2.626
20923WAT     H163011   3.241   6.863   2.613
20923WAT     H263012   3.359   6.816   2.717
20924WAT      O63013   3.352   8.041   9.289
20924WAT     H163014   3.313   8.036   9.197
20924WAT     H263015   3.376   7.949   9.320
20925WAT      O63016   5.786   6.474   9.575
20925WAT     H163017   5.859   6.486   9.507
20925WAT     H263018   5.742   6.562   9.592
20926WAT      O63019   2.582   3.346   8.921
20926WAT     H163020   2.548   3.435   8.890
20926WAT     H263021   2.680   3.351   8.938
20927WAT      O63022   5.798   3.071   4.883
20927WAT     H163023   5.723   3.102   4.825
20927WAT     H263024   5.766   2.997   4.943
20928WAT      O63025   0.019   2.310   0.647
20928WAT     H163026   0.039   2.408   0.643
20928WAT     H263027   0.086   2.265   0.706
20929WAT      O63028   9.100   9.263   6.173
20929WAT     H163029   9.015   9.229   6.132
20929WAT     H263030   9.153   9.311   6.103
20930WAT      O63031   1.614   1.130   6.343
20930WAT     H163032   1.645   1.132   6.438
20930WAT     H263033   1.514   1.135   6.340
20931WAT      O63034   0.686   8.677   0.066
20931WAT     H163035   0.776   8.634   0.072
20931WAT     H263036   0.693   8.761   0.012
20932WAT      O63037   7.913   3.994   7.693
20932WAT     H163038   7.998   4.038   7.723
20932WAT     H263039   7.935   3.918   7.632
20933WAT      O63040   7.193   9.147   2.137
20933WAT     H163041   7.131   9.108   2.205
20933WAT     H263042   7.142   9.166   2.053
20934WAT      O63043   2.587   1.578   3.960
20934WAT     H163044   2.540   1.638   3.896
20934WAT     H263045   2.681   1.609   3.971
20935WAT      O63046   5.794   5.724   8.434
20935WAT     H163047   5.784   5.777   8.518
20935WAT     H263048   5.725   5.652   8.431
20936WAT      O63049   2.025   2.406   1.588
20936WAT     H163050   2.084   2.345   1.640
20936WAT     H263051   1.971   2.462   1.651
20937WAT      O63052   6.049   0.117   7.999
20937WAT     H163053   6.030   0.144   8.094
20937WAT     H263054   6.073   0.198   7.946
20938WAT      O63055   8.358   6.677   5.229
20938WAT     H163056   8.263   6.684   5.259
20938WAT     H263057   8.397   6.591   5.261
20939WAT      O63058   6.316   2.545   6.627
20939WAT     H163059   6.365   2.539   6.713
20939WAT     H263060   6.365   2.605   6.564
20940WAT      O63061   8.976   7.447   2.932
20940WAT     H163062   8.915   7.439   2.853
20940WAT     H263063   8.926   7.486   3.009
20941WAT      O63064   2.582   9.330   5.273
20941WAT     H163065   2.576   9.427   5.249
20941WAT     H263066   2.605   9.277   5.192
20942WAT      O63067   9.506   0.773   8.074
20942WAT     H163068   9.487   0.783   7.976
20942WAT     H263069   9.586   0.827   8.098
20943WAT      O63070   3.296   6.359   1.740
20943WAT     H163071   3.202   6.334   1.759
20943WAT     H263072   3.354   6.336   1.819
20944WAT      O63073   3.603   5.640   0.166
20944WAT     H163074   3.663   5.714   0.195
20944WAT     H263075   3.529   5.629   0.232
20945WAT      O63076   9.413   9.701   1.438
20945WAT     H163077   9.327   9.670   1.478
20945WAT     H263078   9.489   9.675   1.497
20946WAT      O63079   0.579   3.454   7.146
20946WAT     H163080   0.659   3.460   7.207
20946WAT     H263081   0.519   3.532   7.161
20947WAT      O63082   6.203   5.974   3.224
20947WAT     H163083   6.286   5.958   3.278
20947WAT     H263084   6.151   6.049   3.265
20948WAT      O63085   1.333   4.116   8.000
20948WAT     H163086   1.248   4.146   8.043
20948WAT     H263087   1.405   4.107   8.069
20949WAT      O63088   3.663   3.580   7.669
20949WAT     H163089   3.625   3.649   7.607
20949WAT     H263090   3.651   3.489   7.629
20950WAT      O63091   8.494   6.713   8.634
20950WAT     H163092   8.520   6.786   8.570
20950WAT     H263093   8.425   6.748   8.697
20951WAT      O63094   1.578   8.100   4.260
20951WAT     H163095   1.498   8.159   4.267
20951WAT     H263096   1.605   8.090   4.165
20952WAT      O63097   0.303   3.115   8.926
20952WAT     H163098   0.315   3.018   8.906
20952WAT     H263099   0.317   3.131   9.024
20953WAT      O63100   7.474   7.910   3.577
20953WAT     H163101   7.377   7.932   3.572
20953WAT     H263102   7.504   7.910   3.673
20954WAT      O63103   9.287   8.343   9.091
20954WAT     H163104   9.188   8.333   9.102
20954WAT     H263105   9.308   8.355   8.994
20955WAT      O63106   9.846   1.748   4.206
20955WAT     H163107   9.775   1.678   4.207
20955WAT     H263108   9.825   1.818   4.275
20956WAT      O63109   8.404   3.911   5.321
20956WAT     H163110   8.451   3.993   5.287
20956WAT     H263111   8.305   3.926   5.318
20957WAT      O63112   1.272   6.719   6.722
20957WAT     H163113   1.206   6.753   6.789
20957WAT     H263114   1.303   6.628   6.749
20958WAT      O63115   8.023   6.004   2.909
20958WAT     H163116   7.929   5.977   2.931
20958WAT     H263117   8.078   6.004   2.993
20959WAT      O63118   6.567   4.400   0.358
20959WAT     H163119   6.587   4.303   0.344
20959WAT     H263120   6.534   4.414   0.452
20960WAT      O63121   8.284   9.633   5.791
20960WAT     H163122   8.361   9.647   5.728
20960WAT     H263123   8.200   9.619   5.738
20961WAT      O63124   3.664   8.029   9.065
20961WAT     H163125   3.732   7.978   9.118
20961WAT     H263126   3.645   8.116   9.111
20962WAT      O63127   1.389   5.244   0.394
20962WAT     H163128   1.453   5.283   0.461
20962WAT     H263129   1.396   5.144   0.396
20963WAT      O63130   3.441   6.967   3.828
20963WAT     H163131   3.415   7.038   3.894
20963WAT     H263132   3.518   6.915   3.864
20964WAT      O63133   8.849   4.073   9.551
20964WAT     H163134   8.851   4.034   9.643
20964WAT     H263135   8.934   4.124   9.535
20965WAT      O63136   5.733   1.412   4.364
20965WAT     H163137   5.766   1.414   4.458
20965WAT     H263138   5.760   1.496   4.317
20966WAT      O63139   7.708   3.393   9.617
20966WAT     H163140   7.745   3.346   9.537
20966WAT     H263141   7.610   3.409   9.605
20967WAT      O63142   1.997   8.579   2.828
20967WAT     H163143   1.959   8.496   2.870
20967WAT     H263144   1.933   8.614   2.759
20968WAT      O63145   7.983   5.056   4.431
20968WAT     H163146   7.911   5.015   4.375
20968WAT     H263147   7.942   5.097   4.513
20969WAT      O63148   1.018   8.442   0.906
20969WAT     H163149   1.038   8.500   0.984
20969WAT     H263150   1.103   8.416   0.860
20970WAT      O63151   4.297   9.225   2.598
20970WAT     H163152   4.288   9.129   2.570
20970WAT     H263153   4.214   9.254   2.646
20971WAT      O63154   2.371   9.723   9.648
20971WAT     H163155   2.422   9.809   9.650
20971WAT     H263156   2.429   9.650   9.684
20972WAT      O63157   1.531   3.728   6.314
20972WAT     H163158   1.553   3.644   6.365
20972WAT     H263159   1.435   3.750   6.327
20973WAT      O63160   2.590   4.632   5.976
20973WAT     H163161   2.673   4.592   5.939
20973WAT     H263162   2.510   4.586   5.937
20974WAT      O63163   7.145   0.984   6.550
20974WAT     H163164   7.161   0.905   6.609
20974WAT     H263165   7.224   1.044   6.552
20975WAT      O63166   4.640   8.919   9.700
20975WAT     H163167   4.725   8.889   9.742
20975WAT     H263168   4.599   8.991   9.756
20976WAT      O63169   1.438   7.269   1.322
20976WAT     H163170   1.484   7.230   1.401
20976WAT     H263171   1.432   7.200   1.250
20977WAT      O63172   3.936   6.239   3.766
20977WAT     H163173   3.948   6.316   3.829
20977WAT     H263174   3.839   6.228   3.744
20978WAT      O63175   3.413   2.864   0.581
20978WAT     H163176   3.337   2.840   0.521
20978WAT     H263177   3.472   2.785   0.593
20979WAT      O63178   8.656   8.361   4.682
20979WAT     H163179   8.727   8.317   4.737
20979WAT     H263180   8.662   8.460   4.693
20980WAT      O63181   1.750   2.292   2.255
20980WAT     H163182   1.681   2.361   2.234
20980WAT     H263183   1.744   2.217   2.190
20981WAT      O63184   8.395   9.779   1.133
20981WAT     H163185   8.375   9.876   1.147
20981WAT     H263186   8.323   9.723   1.173
20982WAT      O63187   2.731   5.948   2.187
20982WAT     H163188   2.660   5.880   2.207
20982WAT     H263189   2.812   5.901   2.149
20983WAT      O63190   8.998   2.000   8.561
20983WAT     H163191   8.997   1.991   8.661
20983WAT     H263192   9.074   1.946   8.524
20984WAT      O63193   3.136   7.862   7.415
20984WAT     H163194   3.200   7.841   7.489
20984WAT     H263195   3.096   7.778   7.380
20985WAT      O63196   3.354   7.141   4.020
20985WAT     H163197   3.367   7.232   3.981
20985WAT     H263198   3.261   7.134   4.058
20986WAT      O63199   8.761   1.488   3.057
20986WAT     H163200   8.822   1.506   2.979
20986WAT     H263201   8.699   1.565   3.069
20987WAT      O63202   8.530   2.639   7.626
20987WAT     H163203   8.445   2.594   7.601
20987WAT     H263204   8.569   2.595   7.706
20988WAT      O63205   8.579   5.673   6.555
20988WAT     H163206   8.646   5.709   6.620
20988WAT     H263207   8.557   5.578   6.579
20989WAT      O63208   6.206   5.852   1.491
20989WAT     H163209   6.265   5.932   1.497
20989WAT     H263210   6.238   5.782   1.555
20990WAT      O63211   3.603   5.442   6.362
20990WAT     H163212   3.586   5.531   6.404
20990WAT     H263213   3.536   5.427   6.289
20991WAT      O63214   7.018   6.305   7.315
20991WAT     H163215   7.004   6.219   7.365
20991WAT     H263216   7.079   6.364   7.368
20992WAT      O63217   7.975   8.603   8.805
20992WAT     H163218   7.964   8.647   8.716
20992WAT     H263219   7.909   8.642   8.870
20993WAT      O63220   8.802   4.494   1.139
20993WAT     H163221   8.711   4.457   1.123
20993WAT     H263222   8.811   4.522   1.234
20994WAT      O63223   5.418   3.507   4.123
20994WAT     H163224   5.458   3.417   4.142
20994WAT     H263225   5.356   3.499   4.044
20995WAT      O63226   3.881   1.265   2.204
20995WAT     H163227   3.874   1.307   2.114
20995WAT     H263228   3.840   1.325   2.273
20996WAT      O63229   7.874   9.668   7.664
20996WAT     H163230   7.849   9.761   7.636
20996WAT     H263231   7.826   9.645   7.749
20997WAT      O63232   6.912   3.431   7.790
20997WAT     H163233   6.984   3.362   7.785
20997WAT     H263234   6.903   3.464   7.884
20998WAT      O63235   6.718   1.495   3.686
20998WAT     H163236   6.667   1.561   3.631
20998WAT     H263237   6.795   1.460   3.634
20999WAT      O63238   0.390   4.754   1.281
20999WAT     H163239   0.324   4.815   1.238
20999WAT     H263240   0.457   4.809   1.332
21000WAT      O63241   9.326   8.005   3.341
21000WAT     H163242   9.355   8.100   3.351
21000WAT     H263243   9.354   7.971   3.251
21001WAT      O63244   0.308   6.760   7.719
21001WAT     H163245   0.271   6.849   7.691
21001WAT     H263246   0.267   6.734   7.806
21002WAT      O63247   3.516   0.605   4.675
21002WAT     H163248   3.597   0.631   4.622
21002WAT     H263249   3.533   0.518   4.721
21003WAT      O63250   4.799   9.286   5.263
21003WAT     H163251   4.787   9.350   5.339
21003WAT     H263252   4.769   9.195   5.291
21004WAT      O63253   5.930   4.999   0.498
21004WAT     H163254   5.910   5.003   0.400
21004WAT     H263255   6.002   5.064   0.520
21005WAT      O63256   2.300   2.305   4.115
21005WAT     H163257   2.263   2.354   4.194
21005WAT     H263258   2.249   2.330   4.033
21006WAT      O63259   5.681   4.292   3.384
21006WAT     H163260   5.763   4.299   3.441
21006WAT     H263261   5.680   4.204   3.338
21007WAT      O63262   6.794   7.352   3.110
21007WAT     H163263   6.799   7.290   3.188
21007WAT     H263264   6.800   7.300   3.025
21008WAT      O63265   4.820   4.041   3.067
21008WAT     H163266   4.825   4.054   2.968
21008WAT     H263267   4.759   4.109   3.107
21009WAT      O63268   0.308   4.374   2.241
21009WAT     H163269   0.218   4.407   2.269
21009WAT     H263270   0.361   4.350   2.323
21010WAT      O63271   7.537   3.891   6.353
21010WAT     H163272   7.626   3.936   6.360
21010WAT     H263273   7.469   3.942   6.406
21011WAT      O63274   7.426   9.031   2.045
21011WAT     H163275   7.355   9.096   2.073
21011WAT     H263276   7.433   9.031   1.945
21012WAT      O63277   8.150   1.559   4.670
21012WAT     H163278   8.112   1.519   4.754
21012WAT     H263279   8.182   1.487   4.610
21013WAT      O63280   3.503   0.886   8.770
21013WAT     H163281   3.566   0.842   8.834
21013WAT     H263282   3.419   0.912   8.818
21014WAT      O63283   4.712   7.702   9.636
21014WAT     H163284   4.681   7.632   9.572
21014WAT     H263285   4.634   7.759   9.662
21015WAT      O63286   4.851   2.880   1.937
21015WAT     H163287   4.774   2.927   1.982
21015WAT     H263288   4.912   2.843   2.007
21016WAT      O63289   1.705   4.534   3.932
21016WAT     H163290   1.607   4.515   3.925
21016WAT     H263291   1.757   4.456   3.895
21017WAT      O63292   5.846   4.058   6.277
21017WAT     H163293   5.916   3.992   6.249
21017WAT     H263294   5.849   4.137   6.216
21018WAT      O63295   0.896   6.275   8.702
21018WAT     H163296   0.993   6.251   8.711
21018WAT     H263297   0.841   6.192   8.707
21019WAT      O63298   8.261   6.720   7.909
21019WAT     H163299   8.320   6.738   7.988
21019WAT     H263300   8.298   6.766   7.828
21020WAT      O63301   7.374   2.631   3.900
21020WAT     H163302   7.467   2.619   3.867
21020WAT     H263303   7.352   2.556   3.963
21021WAT      O63304   4.233   6.313   1.793
21021WAT     H163305   4.194   6.222   1.811
21021WAT     H263306   4.332   6.310   1.807
21022WAT      O63307   4.443   8.072   3.356
21022WAT     H163308   4.360   8.060   3.411
21022WAT     H263309   4.508   8.130   3.405
21023WAT      O63310   3.847   7.477   9.156
21023WAT     H163311   3.901   7.395   9.138
21023WAT     H263312   3.755   7.465   9.120
21024WAT      O63313   5.269   7.780   5.559
21024WAT     H163314   5.254   7.701   5.618
21024WAT     H263315   5.239   7.863   5.605
21025WAT      O63316   7.202   6.702   6.839
21025WAT     H163317   7.210   6.630   6.770
21025WAT     H263318   7.105   6.717   6.859
21026WAT      O63319   1.980   9.245   6.661
21026WAT     H163320   2.068   9.208   6.631
21026WAT     H263321   1.914   9.238   6.586
21027WAT      O63322   2.472   2.055   8.181
21027WAT     H163323   2.531   2.032   8.104
21027WAT     H263324   2.513   2.021   8.266
21028WAT      O63325   6.852   2.967   9.049
21028WAT     H163326   6.842   2.869   9.031
21028WAT     H263327   6.762   3.007   9.068
21029WAT      O63328   4.940   9.584   9.393
21029WAT     H163329   5.017   9.645   9.407
21029WAT     H263330   4.865   9.610   9.453
21030WAT      O63331   9.336   6.191   4.200
21030WAT     H163332   9.304   6.118   4.140
21030WAT     H263333   9.403   6.155   4.264
21031WAT      O63334   1.241   4.086   6.584
21031WAT     H163335   1.197   4.051   6.501
21031WAT     H263336   1.269   4.009   6.641
21032WAT      O63337   2.118   5.412   9.039
21032WAT     H163338   2.151   5.381   8.950
21032WAT     H263339   2.194   5.411   9.105
21033WAT      O63340   6.391   9.341   8.029
21033WAT     H163341   6.368   9.367   7.935
21033WAT     H263342   6.352   9.407   8.093
21034WAT      O63343   4.900   6.190   5.604
21034WAT     H163344   4.820   6.131   5.593
21034WAT     H263345   4.980   6.144   5.567
21035WAT      O63346   9.672   8.500   4.622
21035WAT     H163347   9.721   8.527   4.704
21035WAT     H263348   9.733   8.447   4.563
21036WAT      O63349   5.705   0.714   3.808
21036WAT     H163350   5.762   0.636   3.833
21036WAT     H263351   5.720   0.789   3.873
21037WAT      O63352   5.086   1.746   1.085
21037WAT     H163353   4.987   1.738   1.098
21037WAT     H263354   5.105   1.822   1.023
21038WAT      O63355   3.727   9.616   7.798
21038WAT     H163356   3.820   9.615   7.836
21038WAT     H263357   3.662   9.581   7.865
21039WAT      O63358   6.012   4.690   4.187
21039WAT     H163359   5.956   4.742   4.122
21039WAT     H263360   6.071   4.627   4.138
21040WAT      O63361   7.543   5.490   0.943
21040WAT     H163362   7.623   5.496   1.002
21040WAT     H263363   7.526   5.578   0.900
21041WAT      O63364   2.046   7.749   7.740
21041WAT     H163365   1.998   7.678   7.689
21041WAT     H263366   2.124   7.782   7.688
21042WAT      O63367   9.045   8.461   4.954
21042WAT     H163368   8.974   8.408   4.907
21042WAT     H263369   9.129   8.459   4.900
21043WAT      O63370   6.860   3.600   8.838
21043WAT     H163371   6.907   3.676   8.884
21043WAT     H263372   6.926   3.544   8.789
21044WAT      O63373   8.603   2.527   3.253
21044WAT     H163374   8.701   2.515   3.271
21044WAT     H263375   8.590   2.553   3.157
21045WAT      O63376   5.016   3.918   6.352
21045WAT     H163377   4.981   3.850   6.287
21045WAT     H263378   5.072   3.985   6.303
21046WAT      O63379   2.700   8.502   4.295
21046WAT     H163380   2.684   8.597   4.265
21046WAT     H263381   2.791   8.495   4.336
21047WAT      O63382   8.319   5.033   4.500
21047WAT     H163383   8.388   5.079   4.444
21047WAT     H263384   8.265   5.102   4.550
21048WAT      O63385   4.903   2.755   3.776
21048WAT     H163386   4.984   2.740   3.718
21048WAT     H263387   4.839   2.679   3.763
21049WAT      O63388   3.664   6.423   0.545
21049WAT     H163389   3.605   6.479   0.487
21049WAT     H263390   3.701   6.347   0.492
21050WAT      O63391   8.609   8.064   7.888
21050WAT     H163392   8.531   8.115   7.921
21050WAT     H263393   8.643   8.106   7.804
21051WAT      O63394   8.628   1.791   9.867
21051WAT     H163395   8.616   1.718   9.799
21051WAT     H263396   8.723   1.822   9.866
21052WAT      O63397   6.528   2.218   6.948
21052WAT     H163398   6.517   2.210   7.047
21052WAT     H263399   6.490   2.137   6.904
21053WAT      O63400   9.419   4.958   7.872
21053WAT     H163401   9.432   4.874   7.925
21053WAT     H263402   9.384   4.935   7.782
21054WAT      O63403   4.893   7.513   8.746
21054WAT     H163404   4.985   7.541   8.776
21054WAT     H263405   4.841   7.479   8.825
21055WAT      O63406   4.520   0.432   0.752
21055WAT     H163407   4.499   0.336   0.731
21055WAT     H263408   4.529   0.484   0.667
21056WAT      O63409   7.132   4.607   8.209
21056WAT     H163410   7.039   4.623   8.175
21056WAT     H263411   7.129   4.538   8.281
21057WAT      O63412   8.723   5.610   5.727
21057WAT     H163413   8.628   5.606   5.698
21057WAT     H263414   8.728   5.646   5.820
21058WAT      O63415   1.854   8.726   3.737
21058WAT     H163416   1.779   8.711   3.672
21058WAT     H263417   1.855   8.651   3.803
21059WAT      O63418   9.608   4.919   3.466
21059WAT     H163419   9.553   4.841   3.496
21059WAT     H263420   9.578   5.002   3.512
21060WAT      O63421   7.622   1.312   5.774
21060WAT     H163422   7.679   1.233   5.753
21060WAT     H263423   7.545   1.284   5.831
21061WAT      O63424   5.130   9.817   6.590
21061WAT     H163425   5.102   9.910   6.612
21061WAT     H263426   5.049   9.759   6.579
21062WAT      O63427   7.541   8.637   5.745
21062WAT     H163428   7.601   8.654   5.667
21062WAT     H263429   7.559   8.704   5.816
21063WAT      O63430   4.225   3.727   0.344
21063WAT     H163431   4.268   3.637   0.330
21063WAT     H263432   4.142   3.716   0.398
21064WAT      O63433   4.111   2.651   8.248
21064WAT     H163434   4.132   2.699   8.333
21064WAT     H263435   4.109   2.553   8.264
21065WAT      O63436   7.615   1.817   4.627
21065WAT     H163437   7.579   1.725   4.645
21065WAT     H263438   7.546   1.885   4.648
21066WAT      O63439   9.333   3.744   1.133
21066WAT     H163440   9.253   3.803   1.122
21066WAT     H263441   9.304   3.648   1.138
21067WAT      O63442   7.465   5.269   9.214
21067WAT     H163443   7.442   5.258   9.118
21067WAT     H263444   7.532   5.343   9.224
21068WAT      O63445   8.642   9.508   1.726
21068WAT     H163446   8.571   9.578   1.723
21068WAT     H263447   8.607   9.425   1.769
21069WAT      O63448   9.623   4.798   2.013
21069WAT     H163449   9.640   4.894   2.036
21069WAT     H263450   9.534   4.770   2.049
21070WAT      O63451   8.990   4.183   3.664
21070WAT     H163452   9.076   4.231   3.682
21070WAT     H263453   8.932   4.239   3.605
21071WAT      O63454   8.140   5.401   9.531
21071WAT     H163455   8.050   5.405   9.574
21071WAT     H263456   8.206   5.449   9.588
21072WAT      O63457   2.113   9.467   2.554
21072WAT     H163458   2.074   9.556   2.580
21072WAT     H263459   2.075   9.439   2.466
21073WAT      O63460   9.098   9.339   1.901
21073WAT     H163461   9.023   9.403   1.886
21073WAT     H263462   9.181   9.390   1.923
21074WAT      O63463   1.604   8.864   4.734
21074WAT     H163464   1.553   8.824   4.810
21074WAT     H263465   1.654   8.944   4.766
21075WAT      O63466   8.025   7.658   2.529
21075WAT     H163467   7.961   7.591   2.491
21075WAT     H263468   8.092   7.611   2.587
21076WAT      O63469   7.861   7.069   8.146
21076WAT     H163470   7.857   7.066   8.046
21076WAT     H263471   7.805   7.145   8.179
21077WAT      O63472   8.730   5.449   3.289
21077WAT     H163473   8.639   5.483   3.265
21077WAT     H263474   8.728   5.349   3.296
21078WAT      O63475   1.341   8.488   7.173
21078WAT     H163476   1.325   8.496   7.271
21078WAT     H263477   1.335   8.578   7.129
21079WAT      O63478   8.977   8.600   8.000
21079WAT     H163479   8.956   8.692   8.032
21079WAT     H263480   9.064   8.570   8.038
21080WAT      O63481   6.240   9.455   6.092
21080WAT     H163482   6.240   9.522   6.017
21080WAT     H263483   6.146   9.431   6.115
21081WAT      O63484   0.143   9.551   0.578
21081WAT     H163485   0.092   9.634   0.599
21081WAT     H263486   0.241   9.568   0.591
21082WAT      O63487   6.108   4.481   7.617
21082WAT     H163488   6.142   4.403   7.670
21082WAT     H263489   6.019   4.458   7.578
21083WAT      O63490   9.830   8.812   8.225
21083WAT     H163491   9.761   8.808   8.296
21083WAT     H263492   9.786   8.811   8.135
21084WAT      O63493   0.567   2.593   5.172
21084WAT     H163494   0.643   2.612   5.234
21084WAT     H263495   0.602   2.583   5.079
21085WAT      O63496   1.826   9.622   3.170
21085WAT     H163497   1.852   9.660   3.259
21085WAT     H263498   1.743   9.666   3.138
21086WAT      O63499   3.623   9.841   0.686
21086WAT     H163500   3.688   9.914   0.670
21086WAT     H263501   3.623   9.817   0.783
21087WAT      O63502   5.869   8.529   1.429
21087WAT     H163503   5.872   8.487   1.339
21087WAT     H263504   5.959   8.523   1.472
21088WAT      O63505   1.297   4.342   6.506
21088WAT     H163506   1.377   4.344   6.447
21088WAT     H263507   1.268   4.248   6.522
21089WAT      O63508   3.105   8.141   8.673
21089WAT     H163509   3.020   8.184   8.644
21089WAT     H263510   3.162   8.209   8.720
21090WAT      O63511   3.574   3.523   7.193
21090WAT     H163512   3.563   3.423   7.191
21090WAT     H263513   3.532   3.563   7.112
21091WAT      O63514   4.341   1.618   1.809
21091WAT     H163515   4.420   1.679   1.805
21091WAT     H263516   4.354   1.542   1.746
21092WAT      O63517   5.110   4.243   2.531
21092WAT     H163518   5.176   4.170   2.548
21092WAT     H263519   5.020   4.215   2.564
21093WAT      O63520   7.737   2.426   1.725
21093WAT     H163521   7.697   2.518   1.726
21093WAT     H263522   7.836   2.432   1.728
21094WAT      O63523   3.525   6.120   5.651
21094WAT     H163524   3.604   6.086   5.701
21094WAT     H263525   3.520   6.076   5.561
21095WAT      O63526   5.924   6.673   7.915
21095WAT     H163527   5.888   6.694   7.824
21095WAT     H263528   6.001   6.610   7.907
21096WAT      O63529   9.575   2.695   6.087
21096WAT     H163530   9.615   2.762   6.025
21096WAT     H263531   9.487   2.729   6.121
21097WAT      O63532   3.922   4.349   9.304
21097WAT     H163533   3.972   4.423   9.259
21097WAT     H263534   3.970   4.323   9.387
21098WAT      O63535   3.830   9.700   4.655
21098WAT     H163536   3.776   9.635   4.602
21098WAT     H263537   3.824   9.791   4.612
21099WAT      O63538   5.094   8.868   0.325
21099WAT     H163539   5.042   8.788   0.295
21099WAT     H263540   5.145   8.846   0.408
21100WAT      O63541   2.887   6.483   9.490
21100WAT     H163542   2.980   6.515   9.472
21100WAT     H263543   2.856   6.521   9.577
21101WAT      O63544   7.088   9.143   1.275
21101WAT     H163545   7.087   9.123   1.177
21101WAT     H263546   7.020   9.087   1.321
21102WAT      O63547   6.994   3.652   3.673
21102WAT     H163548   7.022   3.566   3.717
21102WAT     H263549   6.936   3.632   3.594
21103WAT      O63550   1.687   7.238   3.475
21103WAT     H163551   1.675   7.227   3.376
21103WAT     H263552   1.769   7.190   3.503
21104WAT      O63553   3.864   4.536   2.128
21104WAT     H163554   3.838   4.514   2.223
21104WAT     H263555   3.944   4.482   2.103
21105WAT      O63556   6.777   6.205   2.623
21105WAT     H163557   6.697   6.251   2.661
21105WAT     H263558   6.835   6.271   2.575
21106WAT      O63559   1.772   9.586   6.594
21106WAT     H163560   1.780   9.675   6.640
21106WAT     H263561   1.687   9.542   6.623
21107WAT      O63562   0.628   3.775   6.325
21107WAT     H163563   0.619   3.676   6.333
21107WAT     H263564   0.607   3.802   6.231
21108WAT      O63565   6.822   0.767   9.138
21108WAT     H163566   6.822   0.813   9.227
21108WAT     H263567   6.752   0.807   9.080
21109WAT      O63568   2.072   3.762   4.579
21109WAT     H163569   2.163   3.720   4.573
21109WAT     H263570   2.064   3.812   4.665
21110WAT      O63571   0.816   3.902   2.511
21110WAT     H163572   0.729   3.942   2.482
21110WAT     H263573   0.809   3.874   2.607
21111WAT      O63574   6.081   1.434   9.132
21111WAT     H163575   6.142   1.464   9.205
21111WAT     H263576   6.030   1.513   9.096
21112WAT      O63577   7.854   8.605   5.340
21112WAT     H163578   7.825   8.586   5.246
21112WAT     H263579   7.849   8.521   5.393
21113WAT      O63580   5.322   6.028   6.148
21113WAT     H163581   5.302   6.079   6.232
21113WAT     H263582   5.363   6.089   6.081
21114WAT      O63583   9.591   3.391   0.446
21114WAT     H163584   9.615   3.484   0.420
21114WAT     H263585   9.668   3.348   0.494
21115WAT      O63586   0.224   1.749   3.807
21115WAT     H163587   0.170   1.696   3.741
21115WAT     H263588   0.309   1.700   3.827
21116WAT      O63589   8.613   6.873   0.065
21116WAT     H163590   8.698   6.876   0.012
21116WAT     H263591   8.579   6.967   0.078
21117WAT      O63592   4.991   2.823   1.181
21117WAT     H163593   5.054   2.873   1.240
21117WAT     H263594   4.898   2.856   1.196
21118WAT      O63595   0.196   6.846   6.705
21118WAT     H163596   0.192   6.946   6.699
21118WAT     H263597   0.201   6.819   6.801
21119WAT      O63598   1.842   6.998   8.698
21119WAT     H163599   1.749   6.961   8.706
21119WAT     H263600   1.906   6.925   8.678
21120WAT      O63601   4.984   3.493   3.387
21120WAT     H163602   4.922   3.505   3.465
21120WAT     H263603   5.078   3.489   3.419
21121WAT      O63604   7.124   2.778   3.415
21121WAT     H163605   7.125   2.871   3.377
21121WAT     H263606   7.029   2.751   3.431
21122WAT      O63607   4.220   0.375   4.411
21122WAT     H163608   4.235   0.473   4.399
21122WAT     H263609   4.170   0.339   4.332
21123WAT      O63610   6.636   1.359   4.249
21123WAT     H163611   6.550   1.360   4.197
21123WAT     H263612   6.665   1.264   4.263
21124WAT      O63613   7.671   8.693   6.098
21124WAT     H163614   7.629   8.763   6.040
21124WAT     H263615   7.754   8.659   6.053
21125WAT      O63616   5.952   8.736   6.426
21125WAT     H163617   5.976   8.738   6.523
21125WAT     H263618   6.028   8.772   6.372
21126WAT      O63619   1.921   0.617   8.899
21126WAT     H163620   1.997   0.575   8.849
21126WAT     H263621   1.840   0.559   8.891
21127WAT      O63622   1.454   7.870   3.877
21127WAT     H163623   1.440   7.802   3.805
21127WAT     H263624   1.456   7.825   3.966
21128WAT      O63625   4.028   1.315   3.209
21128WAT     H163626   4.002   1.233   3.158
21128WAT     H263627   4.125   1.311   3.232
21129WAT      O63628   4.203   4.167   9.816
21129WAT     H163629   4.234   4.261   9.801
21129WAT     H263630   4.282   4.108   9.831
21130WAT      O63631   8.689   1.746   0.720
21130WAT     H163632   8.700   1.757   0.621
21130WAT     H263633   8.756   1.680   0.753
21131WAT      O63634   0.059   0.227   3.006
21131WAT     H163635   0.047   0.206   3.104
21131WAT     H263636   0.036   0.146   2.952
21132WAT      O63637   5.088   8.655   2.316
21132WAT     H163638   5.058   8.742   2.356
21132WAT     H263639   5.114   8.671   2.220
21133WAT      O63640   8.533   6.589   1.822
21133WAT     H163641   8.612   6.584   1.882
21133WAT     H263642   8.510   6.684   1.804
21134WAT      O63643   5.342   0.998   5.393
21134WAT     H163644   5.260   1.021   5.342
21134WAT     H263645   5.335   0.904   5.427
21135WAT      O63646   4.641   5.754   3.507
21135WAT     H163647   4.726   5.716   3.546
21135WAT     H263648   4.587   5.680   3.468
21136WAT      O63649   9.195   1.618   8.739
21136WAT     H163650   9.152   1.576   8.819
21136WAT     H263651   9.247   1.699   8.768
21137WAT      O63652   5.711   0.878   0.620
21137WAT     H163653   5.651   0.877   0.540
21137WAT     H263654   5.793   0.824   0.601
21138WAT      O63655   4.564   4.924   0.426
21138WAT     H163656   4.487   4.952   0.369
21138WAT     H263657   4.650   4.943   0.379
21139WAT      O63658   2.790   5.278   1.895
21139WAT     H163659   2.869   5.338   1.881
21139WAT     H263660   2.820   5.183   1.902
21140WAT      O63661   0.259   9.018   8.307
21140WAT     H163662   0.183   8.962   8.341
21140WAT     H263663   0.286   8.986   8.216
21141WAT      O63664   3.315   1.948   5.900
21141WAT     H163665   3.268   1.860   5.889
21141WAT     H263666   3.339   1.961   5.997
21142WAT      O63667   8.720   1.632   5.602
21142WAT     H163668   8.650   1.640   5.530
21142WAT     H263669   8.796   1.693   5.581
21143WAT      O63670   7.894   0.913   4.699
21143WAT     H163671   7.838   0.932   4.779
21143WAT     H263672   7.863   0.969   4.622
21144WAT      O63673   6.360   8.354   2.333
21144WAT     H163674   6.286   8.414   2.361
21144WAT     H263675   6.413   8.326   2.413
21145WAT      O63676   2.093   0.892   1.390
21145WAT     H163677   2.026   0.866   1.322
21145WAT     H263678   2.145   0.811   1.418
21146WAT      O63679   9.637   0.128   4.337
21146WAT     H163680   9.608   0.223   4.342
21146WAT     H263681   9.731   0.123   4.303
21147WAT      O63682   3.845   0.316   8.857
21147WAT     H163683   3.815   0.258   8.933
21147WAT     H263684   3.933   0.284   8.823
21148WAT      O63685   5.890   6.845   9.118
21148WAT     H163686   5.830   6.788   9.174
21148WAT     H263687   5.959   6.888   9.176
21149WAT      O63688   5.281   3.124   9.637
21149WAT     H163689   5.272   3.106   9.735
21149WAT     H263690   5.190   3.138   9.598
21150WAT      O63691   8.864   0.465   0.216
21150WAT     H163692   8.825   0.452   0.125
21150WAT     H263693   8.797   0.439   0.285
21151WAT      O63694   4.685   1.670   6.031
21151WAT     H163695   4.744   1.591   6.014
21151WAT     H263696   4.662   1.675   6.128
21152WAT      O63697   4.901   9.696   6.622
21152WAT     H163698   4.865   9.631   6.556
21152WAT     H263699   4.846   9.692   6.706
21153WAT      O63700   7.016   9.238   3.553
21153WAT     H163701   7.004   9.279   3.463
21153WAT     H263702   6.927   9.215   3.592
21154WAT      O63703   1.284   8.227   9.429
21154WAT     H163704   1.221   8.247   9.355
21154WAT     H263705   1.246   8.155   9.487
21155WAT      O63706   7.784   1.397   9.589
21155WAT     H163707   7.798   1.398   9.490
21155WAT     H263708   7.722   1.322   9.613
21156WAT      O63709   7.180   3.732   6.322
21156WAT     H163710   7.279   3.727   6.337
21156WAT     H263711   7.148   3.824   6.343
21157WAT      O63712   8.088   9.481   1.139
21157WAT     H163713   8.073   9.399   1.194
21157WAT     H263714   8.185   9.489   1.116
21158WAT      O63715   2.832   1.783   8.967
21158WAT     H163716   2.924   1.744   8.969
21158WAT     H263717   2.788   1.759   8.881
21159WAT      O63718   2.074   0.005   7.616
21159WAT     H163719   2.096   0.050   7.702
21159WAT     H263720   2.009   0.060   7.565
21160WAT      O63721   2.473   6.719   9.573
21160WAT     H163722   2.463   6.632   9.525
21160WAT     H263723   2.480   6.702   9.671
21161WAT      O63724   1.766   0.439   7.138
21161WAT     H163725   1.703   0.429   7.215
21161WAT     H263726   1.817   0.353   7.125
21162WAT      O63727   5.464   3.538   4.619
21162WAT     H163728   5.545   3.492   4.581
21162WAT     H263729   5.412   3.581   4.545
21163WAT      O63730   6.576   9.323   6.703
21163WAT     H163731   6.556   9.421   6.706
21163WAT     H263732   6.583   9.293   6.608
21164WAT      O63733   9.146   9.235   7.496
21164WAT     H163734   9.174   9.170   7.425
21164WAT     H263735   9.224   9.256   7.554
21165WAT      O63736   4.808   5.368   5.600
21165WAT     H163737   4.895   5.418   5.605
21165WAT     H263738   4.732   5.432   5.607
21166WAT      O63739   7.549   1.327   7.344
21166WAT     H163740   7.595   1.246   7.381
21166WAT     H263741   7.543   1.319   7.245
21167WAT      O63742   5.390   5.673   7.312
21167WAT     H163743   5.297   5.710   7.312
21167WAT     H263744   5.386   5.574   7.324
21168WAT      O63745   2.365   7.505   8.571
21168WAT     H163746   2.347   7.501   8.669
21168WAT     H263747   2.442   7.567   8.554
21169WAT      O63748   2.421   3.322   3.606
21169WAT     H163749   2.440   3.415   3.638
21169WAT     H263750   2.322   3.306   3.608
21170WAT      O63751   0.890   1.543   8.722
21170WAT     H163752   0.849   1.533   8.631
21170WAT     H263753   0.934   1.457   8.748
21171WAT      O63754   8.019   0.498   3.341
21171WAT     H163755   7.978   0.489   3.250
21171WAT     H263756   7.999   0.416   3.394
21172WAT      O63757   1.692   4.335   2.316
21172WAT     H163758   1.765   4.297   2.373
21172WAT     H263759   1.684   4.283   2.232
21173WAT      O63760   1.665   5.313   0.740
21173WAT     H163761   1.764   5.323   0.729
21173WAT     H263762   1.618   5.349   0.660
21174WAT      O63763   6.602   1.272   1.393
21174WAT     H163764   6.585   1.187   1.444
21174WAT     H263765   6.522   1.331   1.401
21175WAT      O63766   9.665   5.517   7.992
21175WAT     H163767   9.717   5.518   7.906
21175WAT     H263768   9.706   5.450   8.054
21176WAT      O63769   5.929   6.772   0.728
21176WAT     H163770   5.845   6.718   0.740
21176WAT     H263771   5.906   6.869   0.727
21177WAT      O63772   9.361   0.008   3.932
21177WAT     H163773   9.372  -0.005   3.834
21177WAT     H263774   9.265  -0.008   3.957
21178WAT      O63775   1.500   2.381   8.269
21178WAT     H163776   1.474   2.435   8.190
21178WAT     H263777   1.418   2.339   8.309
21179WAT      O63778   5.057   0.600   0.797
21179WAT     H163779   5.132   0.596   0.863
21179WAT     H263780   4.979   0.548   0.832
21180WAT      O63781   5.565   0.054   9.127
21180WAT     H163782   5.540  -0.040   9.153
21180WAT     H263783   5.494   0.117   9.158
21181WAT      O63784   0.563   7.563   8.543
21181WAT     H163785   0.617   7.594   8.464
21181WAT     H263786   0.502   7.636   8.572
21182WAT      O63787   0.434   4.707   3.950
21182WAT     H163788   0.343   4.668   3.959
21182WAT     H263789   0.435   4.799   3.991
21183WAT      O63790   2.960   3.863   8.032
21183WAT     H163791   3.015   3.790   8.072
21183WAT     H263792   3.019   3.922   7.976
21184WAT      O63793   5.871   3.198   9.260
21184WAT     H163794   5.809   3.270   9.290
21184WAT     H263795   5.823   3.135   9.200
21185WAT      O63796   7.201   4.477   3.326
21185WAT     H163797   7.171   4.533   3.404
21185WAT     H263798   7.152   4.390   3.327
21186WAT      O63799   4.854   0.875   3.284
21186WAT     H163800   4.761   0.910   3.273
21186WAT     H263801   4.918   0.951   3.298
21187WAT      O63802   2.307   1.888   4.896
21187WAT     H163803   2.245   1.813   4.875
21187WAT     H263804   2.297   1.914   4.992
21188WAT      O63805   2.182   8.022   2.938
21188WAT     H163806   2.148   8.066   2.854
21188WAT     H263807   2.171   8.085   3.015
21189WAT      O63808   7.001   8.183   1.618
21189WAT     H163809   6.950   8.097   1.628
21189WAT     H263810   7.077   8.170   1.554
21190WAT      O63811   2.462   5.172   2.634
21190WAT     H163812   2.413   5.092   2.599
21190WAT     H263813   2.397   5.244   2.657
21191WAT      O63814   2.502   8.377   5.910
21191WAT     H163815   2.585   8.332   5.943
21191WAT     H263816   2.517   8.409   5.816
21192WAT      O63817   9.236   6.266   0.742
21192WAT     H163818   9.235   6.218   0.830
21192WAT     H263819   9.289   6.213   0.676
21193WAT      O63820   6.400   0.968   7.964
21193WAT     H163821   6.451   0.952   8.048
21193WAT     H263822   6.375   0.881   7.922
21194WAT      O63823   3.400   5.377   8.304
21194WAT     H163824   3.498   5.398   8.305
21194WAT     H263825   3.348   5.462   8.318
21195WAT      O63826   2.445   8.386   7.706
21195WAT     H163827   2.459   8.293   7.675
21195WAT     H263828   2.468   8.392   7.804
21196WAT      O63829   7.771   1.051   5.357
21196WAT     H163830   7.720   0.997   5.290
21196WAT     H263831   7.781   0.998   5.441
21197WAT      O63832   3.073   7.521   9.896
21197WAT     H163833   2.978   7.551   9.888
21197WAT     H263834   3.117   7.524   9.807
21198WAT      O63835   2.769   2.315   6.894
21198WAT     H163836   2.820   2.281   6.973
21198WAT     H263837   2.711   2.392   6.922
21199WAT      O63838   0.517   9.281   8.546
21199WAT     H163839   0.422   9.252   8.561
21199WAT     H263840   0.561   9.219   8.481
21200WAT      O63841   8.519   2.797   6.797
21200WAT     H163842   8.435   2.831   6.841
21200WAT     H263843   8.550   2.865   6.730
21201WAT      O63844   2.494   1.472   6.834
21201WAT     H163845   2.520   1.396   6.894
21201WAT     H263846   2.536   1.557   6.868
21202WAT      O63847   6.990   6.158   4.986
21202WAT     H163848   6.898   6.119   4.981
21202WAT     H263849   7.047   6.103   5.047
21203WAT      O63850   6.519   0.534   6.895
21203WAT     H163851   6.491   0.453   6.843
21203WAT     H263852   6.588   0.585   6.843
21204WAT      O63853   4.384   9.445   7.689
21204WAT     H163854   4.307   9.469   7.749
21204WAT     H263855   4.470   9.460   7.737
21205WAT      O63856   8.978   9.160   4.913
21205WAT     H163857   9.057   9.100   4.921
21205WAT     H263858   9.006   9.255   4.930
21206WAT      O63859   8.999   5.779   0.237
21206WAT     H163860   8.963   5.737   0.153
21206WAT     H263861   9.001   5.878   0.227
21207WAT      O63862   3.596   0.245   3.467
21207WAT     H163863   3.610   0.146   3.465
21207WAT     H263864   3.503   0.265   3.499
21208WAT      O63865   8.043   7.149   5.578
21208WAT     H163866   8.074   7.063   5.538
21208WAT     H263867   8.120   7.214   5.581
21209WAT      O63868   8.893   7.964   6.356
21209WAT     H163869   8.881   7.872   6.392
21209WAT     H263870   8.816   8.021   6.385
21210WAT      O63871   6.630   9.628   1.137
21210WAT     H163872   6.669   9.561   1.074
21210WAT     H263873   6.598   9.707   1.085
21211WAT      O63874   4.357   0.288   3.141
21211WAT     H163875   4.358   0.334   3.230
21211WAT     H263876   4.444   0.302   3.095
21212WAT      O63877   2.651   5.022   0.963
21212WAT     H163878   2.717   5.046   0.892
21212WAT     H263879   2.689   4.951   1.022
21213WAT      O63880   4.090   0.683   3.358
21213WAT     H163881   4.092   0.774   3.317
21213WAT     H263882   4.183   0.646   3.364
21214WAT      O63883   7.886   7.795   0.875
21214WAT     H163884   7.954   7.765   0.808
21214WAT     H263885   7.908   7.756   0.964
21215WAT      O63886   9.451   7.530   4.401
21215WAT     H163887   9.387   7.545   4.326
21215WAT     H263888   9.501   7.444   4.386
21216WAT      O63889   8.419   5.123   2.468
21216WAT     H163890   8.428   5.210   2.516
21216WAT     H263891   8.509   5.092   2.438
21217WAT      O63892   0.181   4.936   5.330
21217WAT     H163893   0.188   4.847   5.376
21217WAT     H263894   0.247   4.999   5.369
21218WAT      O63895   5.269   8.580   6.872
21218WAT     H163896   5.213   8.553   6.794
21218WAT     H263897   5.284   8.502   6.931
21219WAT      O63898   6.764   0.838   5.143
21219WAT     H163899   6.782   0.857   5.240
21219WAT     H263900   6.722   0.918   5.101
21220WAT      O63901   3.090   4.929   1.573
21220WAT     H163902   3.136   5.017   1.584
21220WAT     H263903   3.148   4.868   1.519
21221WAT      O63904   6.320   9.606   7.455
21221WAT     H163905   6.280   9.560   7.376
21221WAT     H263906   6.319   9.544   7.534
21222WAT      O63907   6.275   5.078   7.089
21222WAT     H163908   6.288   5.164   7.140
21222WAT     H263909   6.347   5.068   7.021
21223WAT      O63910   4.005   3.845   7.699
21223WAT     H163911   4.070   3.825   7.626
21223WAT     H263912   4.055   3.877   7.780
21224WAT      O63913   1.192   4.539   9.749
21224WAT     H163914   1.121   4.469   9.739
21224WAT     H263915   1.226   4.565   9.658
21225WAT      O63916   0.541   9.130   5.905
21225WAT     H163917   0.498   9.040   5.907
21225WAT     H263918   0.572   9.154   5.997
21226WAT      O63919   8.775   6.944   5.364
21226WAT     H163920   8.802   6.922   5.458
21226WAT     H263921   8.691   6.896   5.340
21227WAT      O63922   4.007   3.244   8.037
21227WAT     H163923   3.978   3.168   8.095
21227WAT     H263924   3.932   3.273   7.978
21228WAT      O63925   6.252   6.110   0.952
21228WAT     H163926   6.163   6.141   0.986
21228WAT     H263927   6.323   6.172   0.986
21229WAT      O63928   1.255   4.254   5.835
21229WAT     H163929   1.222   4.164   5.864
21229WAT     H263930   1.310   4.244   5.752
21230WAT      O63931   5.427   9.398   4.041
21230WAT     H163932   5.401   9.407   4.137
21230WAT     H263933   5.404   9.482   3.992
21231WAT      O63934   3.508   1.089   0.380
21231WAT     H163935   3.430   1.143   0.411
21231WAT     H263936   3.503   0.997   0.418
21232WAT      O63937   1.303   0.300   5.041
21232WAT     H163938   1.210   0.263   5.033
21232WAT     H263939   1.299   0.393   5.077
21233WAT      O63940   3.752   5.634   4.463
21233WAT     H163941   3.695   5.634   4.381
21233WAT     H263942   3.698   5.601   4.541
21234WAT      O63943   2.350   6.868   6.754
21234WAT     H163944   2.414   6.817   6.811
21234WAT     H263945   2.262   6.819   6.749
21235WAT      O63946   2.950   6.314   7.596
21235WAT     H163947   3.019   6.263   7.544
21235WAT     H263948   2.936   6.403   7.553
21236WAT      O63949   6.428   3.900   3.064
21236WAT     H163950   6.520   3.878   3.099
21236WAT     H263951   6.363   3.832   3.097
21237WAT      O63952   4.521   3.022   0.377
21237WAT     H163953   4.527   3.030   0.477
21237WAT     H263954   4.506   2.927   0.352
21238WAT      O63955   7.640   3.430   4.778
21238WAT     H163956   7.697   3.500   4.821
21238WAT     H263957   7.544   3.458   4.784
21239WAT      O63958   0.250   3.837   1.904
21239WAT     H163959   0.206   3.749   1.884
21239WAT     H263960   0.346   3.822   1.928
21240WAT      O63961   7.243   2.249   0.137
21240WAT     H163962   7.322   2.204   0.093
21240WAT     H263963   7.235   2.343   0.104
21241WAT      O63964   5.478   6.098   5.379
21241WAT     H163965   5.459   6.185   5.423
21241WAT     H263966   5.497   6.112   5.282
21242WAT      O63967   5.709   2.043   9.449
21242WAT     H163968   5.788   2.090   9.488
21242WAT     H263969   5.656   2.002   9.523
21243WAT      O63970   9.126   5.336   2.473
21243WAT     H163971   9.207   5.330   2.414
21243WAT     H263972   9.044   5.343   2.416
21244WAT      O63973   4.984   2.472   0.539
21244WAT     H163974   4.887   2.448   0.543
21244WAT     H263975   5.021   2.478   0.631
21245WAT      O63976   7.392   6.553   1.118
21245WAT     H163977   7.375   6.618   1.193
21245WAT     H263978   7.310   6.545   1.062
21246WAT      O63979   0.952   3.884   5.912
21246WAT     H163980   0.917   3.838   5.831
21246WAT     H263981   0.900   3.967   5.929
21247WAT      O63982   1.052   2.371   1.581
21247WAT     H163983   1.049   2.470   1.575
21247WAT     H263984   1.010   2.331   1.499
21248WAT      O63985   5.296   2.165   8.567
21248WAT     H163986   5.307   2.260   8.537
21248WAT     H263987   5.380   2.114   8.551
21249WAT      O63988   4.972   7.845   5.989
21249WAT     H163989   4.910   7.913   5.949
21249WAT     H263990   4.976   7.857   6.088
21250WAT      O63991   7.061   0.613   3.513
21250WAT     H163992   7.008   0.530   3.497
21250WAT     H263993   7.154   0.600   3.478
21251WAT      O63994   0.341   7.131   8.608
21251WAT     H163995   0.421   7.073   8.591
21251WAT     H263996   0.351   7.217   8.559
21252WAT      O63997   9.637   6.008   0.937
21252WAT     H163998   9.697   6.011   0.857
21252WAT     H263999   9.604   6.099   0.958
21253WAT      O64000   6.149   8.358   9.182
21253WAT     H164001   6.181   8.421   9.111
21253WAT     H264002   6.183   8.266   9.164
21254WAT      O64003   3.486   2.892   1.432
21254WAT     H164004   3.398   2.860   1.469
21254WAT     H264005   3.556   2.822   1.449
21255WAT      O64006   0.860   4.063   5.244
21255WAT     H164007   0.774   4.059   5.194
21255WAT     H264008   0.934   4.031   5.185
21256WAT      O64009   8.178   2.739   6.445
21256WAT     H164010   8.201   2.671   6.515
21256WAT     H264011   8.084   2.770   6.459
21257WAT      O64012   8.193   2.735   3.408
21257WAT     H164013   8.241   2.657   3.367
21257WAT     H264014   8.261   2.797   3.447
21258WAT      O64015   0.889   9.512   0.541
21258WAT     H164016   0.975   9.526   0.492
21258WAT     H264017   0.903   9.524   0.639
21259WAT      O64018   1.789   9.473   9.159
21259WAT     H164019   1.730   9.485   9.238
21259WAT     H264020   1.858   9.403   9.178
21260WAT      O64021   8.416   4.044   7.391
21260WAT     H164022   8.415   3.994   7.305
21260WAT     H264023   8.342   4.111   7.392
21261WAT      O64024   8.080   1.051   7.047
21261WAT     H164025   8.036   1.084   7.130
21261WAT     H264026   8.179   1.043   7.062
21262WAT      O64027   7.876   1.420   5.711
21262WAT     H164028   7.913   1.380   5.627
21262WAT     H264029   7.785   1.384   5.728
21263WAT      O64030   3.366   6.915   7.878
21263WAT     H164031   3.441   6.904   7.942
21263WAT     H264032   3.309   6.992   7.905
21264WAT      O64033   2.805   1.938   4.584
21264WAT     H164034   2.823   1.844   4.557
21264WAT     H264035   2.832   1.951   4.679
21265WAT      O64036   3.723   8.102   5.542
21265WAT     H164037   3.667   8.168   5.592
21265WAT     H264038   3.813   8.142   5.525
21266WAT      O64039   2.085   7.110   9.531
21266WAT     H164040   2.058   7.152   9.617
21266WAT     H264041   2.174   7.067   9.541
21267WAT      O64042   3.873   7.114   4.205
21267WAT     H164043   3.850   7.018   4.219
21267WAT     H264044   3.892   7.157   4.293
21268WAT      O64045   4.473   1.080   6.662
21268WAT     H164046   4.547   1.054   6.724
21268WAT     H264047   4.508   1.141   6.591
21269WAT      O64048   0.294   2.006   1.083
21269WAT     H164049   0.352   2.083   1.109
21269WAT     H264050   0.262   2.019   0.989
21270WAT      O64051   1.946   4.047   7.485
21270WAT     H164052   1.889   4.121   7.519
21270WAT     H264053   2.008   4.016   7.557
21271WAT      O64054   4.181   7.775   1.759
21271WAT     H164055   4.269   7.742   1.724
21271WAT     H264056   4.158   7.862   1.715
21272WAT      O64057   0.517   3.618   7.491
21272WAT     H164058   0.514   3.652   7.585
21272WAT     H264059   0.503   3.694   7.427
21273WAT      O64060   8.714   9.801   2.468
21273WAT     H164061   8.762   9.755   2.543
21273WAT     H264062   8.741   9.761   2.381
21274WAT      O64063   7.788   3.443   9.265
21274WAT     H164064   7.780   3.491   9.178
21274WAT     H264065   7.710   3.380   9.275
21275WAT      O64066   3.060   1.642   8.995
21275WAT     H164067   3.110   1.564   8.957
21275WAT     H264068   3.094   1.663   9.086
21276WAT      O64069   3.515   8.107   4.030
21276WAT     H164070   3.592   8.169   4.014
21276WAT     H264071   3.540   8.014   4.002
21277WAT      O64072   0.868   6.037   2.849
21277WAT     H164073   0.876   5.984   2.764
21277WAT     H264074   0.773   6.062   2.864
21278WAT      O64075   1.556   0.984   9.638
21278WAT     H164076   1.639   0.968   9.692
21278WAT     H264077   1.503   0.900   9.633
21279WAT      O64078   7.929   3.786   3.974
21279WAT     H164079   7.949   3.817   3.881
21279WAT     H264080   7.962   3.854   4.040
21280WAT      O64081   7.575   7.134   0.939
21280WAT     H164082   7.564   7.233   0.950
21280WAT     H264083   7.485   7.091   0.929
21281WAT      O64084   8.920   3.417   5.666
21281WAT     H164085   8.882   3.325   5.659
21281WAT     H264086   8.936   3.454   5.574
21282WAT      O64087   6.563   2.328   9.573
21282WAT     H164088   6.475   2.306   9.531
21282WAT     H264089   6.557   2.416   9.620
21283WAT      O64090   4.163   8.668   3.624
21283WAT     H164091   4.152   8.663   3.525
21283WAT     H264092   4.074   8.655   3.669
21284WAT      O64093   0.759   3.995   4.860
21284WAT     H164094   0.784   3.925   4.793
21284WAT     H264095   0.842   4.031   4.903
21285WAT      O64096   1.228   1.373   6.367
21285WAT     H164097   1.265   1.284   6.394
21285WAT     H264098   1.130   1.375   6.384
21286WAT      O64099   1.456   1.685   3.653
21286WAT     H164100   1.407   1.769   3.632
21286WAT     H264101   1.495   1.647   3.569
21287WAT      O64102   4.308   4.955   3.793
21287WAT     H164103   4.400   4.919   3.777
21287WAT     H264104   4.314   5.038   3.848
21288WAT      O64105   7.915   0.446   2.170
21288WAT     H164106   8.004   0.482   2.200
21288WAT     H264107   7.843   0.510   2.196
21289WAT      O64108   2.617   4.531   5.103
21289WAT     H164109   2.638   4.628   5.113
21289WAT     H264110   2.569   4.499   5.185
21290WAT      O64111   2.719   8.679   0.118
21290WAT     H164112   2.776   8.724   0.049
21290WAT     H264113   2.624   8.680   0.088
21291WAT      O64114   3.723   3.285   3.031
21291WAT     H164115   3.816   3.280   2.993
21291WAT     H264116   3.719   3.357   3.100
21292WAT      O64117   7.061   9.577   3.828
21292WAT     H164118   6.987   9.528   3.873
21292WAT     H264119   7.111   9.515   3.768
21293WAT      O64120   0.095   7.453   0.867
21293WAT     H164121   0.085   7.420   0.961
21293WAT     H264122   0.016   7.508   0.842
21294WAT      O64123   4.575   9.752   2.354
21294WAT     H164124   4.482   9.777   2.383
21294WAT     H264125   4.573   9.664   2.307
21295WAT      O64126   2.258   7.582   2.225
21295WAT     H164127   2.239   7.538   2.137
21295WAT     H264128   2.336   7.643   2.216
21296WAT      O64129   6.210   1.868   5.276
21296WAT     H164130   6.223   1.861   5.178
21296WAT     H264131   6.261   1.947   5.311
21297WAT      O64132   3.170   9.117   1.278
21297WAT     H164133   3.194   9.029   1.236
21297WAT     H264134   3.091   9.104   1.338
21298WAT      O64135   3.675   4.452   9.803
21298WAT     H164136   3.745   4.470   9.734
21298WAT     H264137   3.641   4.538   9.840
21299WAT      O64138   7.552   4.227   3.265
21299WAT     H164139   7.637   4.179   3.243
21299WAT     H264140   7.532   4.215   3.363
21300WAT      O64141   8.241   0.871   2.108
21300WAT     H164142   8.142   0.876   2.114
21300WAT     H264143   8.283   0.931   2.176
21301WAT      O64144   1.822   2.779   2.969
21301WAT     H164145   1.833   2.726   2.885
21301WAT     H264146   1.898   2.760   3.031
21302WAT      O64147   8.621   7.872   8.077
21302WAT     H164148   8.685   7.808   8.035
21302WAT     H264149   8.607   7.950   8.016
21303WAT      O64150   3.672   6.487   1.998
21303WAT     H164151   3.691   6.397   1.957
21303WAT     H264152   3.751   6.515   2.053
21304WAT      O64153   7.666   2.815   4.515
21304WAT     H164154   7.566   2.809   4.511
21304WAT     H264155   7.692   2.881   4.585
21305WAT      O64156   8.864   8.844   9.314
21305WAT     H164157   8.795   8.899   9.267
21305WAT     H264158   8.830   8.817   9.404
21306WAT      O64159   1.572   5.992   2.734
21306WAT     H164160   1.487   6.034   2.763
21306WAT     H264161   1.647   6.057   2.746
21307WAT      O64162   4.677   2.620   3.866
21307WAT     H164163   4.600   2.563   3.893
21307WAT     H264164   4.644   2.703   3.822
21308WAT      O64165   6.252   1.666   1.217
21308WAT     H164166   6.294   1.582   1.182
21308WAT     H264167   6.173   1.642   1.274
21309WAT      O64168   0.212   2.408   7.510
21309WAT     H164169   0.256   2.320   7.489
21309WAT     H264170   0.282   2.477   7.527
21310WAT      O64171   0.687   1.463   0.343
21310WAT     H164172   0.781   1.453   0.308
21310WAT     H264173   0.630   1.504   0.273
21311WAT      O64174   5.154   5.876   3.175
21311WAT     H164175   5.184   5.886   3.269
21311WAT     H264176   5.172   5.960   3.124
21312WAT      O64177   4.808   3.899   9.615
21312WAT     H164178   4.759   3.934   9.535
21312WAT     H264179   4.906   3.906   9.600
21313WAT      O64180   1.492   7.783   4.365
21313WAT     H164181   1.463   7.712   4.429
21313WAT     H264182   1.588   7.769   4.340
21314WAT      O64183   8.630   3.929   7.525
21314WAT     H164184   8.668   3.853   7.473
21314WAT     H264185   8.546   3.962   7.481
21315WAT      O64186   4.794   2.954   1.328
21315WAT     H164187   4.846   3.008   1.395
21315WAT     H264188   4.699   2.983   1.328
21316WAT      O64189   1.890   7.918   5.132
21316WAT     H164190   1.866   7.825   5.160
21316WAT     H264191   1.974   7.946   5.179
21317WAT      O64192   5.685   4.098   9.552
21317WAT     H164193   5.654   4.045   9.630
21317WAT     H264194   5.705   4.037   9.475
21318WAT      O64195   6.699   6.838   5.251
21318WAT     H164196   6.743   6.755   5.217
21318WAT     H264197   6.602   6.819   5.268
21319WAT      O64198   4.561   8.610   5.536
21319WAT     H164199   4.591   8.634   5.444
21319WAT     H264200   4.612   8.530   5.568
21320WAT      O64201   9.868   7.482   4.980
21320WAT     H164202   9.896   7.421   4.906
21320WAT     H264203   9.784   7.529   4.955
21321WAT      O64204   6.023   3.206   0.463
21321WAT     H164205   6.018   3.305   0.451
21321WAT     H264206   5.985   3.160   0.383
21322WAT      O64207   9.238   6.026   2.919
21322WAT     H164208   9.303   5.962   2.959
21322WAT     H264209   9.247   6.115   2.963
21323WAT      O64210   3.093   5.330   9.739
21323WAT     H164211   3.050   5.255   9.789
21323WAT     H264212   3.023   5.387   9.697
21324WAT      O64213   7.005   5.881   0.087
21324WAT     H164214   6.937   5.951   0.064
21324WAT     H264215   7.008   5.813   0.015
21325WAT      O64216   5.815   7.524   1.130
21325WAT     H164217   5.744   7.537   1.061
21325WAT     H264218   5.862   7.437   1.112
21326WAT      O64219   1.184   4.208   2.195
21326WAT     H164220   1.224   4.118   2.180
21326WAT     H264221   1.106   4.201   2.257
21327WAT      O64222   0.519   9.800   6.856
21327WAT     H164223   0.566   9.841   6.778
21327WAT     H264224   0.586   9.770   6.924
21328WAT      O64225   3.856   6.475   2.414
21328WAT     H164226   3.765   6.506   2.441
21328WAT     H264227   3.848   6.385   2.371
21329WAT      O64228   8.178   9.365   4.523
21329WAT     H164229   8.250   9.298   4.542
21329WAT     H264230   8.161   9.419   4.606
21330WAT      O64231   5.968   1.501   5.947
21330WAT     H164232   5.990   1.410   5.981
21330WAT     H264233   6.024   1.569   5.995
21331WAT      O64234   0.031   1.219   2.934
21331WAT     H164235  -0.043   1.208   2.868
21331WAT     H264236   0.023   1.308   2.979
21332WAT      O64237   1.942   4.254   0.012
21332WAT     H164238   1.938   4.241   0.111
21332WAT     H264239   1.950   4.166  -0.033
21333WAT      O64240   3.911   1.636   0.720
21333WAT     H164241   3.894   1.542   0.691
21333WAT     H264242   3.937   1.691   0.641
21334WAT      O64243   2.654   0.006   5.186
21334WAT     H164244   2.608   0.084   5.227
21334WAT     H264245   2.655   0.017   5.086
21335WAT      O64246   2.733   3.759   1.623
21335WAT     H164247   2.735   3.710   1.535
21335WAT     H264248   2.683   3.705   1.690
21336WAT      O64249   9.153   7.707   0.833
21336WAT     H164250   9.116   7.769   0.764
21336WAT     H264251   9.243   7.674   0.804
21337WAT      O64252   2.415   3.646   8.082
21337WAT     H164253   2.340   3.700   8.120
21337WAT     H264254   2.450   3.583   8.150
21338WAT      O64255   3.658   0.967   1.305
21338WAT     H164256   3.744   0.916   1.297
21338WAT     H264257   3.619   0.954   1.396
21339WAT      O64258   2.870   9.544   7.889
21339WAT     H164259   2.914   9.545   7.979
21339WAT     H264260   2.828   9.454   7.874
21340WAT      O64261   8.065   6.329   0.123
21340WAT     H164262   8.120   6.247   0.138
21340WAT     H264263   7.991   6.309   0.059
21341WAT      O64264   6.408   8.414   0.986
21341WAT     H164265   6.396   8.455   1.077
21341WAT     H264266   6.428   8.316   0.997
21342WAT      O64267   6.453   3.499   1.400
21342WAT     H164268   6.450   3.598   1.382
21342WAT     H264269   6.386   3.452   1.343
21343WAT      O64270   9.670   6.364   6.069
21343WAT     H164271   9.628   6.423   6.138
21343WAT     H264272   9.756   6.327   6.105
21344WAT      O64273   5.857   7.561   8.344
21344WAT     H164274   5.848   7.629   8.272
21344WAT     H264275   5.766   7.524   8.367
21345WAT      O64276   0.944   0.426   6.468
21345WAT     H164277   1.039   0.394   6.466
21345WAT     H264278   0.888   0.367   6.410
21346WAT      O64279   4.083   5.540   1.831
21346WAT     H164280   4.118   5.620   1.881
21346WAT     H264281   3.984   5.547   1.821
21347WAT      O64282   0.466   8.725   8.996
21347WAT     H164283   0.505   8.763   9.080
21347WAT     H264284   0.538   8.720   8.926
21348WAT      O64285   3.416   9.470   1.797
21348WAT     H164286   3.373   9.497   1.711
21348WAT     H264287   3.407   9.371   1.809
21349WAT      O64288   5.648   0.157   2.004
21349WAT     H164289   5.615   0.095   2.075
21349WAT     H264290   5.673   0.245   2.046
21350WAT      O64291   4.148   8.587   8.378
21350WAT     H164292   4.197   8.577   8.292
21350WAT     H264293   4.152   8.502   8.430
21351WAT      O64294   7.899   0.793   0.505
21351WAT     H164295   7.864   0.782   0.412
21351WAT     H264296   7.835   0.848   0.558
21352WAT      O64297   8.457   8.455   2.336
21352WAT     H164298   8.490   8.374   2.288
21352WAT     H264299   8.384   8.497   2.282
21353WAT      O64300   6.600   4.847   7.598
21353WAT     H164301   6.667   4.800   7.541
21353WAT     H264302   6.554   4.918   7.545
21354WAT      O64303   0.227   4.297   7.094
21354WAT     H164304   0.167   4.316   7.016
21354WAT     H264305   0.320   4.282   7.061
21355WAT      O64306   9.366   8.839   2.846
21355WAT     H164307   9.339   8.910   2.911
21355WAT     H264308   9.285   8.798   2.805
21356WAT      O64309   3.577   7.634   0.518
21356WAT     H164310   3.543   7.725   0.495
21356WAT     H264311   3.585   7.626   0.617
21357WAT      O64312   6.407   5.069   9.754
21357WAT     H164313   6.400   5.085   9.853
21357WAT     H264314   6.368   4.980   9.732
21358WAT      O64315   0.048   4.934   0.244
21358WAT     H164316  -0.026   4.866   0.239
21358WAT     H264317   0.009   5.026   0.235
21359WAT      O64318   1.905   3.893   6.548
21359WAT     H164319   1.894   3.837   6.630
21359WAT     H264320   1.881   3.988   6.569
21360WAT      O64321   7.485   5.963   7.150
21360WAT     H164322   7.532   5.994   7.068
21360WAT     H264323   7.519   5.872   7.176
21361WAT      O64324   9.086   3.600   4.945
21361WAT     H164325   9.116   3.640   5.032
21361WAT     H264326   9.024   3.665   4.899
21362WAT      O64327   1.346   7.084   5.933
21362WAT     H164328   1.413   7.148   5.970
21362WAT     H264329   1.358   6.994   5.976
21363WAT      O64330   0.157   1.253   2.524
21363WAT     H164331   0.063   1.280   2.501
21363WAT     H264332   0.162   1.228   2.621
21364WAT      O64333   9.355   5.824   0.313
21364WAT     H164334   9.266   5.810   0.356
21364WAT     H264335   9.422   5.848   0.382
21365WAT      O64336   9.577   6.789   3.163
21365WAT     H164337   9.510   6.838   3.107
21365WAT     H264338   9.566   6.691   3.150
21366WAT      O64339   1.784   6.813   1.647
21366WAT     H164340   1.799   6.824   1.549
21366WAT     H264341   1.796   6.717   1.672
21367WAT      O64342   4.208   1.504   7.866
21367WAT     H164343   4.289   1.551   7.902
21367WAT     H264344   4.234   1.450   7.786
21368WAT      O64345   8.146   0.172   8.054
21368WAT     H164346   8.056   0.210   8.073
21368WAT     H264347   8.160   0.089   8.109
21369WAT      O64348   9.348   8.254   2.897
21369WAT     H164349   9.357   8.337   2.843
21369WAT     H264350   9.439   8.219   2.920
21370WAT      O64351   3.327   8.676   0.659
21370WAT     H164352   3.300   8.772   0.649
21370WAT     H264353   3.393   8.667   0.734
21371WAT      O64354   0.161   4.608   4.956
21371WAT     H164355   0.102   4.527   4.960
21371WAT     H264356   0.220   4.611   5.036
21372WAT      O64357   9.187   9.714   2.787
21372WAT     H164358   9.175   9.632   2.730
21372WAT     H264359   9.100   9.762   2.794
21373WAT      O64360   2.795   5.444   5.720
21373WAT     H164361   2.776   5.347   5.734
21373WAT     H264362   2.884   5.455   5.676
21374WAT      O64363   7.329   3.702   5.000
21374WAT     H164364   7.248   3.751   5.032
21374WAT     H264365   7.387   3.764   4.947
21375WAT      O64366   1.996   4.296   6.368
21375WAT     H164367   1.957   4.387   6.352
21375WAT     H264368   2.068   4.303   6.438
21376WAT      O64369   0.164   0.039   3.747
21376WAT     H164370   0.173  -0.029   3.819
21376WAT     H264371   0.104   0.004   3.675
21377WAT      O64372   2.708   9.024   6.501
21377WAT     H164373   2.799   9.054   6.472
21377WAT     H264374   2.708   9.006   6.600
21378WAT      O64375   3.156   9.284   8.628
21378WAT     H164376   3.174   9.338   8.546
21378WAT     H264377   3.117   9.196   8.602
21379WAT      O64378   8.971   2.013   5.483
21379WAT     H164379   8.972   1.915   5.503
21379WAT     H264380   8.877   2.045   5.480
21380WAT      O64381   4.918   4.687   1.537
21380WAT     H164382   4.943   4.625   1.464
21380WAT     H264383   4.949   4.650   1.625
21381WAT      O64384   2.551   1.754   4.552
21381WAT     H164385   2.586   1.800   4.634
21381WAT     H264386   2.470   1.802   4.519
21382WAT      O64387   2.021   5.092   4.000
21382WAT     H164388   2.036   5.001   3.962
21382WAT     H264389   2.094   5.114   4.065
21383WAT      O64390   4.449   5.733   7.709
21383WAT     H164391   4.420   5.828   7.710
21383WAT     H264392   4.383   5.677   7.759
21384WAT      O64393   5.827   3.442   5.404
21384WAT     H164394   5.744   3.478   5.362
21384WAT     H264395   5.805   3.398   5.491
21385WAT      O64396   0.946   2.990   4.946
21385WAT     H164397   0.852   3.023   4.937
21385WAT     H264398   0.973   2.942   4.862
21386WAT      O64399   6.359   6.653   9.533
21386WAT     H164400   6.361   6.647   9.433
21386WAT     H264401   6.264   6.642   9.564
21387WAT      O64402   2.743   9.215   5.469
21387WAT     H164403   2.715   9.119   5.469
21387WAT     H264404   2.696   9.263   5.395
21388WAT      O64405   4.370   0.504   3.367
21388WAT     H164406   4.364   0.457   3.455
21388WAT     H264407   4.466   0.520   3.345
21389WAT      O64408   3.047   0.209   1.070
21389WAT     H164409   2.998   0.292   1.045
21389WAT     H264410   3.134   0.205   1.022
21390WAT      O64411   7.158   5.454   3.857
21390WAT     H164412   7.105   5.411   3.784
21390WAT     H264413   7.096   5.494   3.924
21391WAT      O64414   3.234   3.708   7.039
21391WAT     H164415   3.263   3.720   7.134
21391WAT     H264416   3.295   3.644   6.993
21392WAT      O64417   3.402   8.773   6.680
21392WAT     H164418   3.314   8.807   6.648
21392WAT     H264419   3.475   8.811   6.622
21393WAT      O64420   0.476   2.148   8.084
21393WAT     H164421   0.430   2.103   8.008
21393WAT     H264422   0.411   2.205   8.134
21394WAT      O64423   1.229   1.872   5.723
21394WAT     H164424   1.139   1.835   5.747
21394WAT     H264425   1.290   1.797   5.696
21395WAT      O64426   6.821   3.469   6.903
21395WAT     H164427   6.885   3.524   6.848
21395WAT     H264428   6.868   3.436   6.985
21396WAT      O64429   7.244   8.240   3.205
21396WAT     H164430   7.214   8.221   3.111
21396WAT     H264431   7.295   8.326   3.206
21397WAT      O64432   3.853   9.376   8.735
21397WAT     H164433   3.927   9.309   8.736
21397WAT     H264434   3.766   9.330   8.751
21398WAT      O64435   7.485   2.400   8.346
21398WAT     H164436   7.566   2.408   8.403
21398WAT     H264437   7.434   2.317   8.372
21399WAT      O64438   0.142   2.006   2.610
21399WAT     H164439   0.213   1.935   2.608
21399WAT     H264440   0.185   2.096   2.611
21400WAT      O64441   3.034   1.916   6.573
21400WAT     H164442   3.051   1.874   6.662
21400WAT     H264443   2.945   1.963   6.576
21401WAT      O64444   1.912   1.667   2.791
21401WAT     H164445   1.900   1.653   2.889
21401WAT     H264446   1.845   1.612   2.741
21402WAT      O64447   6.664   0.177   1.123
21402WAT     H164448   6.737   0.122   1.162
21402WAT     H264449   6.598   0.116   1.077
21403WAT      O64450   8.160   0.437   7.595
21403WAT     H164451   8.191   0.355   7.546
21403WAT     H264452   8.154   0.417   7.693
21404WAT      O64453   8.068   1.378   9.642
21404WAT     H164454   8.106   1.433   9.716
21404WAT     H264455   7.972   1.401   9.629
21405WAT      O64456   7.634   0.464   5.816
21405WAT     H164457   7.567   0.404   5.772
21405WAT     H264458   7.600   0.491   5.906
21406WAT      O64459   5.254   7.365   4.063
21406WAT     H164460   5.236   7.268   4.075
21406WAT     H264461   5.272   7.408   4.152
21407WAT      O64462   1.205   4.996   5.528
21407WAT     H164463   1.288   4.946   5.502
21407WAT     H264464   1.139   4.992   5.453
21408WAT      O64465   7.067   3.419   7.492
21408WAT     H164466   7.056   3.360   7.571
21408WAT     H264467   7.136   3.489   7.512
21409WAT      O64468   1.152   1.746   9.572
21409WAT     H164469   1.159   1.792   9.484
21409WAT     H264470   1.081   1.676   9.567
21410WAT      O64471   3.672   0.799   8.554
21410WAT     H164472   3.643   0.855   8.632
21410WAT     H264473   3.703   0.710   8.587
21411WAT      O64474   8.362   8.144   2.594
21411WAT     H164475   8.306   8.225   2.576
21411WAT     H264476   8.310   8.079   2.649
21412WAT      O64477   9.435   2.820   1.066
21412WAT     H164478   9.455   2.917   1.080
21412WAT     H264479   9.496   2.765   1.124
21413WAT      O64480   1.851   8.910   7.778
21413WAT     H164481   1.841   8.813   7.797
21413WAT     H264482   1.948   8.936   7.786
21414WAT      O64483   7.480   8.591   7.735
21414WAT     H164484   7.474   8.663   7.666
21414WAT     H264485   7.576   8.570   7.754
21415WAT      O64486   7.088   4.130   3.324
21415WAT     H164487   7.175   4.112   3.369
21415WAT     H264488   7.034   4.046   3.321
21416WAT      O64489   3.680   2.720   0.337
21416WAT     H164490   3.631   2.724   0.250
21416WAT     H264491   3.779   2.713   0.320
21417WAT      O64492   5.589   5.654   1.258
21417WAT     H164493   5.520   5.590   1.225
21417WAT     H264494   5.669   5.649   1.198
21418WAT      O64495   9.643   2.589   5.019
21418WAT     H164496   9.578   2.517   5.043
21418WAT     H264497   9.608   2.642   4.942
21419WAT      O64498   1.376   4.274   7.730
21419WAT     H164499   1.461   4.325   7.727
21419WAT     H264500   1.362   4.237   7.822
21420WAT      O64501   9.247   3.597   0.141
21420WAT     H164502   9.276   3.503   0.162
21420WAT     H264503   9.148   3.599   0.131
21421WAT      O64504   2.579   6.007   0.145
21421WAT     H164505   2.523   5.989   0.064
21421WAT     H264506   2.521   6.042   0.219
21422WAT      O64507   1.557   6.663   9.367
21422WAT     H164508   1.624   6.727   9.329
21422WAT     H264509   1.542   6.587   9.304
21423WAT      O64510   2.638   4.919   6.010
21423WAT     H164511   2.564   4.970   6.054
21423WAT     H264512   2.616   4.821   6.012
21424WAT      O64513   0.980   3.340   4.786
21424WAT     H164514   1.042   3.282   4.733
21424WAT     H264515   0.978   3.309   4.881
21425WAT      O64516   5.034   5.200   3.037
21425WAT     H164517   4.965   5.228   2.970
21425WAT     H264518   5.058   5.104   3.020
21426WAT      O64519   6.822   2.331   9.556
21426WAT     H164520   6.723   2.332   9.573
21426WAT     H264521   6.838   2.320   9.457
21427WAT      O64522   5.708   0.424   3.234
21427WAT     H164523   5.724   0.469   3.322
21427WAT     H264524   5.665   0.335   3.249
21428WAT      O64525   5.017   0.348   1.624
21428WAT     H164526   5.040   0.261   1.581
21428WAT     H264527   5.078   0.364   1.702
21429WAT      O64528   4.412   3.230   6.573
21429WAT     H164529   4.351   3.242   6.494
21429WAT     H264530   4.357   3.221   6.656
21430WAT      O64531   4.656   3.654   1.851
21430WAT     H164532   4.576   3.700   1.812
21430WAT     H264533   4.687   3.703   1.932
21431WAT      O64534   3.698   2.633   8.509
21431WAT     H164535   3.673   2.615   8.604
21431WAT     H264536   3.638   2.704   8.471
21432WAT      O64537   8.333   7.236   0.579
21432WAT     H164538   8.247   7.189   0.598
21432WAT     H264539   8.357   7.224   0.483
21433WAT      O64540   8.601   9.476   4.340
21433WAT     H164541   8.689   9.521   4.324
21433WAT     H264542   8.528   9.526   4.295
21434WAT      O64543   1.568   9.740   2.807
21434WAT     H164544   1.510   9.788   2.741
21434WAT     H264545   1.542   9.643   2.810
21435WAT      O64546   0.789   6.593   3.315
21435WAT     H164547   0.717   6.551   3.261
21435WAT     H264548   0.754   6.676   3.360
21436WAT      O64549   5.046   2.260   6.351
21436WAT     H164550   5.117   2.211   6.301
21436WAT     H264551   5.048   2.357   6.327
21437WAT      O64552   8.805   1.543   1.935
21437WAT     H164553   8.826   1.559   2.032
21437WAT     H264554   8.713   1.506   1.927
21438WAT      O64555   6.836   7.253   8.424
21438WAT     H164556   6.753   7.309   8.417
21438WAT     H264557   6.813   7.165   8.464
21439WAT      O64558   2.697   0.309   0.436
21439WAT     H164559   2.772   0.267   0.487
21439WAT     H264560   2.663   0.389   0.486
21440WAT      O64561   4.718   0.582   6.332
21440WAT     H164562   4.784   0.598   6.405
21440WAT     H264563   4.645   0.649   6.337
21441WAT      O64564   1.902   2.553   8.803
21441WAT     H164565   1.920   2.466   8.849
21441WAT     H264566   1.834   2.605   8.855
21442WAT      O64567   1.250   8.233   7.438
21442WAT     H164568   1.252   8.134   7.455
21442WAT     H264569   1.323   8.257   7.375
21443WAT      O64570   2.760   7.461   5.761
21443WAT     H164571   2.763   7.521   5.681
21443WAT     H264572   2.717   7.509   5.837
21444WAT      O64573   1.975   6.337   0.111
21444WAT     H164574   2.060   6.374   0.147
21444WAT     H264575   1.939   6.267   0.173
21445WAT      O64576   5.164   8.596   0.534
21445WAT     H164577   5.128   8.528   0.470
21445WAT     H264578   5.246   8.638   0.495
21446WAT      O64579   1.997   9.819   7.230
21446WAT     H164580   1.955   9.741   7.184
21446WAT     H264581   2.095   9.806   7.235
21447WAT      O64582   5.162   0.113   9.645
21447WAT     H164583   5.067   0.140   9.659
21447WAT     H264584   5.215   0.192   9.615
21448WAT      O64585   2.260   0.485   0.203
21448WAT     H164586   2.207   0.409   0.164
21448WAT     H264587   2.325   0.450   0.270
21449WAT      O64588   8.327   5.927   8.019
21449WAT     H164589   8.254   5.993   8.040
21449WAT     H264590   8.415   5.973   8.025
21450WAT      O64591   5.933   9.635   9.624
21450WAT     H164592   5.840   9.635   9.588
21450WAT     H264593   5.938   9.580   9.707
21451WAT      O64594   9.627   1.724   8.079
21451WAT     H164595   9.583   1.770   8.001
21451WAT     H264596   9.603   1.772   8.163
21452WAT      O64597   8.584   6.739   6.482
21452WAT     H164598   8.559   6.835   6.469
21452WAT     H264599   8.577   6.715   6.579
21453WAT      O64600   9.361   8.916   9.366
21453WAT     H164601   9.282   8.884   9.313
21453WAT     H264602   9.438   8.935   9.305
21454WAT      O64603   1.492   2.835   1.740
21454WAT     H164604   1.456   2.908   1.681
21454WAT     H264605   1.564   2.872   1.799
21455WAT      O64606   6.414   4.773   9.380
21455WAT     H164607   6.454   4.721   9.305
21455WAT     H264608   6.474   4.769   9.459
21456WAT      O64609   3.213   5.759   6.346
21456WAT     H164610   3.262   5.677   6.376
21456WAT     H264611   3.189   5.751   6.250
21457WAT      O64612   8.894   6.686   5.113
21457WAT     H164613   8.803   6.708   5.078
21457WAT     H264614   8.890   6.674   5.212
21458WAT      O64615   0.154   8.353   0.668
21458WAT     H164616   0.137   8.282   0.599
21458WAT     H264617   0.113   8.439   0.639
21459WAT      O64618   9.229   5.022   4.596
21459WAT     H164619   9.236   4.969   4.512
21459WAT     H264620   9.319   5.031   4.637
21460WAT      O64621   6.208   4.734   7.002
21460WAT     H164622   6.162   4.791   6.934
21460WAT     H264623   6.288   4.690   6.961
21461WAT      O64624   1.009   6.389   5.261
21461WAT     H164625   1.092   6.440   5.240
21461WAT     H264626   0.991   6.395   5.360
21462WAT      O64627   4.252   7.232   5.229
21462WAT     H164628   4.330   7.170   5.220
21462WAT     H264629   4.251   7.272   5.321
21463WAT      O64630   7.945   3.750   8.896
21463WAT     H164631   7.943   3.820   8.825
21463WAT     H264632   8.040   3.737   8.927
21464WAT      O64633   9.398   7.323   3.620
21464WAT     H164634   9.380   7.322   3.522
21464WAT     H264635   9.443   7.408   3.645
21465WAT      O64636   7.448   5.573   9.294
21465WAT     H164637   7.525   5.547   9.236
21465WAT     H264638   7.364   5.534   9.257
21466WAT      O64639   7.363   8.598   6.272
21466WAT     H164640   7.327   8.687   6.243
21466WAT     H264641   7.419   8.611   6.354
21467WAT      O64642   6.362   2.130   7.630
21467WAT     H164643   6.359   2.033   7.604
21467WAT     H264644   6.301   2.145   7.708
21468WAT      O64645   3.762   2.383   8.891
21468WAT     H164646   3.824   2.350   8.819
21468WAT     H264647   3.727   2.473   8.865
21469WAT      O64648   7.747   0.279   3.705
21469WAT     H164649   7.824   0.221   3.681
21469WAT     H264650   7.741   0.288   3.805
21470WAT      O64651   5.280   0.517   9.182
21470WAT     H164652   5.332   0.482   9.261
21470WAT     H264653   5.286   0.452   9.107
21471WAT      O64654   7.553   6.264   0.446
21471WAT     H164655   7.651   6.269   0.468
21471WAT     H264656   7.500   6.302   0.521
21472WAT      O64657   8.654   9.060   1.877
21472WAT     H164658   8.644   8.998   1.955
21472WAT     H264659   8.751   9.078   1.861
21473WAT      O64660   6.156   4.881   7.825
21473WAT     H164661   6.104   4.902   7.742
21473WAT     H264662   6.208   4.961   7.853
21474WAT      O64663   9.527   5.242   5.974
21474WAT     H164664   9.453   5.280   5.920
21474WAT     H264665   9.527   5.142   5.966
21475WAT      O64666   1.454   1.796   9.041
21475WAT     H164667   1.371   1.742   9.056
21475WAT     H264668   1.516   1.785   9.118
21476WAT      O64669   7.877   5.405   7.844
21476WAT     H164670   7.781   5.419   7.870
21476WAT     H264671   7.881   5.378   7.747
21477WAT      O64672   0.609   8.021   2.141
21477WAT     H164673   0.510   8.020   2.129
21477WAT     H264674   0.653   8.029   2.052
21478WAT      O64675   5.064   0.735   7.390
21478WAT     H164676   5.141   0.762   7.447
21478WAT     H264677   5.008   0.815   7.368
21479WAT      O64678   7.682   3.993   8.689
21479WAT     H164679   7.711   4.070   8.746
21479WAT     H264680   7.730   3.997   8.601
21480WAT      O64681   8.969   9.434   8.365
21480WAT     H164682   9.061   9.473   8.378
21480WAT     H264683   8.976   9.352   8.308
21481WAT      O64684   3.843   4.239   4.179
21481WAT     H164685   3.860   4.327   4.133
21481WAT     H264686   3.761   4.247   4.236
21482WAT      O64687   5.872   4.997   0.228
21482WAT     H164688   5.778   5.026   0.247
21482WAT     H264689   5.890   5.001   0.130
21483WAT      O64690   2.174   4.715   8.225
21483WAT     H164691   2.096   4.725   8.163
21483WAT     H264692   2.160   4.635   8.283
21484WAT      O64693   0.615   5.904   7.136
21484WAT     H164694   0.673   5.822   7.131
21484WAT     H264695   0.569   5.907   7.224
21485WAT      O64696   3.878   8.888   4.476
21485WAT     H164697   3.963   8.920   4.435
21485WAT     H264698   3.875   8.788   4.473
21486WAT      O64699   9.255   8.072   0.640
21486WAT     H164700   9.319   8.056   0.715
21486WAT     H264701   9.290   8.147   0.582
21487WAT      O64702   2.920   0.615   3.886
21487WAT     H164703   2.979   0.586   3.811
21487WAT     H264704   2.895   0.535   3.942
21488WAT      O64705   0.103   5.356   7.900
21488WAT     H164706   0.060   5.284   7.953
21488WAT     H264707   0.168   5.407   7.957
21489WAT      O64708   1.149   3.840   0.778
21489WAT     H164709   1.233   3.886   0.752
21489WAT     H264710   1.171   3.760   0.834
21490WAT      O64711   2.839   3.777   8.764
21490WAT     H164712   2.911   3.711   8.787
21490WAT     H264713   2.831   3.845   8.836
21491WAT      O64714   9.678   8.215   8.887
21491WAT     H164715   9.744   8.192   8.958
21491WAT     H264716   9.726   8.227   8.800
21492WAT      O64717   1.696   4.093   4.462
21492WAT     H164718   1.780   4.061   4.504
21492WAT     H264719   1.627   4.109   4.533
21493WAT      O64720   5.145   0.070   0.806
21493WAT     H164721   5.099   0.063   0.717
21493WAT     H264722   5.103   0.144   0.859
21494WAT      O64723   4.867   0.693   4.493
21494WAT     H164724   4.879   0.791   4.478
21494WAT     H264725   4.891   0.671   4.587
21495WAT      O64726   1.436   7.331   0.015
21495WAT     H164727   1.379   7.254   0.042
21495WAT     H264728   1.529   7.319   0.051
21496WAT      O64729   1.575   3.399   5.035
21496WAT     H164730   1.493   3.399   4.979
21496WAT     H264731   1.595   3.492   5.066
21497WAT      O64732   7.597   5.691   6.045
21497WAT     H164733   7.674   5.675   6.107
21497WAT     H264734   7.631   5.720   5.956
21498WAT      O64735   7.154   6.437   4.596
21498WAT     H164736   7.161   6.378   4.676
21498WAT     H264737   7.101   6.391   4.525
21499WAT      O64738   3.783   0.500   1.885
21499WAT     H164739   3.691   0.464   1.867
21499WAT     H264740   3.776   0.591   1.924
21500WAT      O64741   8.083   0.965   6.729
21500WAT     H164742   8.049   0.961   6.823
21500WAT     H264743   8.183   0.978   6.730
21501WAT      O64744   8.800   3.628   2.351
21501WAT     H164745   8.864   3.566   2.397
21501WAT     H264746   8.845   3.716   2.335
21502WAT      O64747   8.185   4.416   6.639
21502WAT     H164748   8.183   4.515   6.652
21502WAT     H264749   8.104   4.375   6.680
21503WAT      O64750   2.781   7.354   8.745
21503WAT     H164751   2.813   7.390   8.658
21503WAT     H264752   2.842   7.281   8.776
21504WAT      O64753   8.424   5.956   2.805
21504WAT     H164754   8.334   5.916   2.822
21504WAT     H264755   8.431   5.982   2.709
21505WAT      O64756   9.324   5.739   6.791
21505WAT     H164757   9.343   5.658   6.736
21505WAT     H264758   9.401   5.803   6.784
21506WAT      O64759   2.871   7.156   7.413
21506WAT     H164760   2.821   7.232   7.371
21506WAT     H264761   2.966   7.157   7.380
21507WAT      O64762   7.005   2.784   7.261
21507WAT     H164763   7.068   2.709   7.238
21507WAT     H264764   7.023   2.862   7.202
21508WAT      O64765   8.547   6.419   8.699
21508WAT     H164766   8.582   6.330   8.727
21508WAT     H264767   8.489   6.409   8.618
21509WAT      O64768   6.280   5.029   5.731
21509WAT     H164769   6.341   5.068   5.801
21509WAT     H264770   6.302   4.933   5.717
21510WAT      O64771   5.410   2.941   6.884
21510WAT     H164772   5.369   2.872   6.944
21510WAT     H264773   5.421   2.904   6.792
21511WAT      O64774   4.867   1.505   7.981
21511WAT     H164775   4.782   1.538   7.941
21511WAT     H264776   4.919   1.582   8.018
21512WAT      O64777   4.569   0.253   3.989
21512WAT     H164778   4.471   0.271   3.982
21512WAT     H264779   4.606   0.297   4.071
21513WAT      O64780   9.131   7.612   7.559
21513WAT     H164781   9.226   7.585   7.544
21513WAT     H264782   9.089   7.552   7.627
21514WAT      O64783   5.160   5.399   9.635
21514WAT     H164784   5.257   5.377   9.626
21514WAT     H264785   5.128   5.444   9.551
21515WAT      O64786   9.566   3.877   8.934
21515WAT     H164787   9.502   3.953   8.925
21515WAT     H264788   9.524   3.794   8.896
21516WAT      O64789   0.088   3.532   0.900
21516WAT     H164790   0.095   3.553   0.997
21516WAT     H264791   0.014   3.466   0.885
21517WAT      O64792   6.266   6.831   8.650
21517WAT     H164793   6.204   6.829   8.572
21517WAT     H264794   6.355   6.796   8.623
21518WAT      O64795   8.044   4.128   9.779
21518WAT     H164796   8.105   4.207   9.784
21518WAT     H264797   7.996   4.128   9.691
21519WAT      O64798   7.484   9.423   5.664
21519WAT     H164799   7.571   9.441   5.617
21519WAT     H264800   7.446   9.508   5.698
21520WAT      O64801   8.846   9.736   7.258
21520WAT     H164802   8.800   9.684   7.186
21520WAT     H264803   8.921   9.788   7.218
21521WAT      O64804   2.348   9.429   7.366
21521WAT     H164805   2.353   9.514   7.419
21521WAT     H264806   2.316   9.450   7.274
21522WAT      O64807   1.635   8.947   0.346
21522WAT     H164808   1.687   9.023   0.308
21522WAT     H264809   1.542   8.947   0.307
21523WAT      O64810   3.155   4.703   7.353
21523WAT     H164811   3.184   4.728   7.261
21523WAT     H264812   3.234   4.679   7.408
21524WAT      O64813   9.115   3.572   8.301
21524WAT     H164814   9.017   3.594   8.296
21524WAT     H264815   9.142   3.561   8.397
21525WAT      O64816   0.930   8.688   5.469
21525WAT     H164817   0.958   8.665   5.376
21525WAT     H264818   1.010   8.710   5.524
21526WAT      O64819   4.538   7.428   1.777
21526WAT     H164820   4.475   7.355   1.749
21526WAT     H264821   4.493   7.517   1.765
21527WAT      O64822   2.560   3.412   5.225
21527WAT     H164823   2.521   3.482   5.286
21527WAT     H264824   2.541   3.436   5.130
21528WAT      O64825   7.021   0.887   4.670
21528WAT     H164826   7.093   0.900   4.739
21528WAT     H264827   6.976   0.799   4.686
21529WAT      O64828   2.119   4.553   7.825
21529WAT     H164829   2.120   4.653   7.830
21529WAT     H264830   2.179   4.523   7.751
21530WAT      O64831   9.663   6.264   3.772
21530WAT     H164832   9.599   6.267   3.848
21530WAT     H264833   9.625   6.312   3.694
21531WAT      O64834   4.125   5.773   4.580
21531WAT     H164835   4.049   5.813   4.632
21531WAT     H264836   4.211   5.797   4.623
21532WAT      O64837   8.542   6.308   1.761
21532WAT     H164838   8.629   6.302   1.809
21532WAT     H264839   8.496   6.393   1.786
21533WAT      O64840   1.024   9.632   1.715
21533WAT     H164841   1.098   9.666   1.773
21533WAT     H264842   0.937   9.640   1.764
21534WAT      O64843   8.503   4.444   0.556
21534WAT     H164844   8.593   4.489   0.551
21534WAT     H264845   8.515   4.345   0.548
21535WAT      O64846   5.614   6.368   7.532
21535WAT     H164847   5.628   6.331   7.623
21535WAT     H264848   5.702   6.395   7.493
21536WAT      O64849   3.758   3.888   4.358
21536WAT     H164850   3.858   3.892   4.361
21536WAT     H264851   3.723   3.849   4.443
21537WAT      O64852   4.423   8.952   6.838
21537WAT     H164853   4.479   9.028   6.805
21537WAT     H264854   4.363   8.984   6.911
21538WAT      O64855   8.729   1.249   6.606
21538WAT     H164856   8.754   1.152   6.597
21538WAT     H264857   8.723   1.273   6.703
21539WAT      O64858   4.373   1.102   0.602
21539WAT     H164859   4.467   1.125   0.574
21539WAT     H264860   4.324   1.186   0.625
21540WAT      O64861   1.535   5.984   0.222
21540WAT     H164862   1.619   5.971   0.169
21540WAT     H264863   1.459   5.942   0.173
21541WAT      O64864   4.434   6.908   4.243
21541WAT     H164865   4.340   6.911   4.279
21541WAT     H264866   4.499   6.921   4.318
21542WAT      O64867   3.998   5.293   6.154
21542WAT     H164868   3.943   5.242   6.220
21542WAT     H264869   3.937   5.346   6.095
21543WAT      O64870   7.039   6.291   9.425
21543WAT     H164871   6.995   6.240   9.351
21543WAT     H264872   7.137   6.294   9.410
21544WAT      O64873   9.778   0.674   8.110
21544WAT     H164874   9.761   0.587   8.158
21544WAT     H264875   9.723   0.678   8.027
21545WAT      O64876   4.670   3.829   3.424
21545WAT     H164877   4.718   3.917   3.423
21545WAT     H264878   4.717   3.764   3.365
21546WAT      O64879   8.506   1.668   0.918
21546WAT     H164880   8.544   1.717   0.839
21546WAT     H264881   8.426   1.717   0.952
21547WAT      O64882   6.950   0.820   8.321
21547WAT     H164883   7.048   0.802   8.328
21547WAT     H264884   6.929   0.906   8.367
21548WAT      O64885   5.393   4.942   0.917
21548WAT     H164886   5.371   4.854   0.874
21548WAT     H264887   5.415   5.009   0.847
21549WAT      O64888   1.869   8.156   7.589
21549WAT     H164889   1.894   8.126   7.497
21549WAT     H264890   1.861   8.076   7.649
21550WAT      O64891   7.451   7.256   9.036
21550WAT     H164892   7.372   7.220   9.085
21550WAT     H264893   7.420   7.313   8.960
21551WAT      O64894   8.045   6.195   8.711
21551WAT     H164895   8.030   6.142   8.628
21551WAT     H264896   8.045   6.293   8.689
21552WAT      O64897   9.673   0.487   7.096
21552WAT     H164898   9.611   0.461   7.170
21552WAT     H264899   9.664   0.585   7.078
21553WAT      O64900   0.663   7.046   7.751
21553WAT     H164901   0.600   7.044   7.673
21553WAT     H264902   0.621   7.000   7.829
21554WAT      O64903   3.239   6.383   6.288
21554WAT     H164904   3.299   6.451   6.330
21554WAT     H264905   3.229   6.304   6.349
21555WAT      O64906   1.433   0.610   6.651
21555WAT     H164907   1.470   0.532   6.601
21555WAT     H264908   1.486   0.623   6.736
21556WAT      O64909   0.081   0.244   8.569
21556WAT     H164910   0.123   0.200   8.647
21556WAT     H264911   0.151   0.275   8.505
21557WAT      O64912   5.896   2.107   9.739
21557WAT     H164913   5.956   2.175   9.698
21557WAT     H264914   5.912   2.018   9.695
21558WAT      O64915   6.591   6.250   5.675
21558WAT     H164916   6.611   6.158   5.710
21558WAT     H264917   6.650   6.316   5.721
21559WAT      O64918   3.603   0.168   1.189
21559WAT     H164919   3.564   0.214   1.269
21559WAT     H264920   3.645   0.236   1.129
21560WAT      O64921   5.394   8.484   2.221
21560WAT     H164922   5.373   8.560   2.282
21560WAT     H264923   5.334   8.407   2.242
21561WAT      O64924   3.112   3.758   6.367
21561WAT     H164925   3.080   3.850   6.392
21561WAT     H264926   3.057   3.689   6.414
21562WAT      O64927   4.398   0.813   2.529
21562WAT     H164928   4.313   0.772   2.497
21562WAT     H264929   4.476   0.766   2.487
21563WAT      O64930   4.628   4.367   5.742
21563WAT     H164931   4.666   4.453   5.709
21563WAT     H264932   4.669   4.344   5.830
21564WAT      O64933   2.038   8.963   4.381
21564WAT     H164934   2.066   9.053   4.413
21564WAT     H264935   1.946   8.942   4.414
21565WAT      O64936   1.124   8.645   3.957
21565WAT     H164937   1.145   8.650   3.859
21565WAT     H264938   1.026   8.633   3.970
21566WAT      O64939   2.843   7.168   4.740
21566WAT     H164940   2.916   7.162   4.671
21566WAT     H264941   2.754   7.170   4.694
21567WAT      O64942   7.795   6.924   4.517
21567WAT     H164943   7.817   7.019   4.492
21567WAT     H264944   7.809   6.911   4.615
21568WAT      O64945   7.523   8.367   4.498
21568WAT     H164946   7.464   8.324   4.429
21568WAT     H264947   7.594   8.303   4.526
21569WAT      O64948   0.412   5.668   1.988
21569WAT     H164949   0.349   5.690   2.062
21569WAT     H264950   0.361   5.634   1.909
21570WAT      O64951   2.726   8.041   3.838
21570WAT     H164952   2.630   8.036   3.808
21570WAT     H264953   2.742   7.972   3.908
21571WAT      O64954   6.564   1.079   5.733
21571WAT     H164955   6.568   1.063   5.635
21571WAT     H264956   6.501   1.014   5.775
21572WAT      O64957   7.021   0.161   6.752
21572WAT     H164958   6.987   0.197   6.839
21572WAT     H264959   7.085   0.086   6.770
21573WAT      O64960   3.395   5.531   1.037
21573WAT     H164961   3.368   5.591   0.962
21573WAT     H264962   3.327   5.459   1.048
21574WAT      O64963   2.448   5.042   7.008
21574WAT     H164964   2.348   5.045   7.014
21574WAT     H264965   2.475   5.039   6.911
21575WAT      O64966   3.813   4.677   0.417
21575WAT     H164967   3.748   4.602   0.419
21575WAT     H264968   3.895   4.653   0.469
21576WAT      O64969   9.214   1.164   0.360
21576WAT     H164970   9.212   1.081   0.304
21576WAT     H264971   9.152   1.152   0.438
21577WAT      O64972   4.645   2.966   6.699
21577WAT     H164973   4.650   3.050   6.754
21577WAT     H264974   4.551   2.951   6.669
21578WAT      O64975   1.067   9.031   2.682
21578WAT     H164976   0.983   9.002   2.729
21578WAT     H264977   1.097   9.119   2.718
21579WAT      O64978   6.817   7.229   5.109
21579WAT     H164979   6.907   7.191   5.128
21579WAT     H264980   6.752   7.155   5.091
21580WAT      O64981   0.380   6.542   3.388
21580WAT     H164982   0.457   6.593   3.425
21580WAT     H264983   0.331   6.496   3.462
21581WAT      O64984   7.667   1.633   0.311
21581WAT     H164985   7.639   1.680   0.395
21581WAT     H264986   7.587   1.593   0.268
21582WAT      O64987   0.789   1.940   4.865
21582WAT     H164988   0.823   1.906   4.777
21582WAT     H264989   0.730   2.019   4.849
21583WAT      O64990   8.671   8.462   5.868
21583WAT     H164991   8.588   8.413   5.892
21583WAT     H264992   8.707   8.510   5.948
21584WAT      O64993   9.070   4.298   9.192
21584WAT     H164994   8.999   4.265   9.130
21584WAT     H264995   9.040   4.382   9.236
21585WAT      O64996   0.130   1.039   1.312
21585WAT     H164997   0.149   0.986   1.394
21585WAT     H264998   0.033   1.036   1.292
21586WAT      O64999   3.047   8.939   4.607
21586WAT     H165000   3.054   9.035   4.579
21586WAT     H265001   3.026   8.934   4.705
21587WAT      O65002   2.700   7.186   5.707
21587WAT     H165003   2.623   7.146   5.758
21587WAT     H265004   2.715   7.279   5.738
21588WAT      O65005   8.208   2.109   2.503
21588WAT     H165006   8.172   2.016   2.494
21588WAT     H265007   8.132   2.173   2.512
21589WAT      O65008   0.183   1.635   6.715
21589WAT     H165009   0.151   1.559   6.772
21589WAT     H265010   0.283   1.640   6.719
21590WAT      O65011   0.143   2.792   9.115
21590WAT     H165012   0.151   2.694   9.094
21590WAT     H265013   0.117   2.841   9.032
21591WAT      O65014   7.845   3.569   3.359
21591WAT     H165015   7.851   3.664   3.390
21591WAT     H265016   7.765   3.558   3.301
21592WAT      O65017   4.741   8.511   2.043
21592WAT     H165018   4.763   8.463   1.958
21592WAT     H265019   4.661   8.468   2.085
21593WAT      O65020   8.623   4.797   4.931
21593WAT     H165021   8.702   4.761   4.880
21593WAT     H265022   8.557   4.836   4.867
21594WAT      O65023   0.464   6.970   7.978
21594WAT     H165024   0.511   7.054   8.009
21594WAT     H265025   0.381   6.995   7.929
21595WAT      O65026   3.891   7.404   6.052
21595WAT     H165027   3.935   7.324   6.011
21595WAT     H265028   3.850   7.460   5.980
21596WAT      O65029   5.377   9.810   2.632
21596WAT     H165030   5.357   9.777   2.724
21596WAT     H265031   5.353   9.907   2.625
21597WAT      O65032   6.703   6.084   8.815
21597WAT     H165033   6.695   6.052   8.720
21597WAT     H265034   6.780   6.147   8.822
21598WAT      O65035   1.026   2.589   4.212
21598WAT     H165036   1.020   2.592   4.312
21598WAT     H265037   0.997   2.499   4.179
21599WAT      O65038   4.536   9.072   8.481
21599WAT     H165039   4.580   9.025   8.557
21599WAT     H265040   4.589   9.153   8.457
21600WAT      O65041   8.619   5.629   1.293
21600WAT     H165042   8.628   5.540   1.250
21600WAT     H265043   8.624   5.701   1.223
21601WAT      O65044   2.247   7.248   0.624
21601WAT     H165045   2.330   7.226   0.572
21601WAT     H265046   2.181   7.295   0.564
21602WAT      O65047   7.898   4.801   4.806
21602WAT     H165048   7.954   4.810   4.723
21602WAT     H265049   7.801   4.808   4.782
21603WAT      O65050   8.762   5.594   0.681
21603WAT     H165051   8.673   5.637   0.698
21603WAT     H265052   8.748   5.503   0.642
21604WAT      O65053   1.546   6.304   6.679
21604WAT     H165054   1.581   6.238   6.745
21604WAT     H265055   1.449   6.284   6.660
21605WAT      O65056   1.976   2.437   6.613
21605WAT     H165057   1.955   2.469   6.520
21605WAT     H265058   1.939   2.502   6.679
21606WAT      O65059   6.360   0.679   9.745
21606WAT     H165060   6.404   0.602   9.792
21606WAT     H265061   6.428   0.725   9.687
21607WAT      O65062   0.284   5.603   8.987
21607WAT     H165063   0.189   5.618   8.960
21607WAT     H265064   0.293   5.619   9.086
21608WAT      O65065   6.054   4.734   5.859
21608WAT     H165066   6.081   4.658   5.800
21608WAT     H265067   6.061   4.706   5.955
21609WAT      O65068   4.341   5.537   1.182
21609WAT     H165069   4.393   5.579   1.108
21609WAT     H265070   4.245   5.563   1.174
21610WAT      O65071   5.201   9.254   5.923
21610WAT     H165072   5.264   9.270   5.999
21610WAT     H265073   5.246   9.282   5.837
21611WAT      O65074   9.218   9.563   0.100
21611WAT     H165075   9.289   9.613   0.051
21611WAT     H265076   9.244   9.554   0.196
21612WAT      O65077   7.797   8.831   9.184
21612WAT     H165078   7.879   8.887   9.174
21612WAT     H265079   7.719   8.890   9.206
21613WAT      O65080   6.558   9.479   9.240
21613WAT     H165081   6.592   9.570   9.263
21613WAT     H265082   6.462   9.486   9.213
21614WAT      O65083   8.794   6.204   1.150
21614WAT     H165084   8.708   6.195   1.201
21614WAT     H265085   8.785   6.278   1.084
21615WAT      O65086   6.754   7.020   8.560
21615WAT     H165087   6.798   6.931   8.545
21615WAT     H265088   6.664   7.006   8.601
21616WAT      O65089   4.305   2.453   9.536
21616WAT     H165090   4.368   2.426   9.463
21616WAT     H265091   4.211   2.450   9.502
21617WAT      O65092   8.910   3.857   3.886
21617WAT     H165093   8.911   3.759   3.904
21617WAT     H265094   8.834   3.879   3.824
21618WAT      O65095   6.730   4.124   3.670
21618WAT     H165096   6.749   4.164   3.580
21618WAT     H265097   6.650   4.064   3.664
21619WAT      O65098   6.262   7.114   2.774
21619WAT     H165099   6.333   7.064   2.723
21619WAT     H265100   6.297   7.204   2.800
21620WAT      O65101   9.303   6.194   3.787
21620WAT     H165102   9.208   6.202   3.758
21620WAT     H265103   9.324   6.098   3.807
21621WAT      O65104   5.067   0.349   5.168
21621WAT     H165105   5.140   0.399   5.213
21621WAT     H265106   5.105   0.268   5.123
21622WAT      O65107   8.984   2.110   3.610
21622WAT     H165108   9.045   2.188   3.602
21622WAT     H265109   9.038   2.026   3.621
21623WAT      O65110   5.275   6.766   5.596
21623WAT     H165111   5.248   6.670   5.591
21623WAT     H265112   5.374   6.772   5.607
21624WAT      O65113   8.653   3.817   2.123
21624WAT     H165114   8.593   3.776   2.055
21624WAT     H265115   8.724   3.751   2.149
21625WAT      O65116   8.182   6.907   0.133
21625WAT     H165117   8.108   6.839   0.137
21625WAT     H265118   8.251   6.884   0.202
21626WAT      O65119   0.612   8.151   0.688
21626WAT     H165120   0.691   8.213   0.684
21626WAT     H265121   0.537   8.197   0.736
21627WAT      O65122   9.437   7.122   9.122
21627WAT     H165123   9.467   7.101   9.215
21627WAT     H265124   9.445   7.220   9.105
21628WAT      O65125   2.743   9.096   9.510
21628WAT     H165126   2.734   9.178   9.453
21628WAT     H265127   2.743   9.015   9.451
21629WAT      O65128   1.648   5.767   6.941
21629WAT     H165129   1.582   5.786   7.014
21629WAT     H265130   1.683   5.674   6.952
21630WAT      O65131   0.678   8.082   3.729
21630WAT     H165132   0.670   8.011   3.659
21630WAT     H265133   0.587   8.116   3.752
21631WAT      O65134   0.748   0.200   7.106
21631WAT     H165135   0.792   0.200   7.016
21631WAT     H265136   0.789   0.270   7.163
21632WAT      O65137   7.387   8.327   3.653
21632WAT     H165138   7.322   8.373   3.714
21632WAT     H265139   7.452   8.274   3.707
21633WAT      O65140   0.912   8.196   6.636
21633WAT     H165141   0.882   8.116   6.688
21633WAT     H265142   1.001   8.226   6.672
21634WAT      O65143   5.709   7.266   8.047
21634WAT     H165144   5.686   7.209   7.968
21634WAT     H265145   5.627   7.281   8.102
21635WAT      O65146   2.034   4.329   5.428
21635WAT     H165147   2.094   4.294   5.356
21635WAT     H265148   1.942   4.292   5.415
21636WAT      O65149   8.558   8.718   6.128
21636WAT     H165150   8.581   8.753   6.037
21636WAT     H265151   8.468   8.674   6.125
21637WAT      O65152   0.520   5.149   5.067
21637WAT     H165153   0.447   5.081   5.075
21637WAT     H265154   0.524   5.184   4.973
21638WAT      O65155   6.423   4.836   7.167
21638WAT     H165156   6.498   4.878   7.117
21638WAT     H265157   6.352   4.805   7.103
21639WAT      O65158   0.359   7.797   7.311
21639WAT     H165159   0.446   7.789   7.360
21639WAT     H265160   0.291   7.739   7.356
21640WAT      O65161   6.016   3.869   7.638
21640WAT     H165162   5.961   3.801   7.686
21640WAT     H265163   6.105   3.877   7.683
21641WAT      O65164   7.762   4.842   0.577
21641WAT     H165165   7.834   4.851   0.646
21641WAT     H265166   7.674   4.870   0.615
21642WAT      O65167   7.608   1.268   0.904
21642WAT     H165168   7.618   1.168   0.900
21642WAT     H265169   7.544   1.292   0.977
21643WAT      O65170   4.460   7.578   7.274
21643WAT     H165171   4.402   7.499   7.253
21643WAT     H265172   4.430   7.657   7.221
21644WAT      O65173   1.514   9.209   2.250
21644WAT     H165174   1.542   9.305   2.243
21644WAT     H265175   1.484   9.176   2.161
21645WAT      O65176   8.951   5.296   9.115
21645WAT     H165177   8.904   5.280   9.201
21645WAT     H265178   8.962   5.394   9.101
21646WAT      O65179   3.814   2.420   2.195
21646WAT     H165180   3.728   2.400   2.147
21646WAT     H265181   3.835   2.517   2.186
21647WAT      O65182   8.007   1.498   7.845
21647WAT     H165183   8.086   1.541   7.800
21647WAT     H265184   8.001   1.402   7.816
21648WAT      O65185   3.241   0.646   4.581
21648WAT     H165186   3.279   0.711   4.516
21648WAT     H265187   3.315   0.593   4.623
21649WAT      O65188   8.148   7.669   0.778
21649WAT     H165189   8.068   7.613   0.754
21649WAT     H265190   8.173   7.726   0.700
21650WAT      O65191   4.398   9.322   9.378
21650WAT     H165192   4.355   9.319   9.468
21650WAT     H265193   4.394   9.232   9.335
21651WAT      O65194   0.676   0.856   0.127
21651WAT     H165195   0.604   0.791   0.102
21651WAT     H265196   0.761   0.807   0.145
21652WAT      O65197   4.687   3.261   9.794
21652WAT     H165198   4.723   3.289   9.883
21652WAT     H265199   4.610   3.198   9.807
21653WAT      O65200   3.702   1.467   7.983
21653WAT     H165201   3.642   1.400   8.026
21653WAT     H265202   3.795   1.456   8.018
21654WAT      O65203   5.622   8.354   1.736
21654WAT     H165204   5.636   8.255   1.733
21654WAT     H265205   5.546   8.375   1.797
21655WAT      O65206   1.179   1.461   5.776
21655WAT     H165207   1.227   1.442   5.862
21655WAT     H265208   1.228   1.532   5.725
21656WAT      O65209   8.415   8.887   3.468
21656WAT     H165210   8.500   8.940   3.466
21656WAT     H265211   8.358   8.913   3.391
21657WAT      O65212   7.976   6.775   1.859
21657WAT     H165213   7.887   6.787   1.903
21657WAT     H265214   7.969   6.801   1.762
21658WAT      O65215   9.480   1.881   7.891
21658WAT     H165216   9.526   1.859   7.805
21658WAT     H265217   9.390   1.837   7.893
21659WAT      O65218   0.536   0.522   2.903
21659WAT     H165219   0.523   0.607   2.851
21659WAT     H265220   0.538   0.543   3.000
21660WAT      O65221   6.101   2.459   5.018
21660WAT     H165222   6.164   2.442   5.094
21660WAT     H265223   6.083   2.557   5.011
21661WAT      O65224   4.312   3.025   7.955
21661WAT     H165225   4.250   2.957   7.992
21661WAT     H265226   4.406   3.000   7.976
21662WAT      O65227   4.227   2.819   2.987
21662WAT     H165228   4.179   2.741   3.026
21662WAT     H265229   4.265   2.795   2.898
21663WAT      O65230   3.018   5.249   2.388
21663WAT     H165231   2.960   5.278   2.465
21663WAT     H265232   2.962   5.197   2.323
21664WAT      O65233   5.529   6.547   1.622
21664WAT     H165234   5.489   6.461   1.654
21664WAT     H265235   5.482   6.577   1.539
21665WAT      O65236   3.637   7.547   3.678
21665WAT     H165237   3.642   7.610   3.602
21665WAT     H265238   3.686   7.463   3.656
21666WAT      O65239   8.374   4.003   7.692
21666WAT     H165240   8.437   4.041   7.624
21666WAT     H265241   8.357   3.907   7.670
21667WAT      O65242   2.906   4.131   4.867
21667WAT     H165243   2.983   4.105   4.925
21667WAT     H265244   2.926   4.219   4.823
21668WAT      O65245   9.437   2.220   5.358
21668WAT     H165246   9.380   2.246   5.436
21668WAT     H265247   9.396   2.142   5.311
21669WAT      O65248   9.487   5.302   9.491
21669WAT     H165249   9.391   5.311   9.518
21669WAT     H265250   9.492   5.272   9.396
21670WAT      O65251   1.092   7.914   1.880
21670WAT     H165252   1.135   7.836   1.925
21670WAT     H265253   1.093   7.901   1.781
21671WAT      O65254   8.304   3.484   5.220
21671WAT     H165255   8.233   3.544   5.183
21671WAT     H265256   8.283   3.389   5.196
21672WAT      O65257   2.781   6.891   3.415
21672WAT     H165258   2.763   6.818   3.480
21672WAT     H265259   2.875   6.924   3.426
21673WAT      O65260   6.626   7.819   8.790
21673WAT     H165261   6.610   7.887   8.718
21673WAT     H265262   6.719   7.829   8.825
21674WAT      O65263   5.127   2.460   7.797
21674WAT     H165264   5.071   2.410   7.863
21674WAT     H265265   5.223   2.455   7.824
21675WAT      O65266   1.823   3.892   0.638
21675WAT     H165267   1.891   3.957   0.673
21675WAT     H265268   1.850   3.860   0.548
21676WAT      O65269   8.593   5.386   4.778
21676WAT     H165270   8.644   5.471   4.765
21676WAT     H265271   8.573   5.345   4.689
21677WAT      O65272   7.182   3.902   5.509
21677WAT     H165273   7.220   3.815   5.477
21677WAT     H265274   7.106   3.930   5.450
21678WAT      O65275   7.714   5.946   0.021
21678WAT     H165276   7.673   5.956   0.111
21678WAT     H265277   7.811   5.970   0.026
21679WAT      O65278   6.122   4.934   5.420
21679WAT     H165279   6.135   5.030   5.397
21679WAT     H265280   6.040   4.924   5.476
21680WAT      O65281   2.438   3.868   5.832
21680WAT     H165282   2.478   3.899   5.919
21680WAT     H265283   2.509   3.865   5.762
21681WAT      O65284   0.659   5.216   2.731
21681WAT     H165285   0.741   5.204   2.675
21681WAT     H265286   0.680   5.192   2.826
21682WAT      O65287   0.202   0.788   3.234
21682WAT     H165288   0.127   0.742   3.283
21682WAT     H265289   0.207   0.754   3.141
21683WAT      O65290   5.387   5.603   0.900
21683WAT     H165291   5.333   5.603   0.815
21683WAT     H265292   5.469   5.548   0.888
21684WAT      O65293   5.206   9.457   9.756
21684WAT     H165294   5.157   9.373   9.733
21684WAT     H265295   5.227   9.458   9.854
21685WAT      O65296   3.228   3.182   4.615
21685WAT     H165297   3.206   3.084   4.617
21685WAT     H265298   3.309   3.197   4.557
21686WAT      O65299   8.540   9.635   8.284
21686WAT     H165300   8.549   9.645   8.383
21686WAT     H265301   8.501   9.546   8.263
21687WAT      O65302   7.229   1.612   9.393
21687WAT     H165303   7.182   1.666   9.463
21687WAT     H265304   7.243   1.668   9.311
21688WAT      O65305   6.426   6.308   1.009
21688WAT     H165306   6.511   6.345   1.045
21688WAT     H265307   6.418   6.332   0.912
21689WAT      O65308   0.789   1.163   5.645
21689WAT     H165309   0.822   1.246   5.690
21689WAT     H265310   0.790   1.176   5.546
21690WAT      O65311   2.176   8.047   1.244
21690WAT     H165312   2.145   8.021   1.152
21690WAT     H265313   2.099   8.082   1.296
21691WAT      O65314   1.744   2.786   6.179
21691WAT     H165315   1.802   2.868   6.189
21691WAT     H265316   1.707   2.784   6.086
21692WAT      O65317   1.138   3.042   8.952
21692WAT     H165318   1.141   3.086   8.862
21692WAT     H265319   1.139   2.943   8.941
21693WAT      O65320   1.603   6.964   9.589
21693WAT     H165321   1.641   7.049   9.625
21693WAT     H265322   1.543   6.984   9.512
21694WAT      O65323   5.356   6.619   2.440
21694WAT     H165324   5.364   6.526   2.475
21694WAT     H265325   5.360   6.618   2.340
21695WAT      O65326   2.271   3.916   6.915
21695WAT     H165327   2.183   3.935   6.874
21695WAT     H265328   2.308   4.000   6.956
21696WAT      O65329   8.034   2.872   2.363
21696WAT     H165330   8.005   2.793   2.308
21696WAT     H265331   7.959   2.938   2.368
21697WAT      O65332   4.075   6.534   9.263
21697WAT     H165333   4.060   6.617   9.210
21697WAT     H265334   4.037   6.545   9.354
21698WAT      O65335   1.449   9.116   5.062
21698WAT     H165336   1.415   9.029   5.026
21698WAT     H265337   1.518   9.098   5.132
21699WAT      O65338   6.994   0.738   4.197
21699WAT     H165339   7.009   0.798   4.276
21699WAT     H265340   6.903   0.697   4.204
21700WAT      O65341   6.268   7.933   4.764
21700WAT     H165342   6.192   7.921   4.828
21700WAT     H265343   6.334   7.997   4.802
21701WAT      O65344   0.128   8.155   7.963
21701WAT     H165345   0.197   8.082   7.965
21701WAT     H265346   0.037   8.116   7.974
21702WAT      O65347   2.667   2.926   9.378
21702WAT     H165348   2.682   3.021   9.351
21702WAT     H265349   2.746   2.871   9.351
21703WAT      O65350   0.391   7.377   4.212
21703WAT     H165351   0.349   7.466   4.230
21703WAT     H265352   0.489   7.382   4.227
21704WAT      O65353   2.889   6.099   1.948
21704WAT     H165354   2.967   6.095   2.012
21704WAT     H265355   2.811   6.051   1.988
21705WAT      O65356   4.973   2.643   5.867
21705WAT     H165357   5.038   2.653   5.943
21705WAT     H265358   4.931   2.731   5.847
21706WAT      O65359   6.474   8.013   4.431
21706WAT     H165360   6.524   7.954   4.368
21706WAT     H265361   6.381   7.978   4.443
21707WAT      O65362   1.452   2.759   3.492
21707WAT     H165363   1.403   2.681   3.531
21707WAT     H265364   1.396   2.842   3.502
21708WAT      O65365   9.456   0.937   7.595
21708WAT     H165366   9.510   0.922   7.511
21708WAT     H265367   9.474   1.029   7.629
21709WAT      O65368   7.564   2.306   3.966
21709WAT     H165369   7.552   2.219   3.918
21709WAT     H265370   7.477   2.333   4.007
21710WAT      O65371   3.404   9.754   5.874
21710WAT     H165372   3.380   9.837   5.925
21710WAT     H265373   3.322   9.698   5.860
21711WAT      O65374   5.562   9.112   1.508
21711WAT     H165375   5.569   9.043   1.581
21711WAT     H265376   5.652   9.127   1.468
21712WAT      O65377   0.197   4.677   5.444
21712WAT     H165378   0.119   4.623   5.474
21712WAT     H265379   0.272   4.669   5.510
21713WAT      O65380   0.864   5.949   5.005
21713WAT     H165381   0.796   6.022   4.998
21713WAT     H265382   0.890   5.936   5.101
21714WAT      O65383   0.159   5.812   6.192
21714WAT     H165384   0.151   5.871   6.273
21714WAT     H265385   0.232   5.847   6.133
21715WAT      O65386   2.382   0.232   7.990
21715WAT     H165387   2.383   0.331   8.003
21715WAT     H265388   2.434   0.188   8.063
21716WAT      O65389   4.786   3.428   1.730
21716WAT     H165390   4.729   3.349   1.754
21716WAT     H265391   4.756   3.507   1.784
21717WAT      O65392   1.427   0.248   2.007
21717WAT     H165393   1.459   0.174   2.067
21717WAT     H265394   1.486   0.327   2.019
21718WAT      O65395   1.819   8.827   9.129
21718WAT     H165396   1.785   8.908   9.082
21718WAT     H265397   1.762   8.808   9.209
21719WAT      O65398   6.110   9.805   7.035
21719WAT     H165399   6.184   9.738   7.041
21719WAT     H265400   6.093   9.844   7.126
21720WAT      O65401   7.270   6.962   2.349
21720WAT     H165402   7.206   6.974   2.424
21720WAT     H265403   7.318   7.048   2.332
21721WAT      O65404   4.311   0.654   3.725
21721WAT     H165405   4.336   0.751   3.726
21721WAT     H265406   4.378   0.603   3.671
21722WAT      O65407   1.230   9.632   3.337
21722WAT     H165408   1.175   9.550   3.354
21722WAT     H265409   1.171   9.712   3.342
21723WAT      O65410   4.593   6.955   5.660
21723WAT     H165411   4.590   6.885   5.589
21723WAT     H265412   4.672   6.939   5.719
21724WAT      O65413   5.940   2.333   8.273
21724WAT     H165414   6.038   2.337   8.258
21724WAT     H265415   5.898   2.420   8.249
21725WAT      O65416   0.995   3.114   7.337
21725WAT     H165417   1.095   3.106   7.327
21725WAT     H265418   0.973   3.198   7.386
21726WAT      O65419   8.222   6.760   2.443
21726WAT     H165420   8.132   6.802   2.454
21726WAT     H265421   8.211   6.668   2.403
21727WAT      O65422   1.524   7.416   9.160
21727WAT     H165423   1.428   7.438   9.176
21727WAT     H265424   1.562   7.372   9.241
21728WAT      O65425   6.828   4.062   1.781
21728WAT     H165426   6.775   4.146   1.790
21728WAT     H265427   6.885   4.068   1.699
21729WAT      O65428   9.679   6.515   2.620
21729WAT     H165429   9.771   6.477   2.617
21729WAT     H265430   9.612   6.441   2.628
21730WAT      O65431   8.865   8.613   7.397
21730WAT     H165432   8.951   8.653   7.431
21730WAT     H265433   8.836   8.539   7.458
21731WAT      O65434   0.985   0.607   6.006
21731WAT     H165435   0.974   0.692   5.955
21731WAT     H265436   0.898   0.558   6.007
21732WAT      O65437   2.260   2.863   6.800
21732WAT     H165438   2.259   2.768   6.831
21732WAT     H265439   2.228   2.868   6.705
21733WAT      O65440   6.440   2.876   2.823
21733WAT     H165441   6.377   2.824   2.881
21733WAT     H265442   6.472   2.817   2.748
21734WAT      O65443   4.433   0.519   1.000
21734WAT     H165444   4.461   0.508   0.905
21734WAT     H265445   4.514   0.515   1.059
21735WAT      O65446   4.335   4.715   4.598
21735WAT     H165447   4.268   4.682   4.665
21735WAT     H265448   4.427   4.706   4.636
21736WAT      O65449   0.149   2.740   0.083
21736WAT     H165450   0.171   2.796   0.003
21736WAT     H265451   0.054   2.755   0.109
21737WAT      O65452   0.899   5.755   4.204
21737WAT     H165453   0.822   5.732   4.143
21737WAT     H265454   0.914   5.854   4.202
21738WAT      O65455   2.799   6.298   6.758
21738WAT     H165456   2.704   6.316   6.782
21738WAT     H265457   2.847   6.384   6.742
21739WAT      O65458   1.886   3.765   9.774
21739WAT     H165459   1.837   3.766   9.687
21739WAT     H265460   1.866   3.680   9.822
21740WAT      O65461   3.858   3.879   8.873
21740WAT     H165462   3.903   3.889   8.784
21740WAT     H265463   3.909   3.930   8.942
21741WAT      O65464   4.028   2.009   2.501
21741WAT     H165465   3.990   1.928   2.544
21741WAT     H265466   3.993   2.017   2.407
21742WAT      O65467   2.677   9.251   0.008
21742WAT     H165468   2.744   9.234  -0.064
21742WAT     H265469   2.628   9.166   0.027
21743WAT      O65470   2.725   2.689   2.744
21743WAT     H165471   2.627   2.673   2.731
21743WAT     H265472   2.774   2.603   2.732
21744WAT      O65473   0.831   1.998   7.790
21744WAT     H165474   0.812   1.901   7.779
21744WAT     H265475   0.836   2.020   7.888
21745WAT      O65476   8.070   2.985   4.926
21745WAT     H165477   8.054   3.078   4.894
21745WAT     H265478   8.136   2.987   5.001
21746WAT      O65479   6.463   6.461   2.376
21746WAT     H165480   6.489   6.422   2.465
21746WAT     H265481   6.532   6.437   2.308
21747WAT      O65482   0.312   8.963   8.972
21747WAT     H165483   0.212   8.970   8.976
21747WAT     H265484   0.339   8.868   8.989
21748WAT      O65485   4.975   1.671   5.108
21748WAT     H165486   4.992   1.762   5.070
21748WAT     H265487   4.877   1.652   5.108
21749WAT      O65488   1.841   3.620   4.498
21749WAT     H165489   1.885   3.560   4.431
21749WAT     H265490   1.912   3.666   4.552
21750WAT      O65491   8.042   1.577   5.910
21750WAT     H165492   7.968   1.550   5.848
21750WAT     H265493   8.039   1.676   5.924
21751WAT      O65494   2.952   9.293   5.627
21751WAT     H165495   3.045   9.282   5.591
21751WAT     H265496   2.886   9.274   5.554
21752WAT      O65497   9.482   1.662   6.298
21752WAT     H165498   9.541   1.737   6.267
21752WAT     H265499   9.491   1.585   6.236
21753WAT      O65500   2.726   3.863   4.864
21753WAT     H165501   2.730   3.962   4.868
21753WAT     H265502   2.766   3.824   4.947
21754WAT      O65503   8.693   1.116   5.729
21754WAT     H165504   8.753   1.185   5.690
21754WAT     H265505   8.625   1.160   5.788
21755WAT      O65506   2.587   7.828   8.051
21755WAT     H165507   2.613   7.890   7.977
21755WAT     H265508   2.652   7.838   8.127
21756WAT      O65509   2.280   4.093   8.339
21756WAT     H165510   2.318   4.171   8.388
21756WAT     H265511   2.324   4.009   8.369
21757WAT      O65512   7.917   8.948   1.006
21757WAT     H165513   7.949   8.993   0.923
21757WAT     H265514   7.970   8.865   1.021
21758WAT      O65515   6.261   2.427   1.007
21758WAT     H165516   6.266   2.361   0.931
21758WAT     H265517   6.288   2.381   1.092
21759WAT      O65518   9.579   3.485   3.142
21759WAT     H165519   9.549   3.551   3.073
21759WAT     H265520   9.653   3.525   3.196
21760WAT      O65521   8.527   0.881   0.339
21760WAT     H165522   8.508   0.976   0.314
21760WAT     H265523   8.614   0.853   0.299
21761WAT      O65524   1.885   5.919   7.592
21761WAT     H165525   1.907   6.006   7.636
21761WAT     H265526   1.824   5.936   7.514
21762WAT      O65527   8.619   5.319   1.467
21762WAT     H165528   8.655   5.363   1.385
21762WAT     H265529   8.571   5.387   1.523
21763WAT      O65530   1.551   0.443   4.836
21763WAT     H165531   1.530   0.371   4.770
21763WAT     H265532   1.612   0.408   4.906
21764WAT      O65533   1.701   6.395   1.879
21764WAT     H165534   1.763   6.353   1.945
21764WAT     H265535   1.609   6.356   1.890
21765WAT      O65536   8.626   8.333   7.184
21765WAT     H165537   8.675   8.276   7.118
21765WAT     H265538   8.658   8.427   7.177
21766WAT      O65539   1.757   2.541   0.210
21766WAT     H165540   1.753   2.514   0.114
21766WAT     H265541   1.752   2.641   0.216
21767WAT      O65542   3.698   5.271   2.970
21767WAT     H165543   3.685   5.325   2.887
21767WAT     H265544   3.656   5.317   3.047
21768WAT      O65545   8.327   6.345   9.696
21768WAT     H165546   8.419   6.383   9.697
21768WAT     H265547   8.262   6.415   9.667
21769WAT      O65548   3.088   1.604   8.536
21769WAT     H165549   3.128   1.645   8.454
21769WAT     H265550   3.042   1.519   8.511
21770WAT      O65551   9.626   5.185   4.541
21770WAT     H165552   9.637   5.090   4.571
21770WAT     H265553   9.551   5.228   4.591
21771WAT      O65554   6.095   7.219   7.139
21771WAT     H165555   6.131   7.130   7.110
21771WAT     H265556   6.122   7.236   7.233
21772WAT      O65557   0.189   3.271   8.031
21772WAT     H165558   0.269   3.331   8.028
21772WAT     H265559   0.165   3.241   7.939
21773WAT      O65560   1.004   3.833   5.383
21773WAT     H165561   1.086   3.808   5.434
21773WAT     H265562   0.996   3.932   5.379
21774WAT      O65563   6.964   7.492   0.285
21774WAT     H165564   6.897   7.418   0.294
21774WAT     H265565   7.032   7.484   0.357
21775WAT      O65566   9.224   5.418   8.342
21775WAT     H165567   9.224   5.346   8.273
21775WAT     H265568   9.261   5.502   8.303
21776WAT      O65569   5.567   8.754   3.567
21776WAT     H165570   5.493   8.808   3.528
21776WAT     H265571   5.582   8.781   3.662
21777WAT      O65572   9.421   4.385   4.526
21777WAT     H165573   9.515   4.349   4.532
21777WAT     H265574   9.356   4.310   4.540
21778WAT      O65575   4.958   5.839   4.709
21778WAT     H165576   5.020   5.841   4.631
21778WAT     H265577   4.898   5.760   4.702
21779WAT      O65578   7.429   6.145   3.441
21779WAT     H165579   7.435   6.217   3.510
21779WAT     H265580   7.494   6.072   3.464
21780WAT      O65581   5.915   6.221   3.984
21780WAT     H165582   5.902   6.288   3.911
21780WAT     H265583   5.964   6.263   4.060
21781WAT      O65584   7.135   0.597   1.523
21781WAT     H165585   7.130   0.663   1.448
21781WAT     H265586   7.221   0.547   1.517
21782WAT      O65587   1.102   8.181   5.240
21782WAT     H165588   1.051   8.097   5.254
21782WAT     H265589   1.043   8.260   5.256
21783WAT      O65590   4.974   8.762   9.172
21783WAT     H165591   5.069   8.778   9.145
21783WAT     H265592   4.923   8.724   9.094
21784WAT      O65593   6.636   5.818   7.930
21784WAT     H165594   6.648   5.914   7.954
21784WAT     H265595   6.570   5.810   7.854
21785WAT      O65596   5.534   1.179   6.370
21785WAT     H165597   5.449   1.161   6.321
21785WAT     H265598   5.565   1.272   6.351
21786WAT      O65599   3.126   6.012   0.616
21786WAT     H165600   3.054   6.005   0.547
21786WAT     H265601   3.166   6.104   0.612
21787WAT      O65602   6.079   1.569   2.106
21787WAT     H165603   6.175   1.543   2.111
21787WAT     H265604   6.052   1.576   2.010
21788WAT      O65605   1.039   5.630   5.838
21788WAT     H165606   1.054   5.723   5.804
21788WAT     H265607   0.959   5.629   5.899
21789WAT      O65608   8.487   2.882   2.676
21789WAT     H165609   8.392   2.856   2.660
21789WAT     H265610   8.519   2.842   2.761
21790WAT      O65611   1.628   8.180   8.004
21790WAT     H165612   1.589   8.267   7.972
21790WAT     H265613   1.595   8.106   7.946
21791WAT      O65614   6.837   1.603   7.420
21791WAT     H165615   6.741   1.605   7.392
21791WAT     H265616   6.858   1.683   7.475
21792WAT      O65617   8.132   7.316   3.996
21792WAT     H165618   8.212   7.257   3.987
21792WAT     H265619   8.148   7.402   3.948
21793WAT      O65620   0.401   7.415   1.677
21793WAT     H165621   0.336   7.439   1.749
21793WAT     H265622   0.461   7.493   1.659
21794WAT      O65623   1.104   6.119   7.321
21794WAT     H165624   1.177   6.148   7.260
21794WAT     H265625   1.125   6.146   7.414
21795WAT      O65626   3.808   8.289   7.186
21795WAT     H165627   3.726   8.247   7.148
21795WAT     H265628   3.889   8.244   7.149
21796WAT      O65629   1.730   7.947   1.453
21796WAT     H165630   1.819   7.993   1.454
21796WAT     H265631   1.658   8.014   1.435
21797WAT      O65632   1.191   5.239   8.383
21797WAT     H165633   1.173   5.337   8.380
21797WAT     H265634   1.286   5.222   8.358
21798WAT      O65635   8.590   0.939   9.363
21798WAT     H165636   8.646   1.016   9.332
21798WAT     H265637   8.635   0.895   9.441
21799WAT      O65638   2.858   0.744   6.080
21799WAT     H165639   2.928   0.680   6.110
21799WAT     H265640   2.768   0.700   6.083
21800WAT      O65641   4.488   0.566   4.938
21800WAT     H165642   4.450   0.474   4.951
21800WAT     H265643   4.467   0.622   5.018
21801WAT      O65644   1.115   3.567   7.800
21801WAT     H165645   1.164   3.581   7.886
21801WAT     H265646   1.164   3.613   7.726
21802WAT      O65647   0.749   6.066   3.727
21802WAT     H165648   0.751   6.032   3.633
21802WAT     H265649   0.671   6.025   3.775
21803WAT      O65650   4.696   8.120   4.347
21803WAT     H165651   4.631   8.105   4.421
21803WAT     H265652   4.755   8.197   4.369
21804WAT      O65653   8.441   5.441   6.260
21804WAT     H165654   8.534   5.447   6.297
21804WAT     H265655   8.429   5.510   6.188
21805WAT      O65656   7.850   9.324   3.397
21805WAT     H165657   7.750   9.322   3.396
21805WAT     H265658   7.885   9.339   3.304
21806WAT      O65659   6.670   9.545   5.613
21806WAT     H165660   6.587   9.518   5.563
21806WAT     H265661   6.672   9.500   5.702
21807WAT      O65662   9.000   5.427   2.223
21807WAT     H165663   8.906   5.440   2.192
21807WAT     H265664   9.061   5.484   2.170
21808WAT      O65665   6.166   2.596   0.495
21808WAT     H165666   6.194   2.615   0.401
21808WAT     H265667   6.098   2.523   0.494
21809WAT      O65668   5.676   7.776   2.304
21809WAT     H165669   5.637   7.691   2.271
21809WAT     H265670   5.633   7.802   2.391
21810WAT      O65671   9.006   4.276   7.747
21810WAT     H165672   8.939   4.238   7.682
21810WAT     H265673   9.097   4.271   7.706
21811WAT      O65674   2.536   4.192   7.435
21811WAT     H165675   2.509   4.138   7.514
21811WAT     H265676   2.463   4.190   7.367
21812WAT      O65677   5.970   0.139   8.283
21812WAT     H165678   5.995   0.169   8.375
21812WAT     H265679   6.016   0.053   8.262
21813WAT      O65680   7.893   2.690   9.549
21813WAT     H165681   7.965   2.622   9.536
21813WAT     H265682   7.873   2.699   9.647
21814WAT      O65683   3.229   2.634   4.077
21814WAT     H165684   3.154   2.575   4.107
21814WAT     H265685   3.278   2.588   4.002
21815WAT      O65686   8.028   6.909   3.777
21815WAT     H165687   7.939   6.922   3.821
21815WAT     H265688   8.020   6.839   3.706
21816WAT      O65689   5.622   1.652   1.301
21816WAT     H165690   5.685   1.725   1.326
21816WAT     H265691   5.531   1.690   1.287
21817WAT      O65692   5.382   8.178   1.633
21817WAT     H165693   5.325   8.193   1.713
21817WAT     H265694   5.358   8.244   1.562
21818WAT      O65695   8.788   7.428   9.564
21818WAT     H165696   8.866   7.473   9.521
21818WAT     H265697   8.704   7.472   9.535
21819WAT      O65698   2.704   5.483   7.508
21819WAT     H165699   2.740   5.517   7.421
21819WAT     H265700   2.676   5.560   7.565
21820WAT      O65701   8.211   5.344   7.335
21820WAT     H165702   8.231   5.304   7.245
21820WAT     H265703   8.297   5.357   7.385
21821WAT      O65704   7.057   7.131   5.128
21821WAT     H165705   7.151   7.132   5.160
21821WAT     H265706   7.045   7.058   5.061
21822WAT      O65707   5.765   1.981   6.875
21822WAT     H165708   5.687   1.961   6.935
21822WAT     H265709   5.731   2.026   6.792
21823WAT      O65710   6.808   5.933   4.282
21823WAT     H165711   6.776   5.838   4.278
21823WAT     H265712   6.863   5.954   4.202
21824WAT      O65713   6.263   9.460   2.545
21824WAT     H165714   6.222   9.369   2.550
21824WAT     H265715   6.208   9.518   2.484
21825WAT      O65716   1.086   5.507   8.319
21825WAT     H165717   1.121   5.598   8.342
21825WAT     H265718   1.099   5.490   8.221
21826WAT      O65719   4.225   5.449   0.358
21826WAT     H165720   4.193   5.374   0.415
21826WAT     H265721   4.151   5.516   0.347
21827WAT      O65722   3.720   4.603   5.749
21827WAT     H165723   3.659   4.583   5.673
21827WAT     H265724   3.666   4.636   5.827
21828WAT      O65725   0.756   2.366   6.767
21828WAT     H165726   0.743   2.329   6.675
21828WAT     H265727   0.839   2.328   6.806
21829WAT      O65728   6.312   0.986   4.395
21829WAT     H165729   6.299   0.907   4.454
21829WAT     H265730   6.226   1.037   4.389
21830WAT      O65731   9.675   2.200   1.068
21830WAT     H165732   9.587   2.243   1.051
21830WAT     H265733   9.662   2.102   1.085
21831WAT      O65734   2.477   9.828   1.227
21831WAT     H165735   2.525   9.907   1.267
21831WAT     H265736   2.486   9.831   1.128
21832WAT      O65737   5.174   5.625   4.499
21832WAT     H165738   5.226   5.706   4.473
21832WAT     H265739   5.222   5.576   4.573
21833WAT      O65740   0.633   2.686   1.962
21833WAT     H165741   0.649   2.590   1.937
21833WAT     H265742   0.592   2.734   1.885
21834WAT      O65743   6.209   9.217   3.424
21834WAT     H165744   6.162   9.183   3.343
21834WAT     H265745   6.198   9.316   3.429
21835WAT      O65746   8.348   8.072   7.701
21835WAT     H165747   8.407   7.992   7.699
21835WAT     H265748   8.323   8.093   7.796
21836WAT      O65749   6.291   6.374   4.010
21836WAT     H165750   6.315   6.407   3.918
21836WAT     H265751   6.193   6.388   4.025
21837WAT      O65752   6.958   8.328   5.550
21837WAT     H165753   6.965   8.306   5.452
21837WAT     H265754   6.971   8.245   5.604
21838WAT      O65755   5.616   1.639   6.578
21838WAT     H165756   5.569   1.696   6.645
21838WAT     H265757   5.600   1.543   6.598
21839WAT      O65758   1.719   2.198   9.505
21839WAT     H165759   1.703   2.226   9.410
21839WAT     H265760   1.676   2.110   9.522
21840WAT      O65761   3.705   7.033   6.431
21840WAT     H165762   3.713   7.008   6.527
21840WAT     H265763   3.770   7.105   6.410
21841WAT      O65764   0.947   1.646   6.309
21841WAT     H165765   0.882   1.717   6.282
21841WAT     H265766   0.898   1.561   6.330
21842WAT      O65767   9.077   7.908   2.205
21842WAT     H165768   9.059   7.815   2.174
21842WAT     H265769   9.155   7.946   2.155
21843WAT      O65770   8.521   3.151   2.707
21843WAT     H165771   8.496   3.054   2.700
21843WAT     H265772   8.446   3.201   2.751
21844WAT      O65773   3.109   5.295   3.127
21844WAT     H165774   3.011   5.276   3.119
21844WAT     H265775   3.132   5.313   3.223
21845WAT      O65776   2.477   3.471   9.188
21845WAT     H165777   2.405   3.536   9.166
21845WAT     H265778   2.487   3.405   9.113
21846WAT      O65779   9.486   2.154   1.836
21846WAT     H165780   9.556   2.113   1.895
21846WAT     H265781   9.531   2.200   1.759
21847WAT      O65782   6.536   7.406   1.311
21847WAT     H165783   6.606   7.350   1.267
21847WAT     H265784   6.579   7.466   1.378
21848WAT      O65785   0.858   3.444   1.135
21848WAT     H165786   0.786   3.396   1.084
21848WAT     H265787   0.901   3.512   1.075
21849WAT      O65788   1.165   5.564   7.013
21849WAT     H165789   1.124   5.615   7.089
21849WAT     H265790   1.238   5.506   7.047
21850WAT      O65791   9.873   0.020   1.163
21850WAT     H165792   9.923  -0.046   1.107
21850WAT     H265793   9.852  -0.020   1.252
21851WAT      O65794   8.552   5.548   4.469
21851WAT     H165795   8.523   5.475   4.530
21851WAT     H265796   8.636   5.590   4.504
21852WAT      O65797   9.036   9.822   8.170
21852WAT     H165798   9.079   9.783   8.089
21852WAT     H265799   8.940   9.793   8.174
21853WAT      O65800   1.420   1.718   0.579
21853WAT     H165801   1.515   1.747   0.573
21853WAT     H265802   1.383   1.742   0.670
21854WAT      O65803   7.066   4.261   3.074
21854WAT     H165804   6.997   4.221   3.013
21854WAT     H265805   7.070   4.208   3.159
21855WAT      O65806   0.464   3.148   8.127
21855WAT     H165807   0.503   3.218   8.068
21855WAT     H265808   0.388   3.102   8.080
21856WAT      O65809   0.192   6.037   7.718
21856WAT     H165810   0.172   6.106   7.648
21856WAT     H265811   0.172   5.946   7.682
21857WAT      O65812   9.800   7.553   8.991
21857WAT     H165813   9.780   7.567   8.894
21857WAT     H265814   9.746   7.476   9.025
21858WAT      O65815   2.306   6.380   8.363
21858WAT     H165816   2.236   6.429   8.415
21858WAT     H265817   2.297   6.282   8.379
21859WAT      O65818   8.595   9.759   5.948
21859WAT     H165819   8.546   9.793   6.028
21859WAT     H265820   8.684   9.803   5.942
21860WAT      O65821   2.066   3.647   6.777
21860WAT     H165822   2.021   3.698   6.850
21860WAT     H265823   2.138   3.589   6.815
21861WAT      O65824   2.778   9.633   9.781
21861WAT     H165825   2.687   9.592   9.784
21861WAT     H265826   2.840   9.573   9.730
21862WAT      O65827   7.569   7.924   5.760
21862WAT     H165828   7.569   7.855   5.832
21862WAT     H265829   7.626   8.001   5.787
21863WAT      O65830   2.688   2.496   4.212
21863WAT     H165831   2.764   2.552   4.178
21863WAT     H265832   2.696   2.403   4.176
21864WAT      O65833   3.688   2.849   5.530
21864WAT     H165834   3.760   2.792   5.568
21864WAT     H265835   3.600   2.824   5.572
21865WAT      O65836   0.926   2.757   0.371
21865WAT     H165837   0.842   2.751   0.425
21865WAT     H265838   1.005   2.740   0.429
21866WAT      O65839   0.900   9.248   0.436
21866WAT     H165840   0.906   9.199   0.523
21866WAT     H265841   0.872   9.343   0.453
21867WAT      O65842   3.497   1.208   2.584
21867WAT     H165843   3.514   1.159   2.670
21867WAT     H265844   3.519   1.149   2.507
21868WAT      O65845   2.661   5.178   4.542
21868WAT     H165846   2.633   5.217   4.455
21868WAT     H265847   2.585   5.128   4.583
21869WAT      O65848   3.789   3.676   8.163
21869WAT     H165849   3.707   3.621   8.182
21869WAT     H265850   3.779   3.720   8.074
21870WAT      O65851   3.299   0.340   4.357
21870WAT     H165852   3.360   0.419   4.363
21870WAT     H265853   3.237   0.352   4.280
21871WAT      O65854   8.142   8.683   0.679
21871WAT     H165855   8.211   8.675   0.751
21871WAT     H265856   8.186   8.673   0.590
21872WAT      O65857   6.694   6.696   3.728
21872WAT     H165858   6.747   6.611   3.718
21872WAT     H265859   6.596   6.675   3.725
21873WAT      O65860   0.894   7.267   7.745
21873WAT     H165861   0.955   7.201   7.790
21873WAT     H265862   0.875   7.342   7.808
21874WAT      O65863   4.541   7.131   1.038
21874WAT     H165864   4.636   7.100   1.035
21874WAT     H265865   4.489   7.072   1.100
21875WAT      O65866   1.587   4.456   4.288
21875WAT     H165867   1.582   4.474   4.386
21875WAT     H265868   1.514   4.506   4.241
21876WAT      O65869   5.112   7.634   1.073
21876WAT     H165870   5.078   7.548   1.112
21876WAT     H265871   5.091   7.638   0.975
21877WAT      O65872   2.823   1.274   6.062
21877WAT     H165873   2.732   1.294   6.024
21877WAT     H265874   2.833   1.176   6.073
21878WAT      O65875   4.942   7.455   9.547
21878WAT     H165876   4.904   7.539   9.510
21878WAT     H265877   5.039   7.468   9.567
21879WAT      O65878   2.766   5.344   6.471
21879WAT     H165879   2.767   5.282   6.392
21879WAT     H265880   2.755   5.438   6.439
21880WAT      O65881   4.656   1.167   9.241
21880WAT     H165882   4.588   1.235   9.214
21880WAT     H265883   4.672   1.104   9.165
21881WAT      O65884   7.213   2.552   6.373
21881WAT     H165885   7.187   2.578   6.466
21881WAT     H265886   7.254   2.461   6.374
21882WAT      O65887   2.016   9.466   0.379
21882WAT     H165888   1.949   9.519   0.326
21882WAT     H265889   2.068   9.407   0.317
21883WAT      O65890   7.521   9.639   6.771
21883WAT     H165891   7.481   9.568   6.829
21883WAT     H265892   7.561   9.711   6.828
21884WAT      O65893   1.373   5.826   0.031
21884WAT     H165894   1.296   5.802   0.090
21884WAT     H265895   1.340   5.843  -0.062
21885WAT      O65896   9.459   5.820   0.987
21885WAT     H165897   9.535   5.883   0.978
21885WAT     H265898   9.493   5.728   1.007
21886WAT      O65899   4.427   5.355   5.638
21886WAT     H165900   4.334   5.389   5.624
21886WAT     H265901   4.491   5.432   5.634
21887WAT      O65902   0.034   2.839   3.259
21887WAT     H165903  -0.039   2.881   3.313
21887WAT     H265904   0.035   2.881   3.168
21888WAT      O65905   5.208   3.717   5.867
21888WAT     H165906   5.176   3.665   5.788
21888WAT     H265907   5.234   3.654   5.940
21889WAT      O65908   1.579   3.090   3.459
21889WAT     H165909   1.496   3.043   3.489
21889WAT     H265910   1.599   3.165   3.522
21890WAT      O65911   5.723   2.278   6.086
21890WAT     H165912   5.705   2.270   6.184
21890WAT     H265913   5.697   2.193   6.040
21891WAT      O65914   2.442   2.191   0.657
21891WAT     H165915   2.396   2.119   0.709
21891WAT     H265916   2.521   2.224   0.709
21892WAT      O65917   0.106   1.182   8.277
21892WAT     H165918   0.177   1.112   8.280
21892WAT     H265919   0.021   1.143   8.243
21893WAT      O65920   4.615   0.167   2.383
21893WAT     H165921   4.585   0.220   2.304
21893WAT     H265922   4.629   0.072   2.356
21894WAT      O65923   2.318   5.556   7.273
21894WAT     H165924   2.228   5.515   7.291
21894WAT     H265925   2.327   5.571   7.174
21895WAT      O65926   6.608   8.727   9.091
21895WAT     H165927   6.537   8.659   9.073
21895WAT     H265928   6.570   8.819   9.082
21896WAT      O65929   5.222   1.484   9.818
21896WAT     H165930   5.312   1.527   9.808
21896WAT     H265931   5.211   1.451   9.912
21897WAT      O65932   4.276   4.768   8.776
21897WAT     H165933   4.326   4.815   8.848
21897WAT     H265934   4.192   4.818   8.756
21898WAT      O65935   5.141   3.597   4.102
21898WAT     H165936   5.150   3.539   4.022
21898WAT     H265937   5.103   3.544   4.178
21899WAT      O65938   6.960   4.939   0.530
21899WAT     H165939   7.019   4.937   0.450
21899WAT     H265940   6.895   4.863   0.526
21900WAT      O65941   0.453   5.229   1.507
21900WAT     H165942   0.434   5.240   1.410
21900WAT     H265943   0.541   5.182   1.519
21901WAT      O65944   3.430   0.403   3.036
21901WAT     H165945   3.449   0.453   2.951
21901WAT     H265946   3.336   0.369   3.035
21902WAT      O65947   0.223   9.472   4.948
21902WAT     H165948   0.242   9.515   5.036
21902WAT     H265949   0.308   9.466   4.895
21903WAT      O65950   4.859   7.509   5.184
21903WAT     H165951   4.934   7.540   5.243
21903WAT     H265952   4.784   7.574   5.188
21904WAT      O65953   7.269   6.740   1.566
21904WAT     H165954   7.174   6.772   1.568
21904WAT     H265955   7.329   6.810   1.605
21905WAT      O65956   6.588   7.108   4.596
21905WAT     H165957   6.592   7.034   4.663
21905WAT     H265958   6.628   7.191   4.634
21906WAT      O65959   3.673   4.525   7.554
21906WAT     H165960   3.684   4.431   7.586
21906WAT     H265961   3.610   4.573   7.614
21907WAT      O65962   7.051   6.801   4.376
21907WAT     H165963   7.024   6.885   4.329
21907WAT     H265964   7.006   6.722   4.334
21908WAT      O65965   1.621   4.527   6.177
21908WAT     H165966   1.583   4.614   6.144
21908WAT     H265967   1.700   4.502   6.120
21909WAT      O65968   0.644   2.825   6.622
21909WAT     H165969   0.740   2.823   6.648
21909WAT     H265970   0.603   2.736   6.639
21910WAT      O65971   7.059   5.196   2.547
21910WAT     H165972   7.043   5.142   2.629
21910WAT     H265973   7.043   5.140   2.466
21911WAT      O65974   2.364   6.319   5.151
21911WAT     H165975   2.362   6.390   5.221
21911WAT     H265976   2.272   6.281   5.140
21912WAT      O65977   8.651   5.649   4.844
21912WAT     H165978   8.572   5.652   4.906
21912WAT     H265979   8.686   5.741   4.830
21913WAT      O65980   0.816   9.653   1.373
21913WAT     H165981   0.875   9.572   1.366
21913WAT     H265982   0.871   9.733   1.395
21914WAT      O65983   2.861   6.560   6.743
21914WAT     H165984   2.953   6.577   6.707
21914WAT     H265985   2.838   6.629   6.811
21915WAT      O65986   7.862   2.777   0.915
21915WAT     H165987   7.919   2.857   0.933
21915WAT     H265988   7.917   2.694   0.927
21916WAT      O65989   0.217   3.217   2.124
21916WAT     H165990   0.287   3.279   2.088
21916WAT     H265991   0.127   3.247   2.094
21917WAT      O65992   0.830   0.404   9.487
21917WAT     H165993   0.856   0.392   9.392
21917WAT     H265994   0.900   0.363   9.546
21918WAT      O65995   7.666   5.351   4.223
21918WAT     H165996   7.743   5.320   4.167
21918WAT     H265997   7.655   5.290   4.301
21919WAT      O65998   9.104   4.373   5.130
21919WAT     H165999   9.008   4.364   5.104
21919WAT     H266000   9.141   4.283   5.155
21920WAT      O66001   7.608   0.497   2.153
21920WAT     H166002   7.661   0.490   2.069
21920WAT     H266003   7.536   0.566   2.141
21921WAT      O66004   1.297   5.722   5.758
21921WAT     H166005   1.291   5.632   5.801
21921WAT     H266006   1.214   5.774   5.780
21922WAT      O66007   1.841   6.570   0.066
21922WAT     H166008   1.891   6.484   0.071
21922WAT     H266009   1.860   6.625   0.147
21923WAT      O66010   6.496   8.706   6.601
21923WAT     H166011   6.509   8.619   6.553
21923WAT     H266012   6.434   8.692   6.678
21924WAT      O66013   9.274   5.469   3.367
21924WAT     H166014   9.330   5.452   3.286
21924WAT     H266015   9.276   5.389   3.427
21925WAT      O66016   4.186   3.248   1.839
21925WAT     H166017   4.205   3.305   1.759
21925WAT     H266018   4.133   3.300   1.905
21926WAT      O66019   4.794   4.159   0.952
21926WAT     H166020   4.735   4.190   0.878
21926WAT     H266021   4.812   4.236   1.014
21927WAT      O66022   5.333   1.376   3.348
21927WAT     H166023   5.273   1.453   3.370
21927WAT     H266024   5.386   1.397   3.266
21928WAT      O66025   9.726   3.675   2.217
21928WAT     H166026   9.731   3.576   2.217
21928WAT     H266027   9.718   3.708   2.123
21929WAT      O66028   6.187   2.867   1.782
21929WAT     H166029   6.136   2.923   1.717
21929WAT     H266030   6.185   2.911   1.872
21930WAT      O66031   7.228   1.262   4.496
21930WAT     H166032   7.146   1.206   4.501
21930WAT     H266033   7.276   1.244   4.410
21931WAT      O66034   3.254   0.989   7.809
21931WAT     H166035   3.291   0.980   7.716
21931WAT     H266036   3.237   0.898   7.847
21932WAT      O66037   5.296   9.600   2.497
21932WAT     H166038   5.317   9.696   2.512
21932WAT     H266039   5.198   9.585   2.505
21933WAT      O66040   0.879   3.262   0.377
21933WAT     H166041   0.969   3.257   0.421
21933WAT     H266042   0.891   3.273   0.278
21934WAT      O66043   5.654   1.413   9.193
21934WAT     H166044   5.725   1.427   9.263
21934WAT     H266045   5.620   1.319   9.199
21935WAT      O66046   1.973   7.812   6.723
21935WAT     H166047   2.044   7.852   6.666
21935WAT     H266048   2.011   7.734   6.774
21936WAT      O66049   2.790   4.123   2.517
21936WAT     H166050   2.785   4.077   2.606
21936WAT     H266051   2.751   4.064   2.447
21937WAT      O66052   6.638   8.199   5.481
21937WAT     H166053   6.628   8.145   5.397
21937WAT     H266054   6.712   8.266   5.469
21938WAT      O66055   9.665   3.192   6.893
21938WAT     H166056   9.665   3.242   6.979
21938WAT     H266057   9.571   3.181   6.861
21939WAT      O66058   1.996   5.808   7.984
21939WAT     H166059   1.986   5.748   7.904
21939WAT     H266060   2.067   5.772   8.044
21940WAT      O66061   0.584   2.578   6.741
21940WAT     H166062   0.648   2.502   6.741
21940WAT     H266063   0.586   2.623   6.830
21941WAT      O66064   5.348   1.638   3.063
21941WAT     H166065   5.426   1.595   3.110
21941WAT     H266066   5.374   1.729   3.033
21942WAT      O66067   4.629   7.671   5.178
21942WAT     H166068   4.613   7.762   5.139
21942WAT     H266069   4.546   7.616   5.169
21943WAT      O66070   8.427   6.381   0.251
21943WAT     H166071   8.437   6.330   0.165
21943WAT     H266072   8.494   6.349   0.317
21944WAT      O66073   3.712   1.545   4.351
21944WAT     H166074   3.724   1.498   4.438
21944WAT     H266075   3.748   1.637   4.357
21945WAT      O66076   8.338   5.547   4.776
21945WAT     H166077   8.427   5.502   4.772
21945WAT     H266078   8.343   5.624   4.840
21946WAT      O66079   7.635   4.659   7.867
21946WAT     H166080   7.646   4.713   7.950
21946WAT     H266081   7.664   4.564   7.885
21947WAT      O66082   3.150   8.388   7.986
21947WAT     H166083   3.104   8.361   8.070
21947WAT     H266084   3.149   8.487   7.977
21948WAT      O66085   4.242   0.205   8.959
21948WAT     H166086   4.332   0.164   8.972
21948WAT     H266087   4.202   0.172   8.873
21949WAT      O66088   0.869   8.563   7.330
21949WAT     H166089   0.944   8.499   7.349
21949WAT     H266090   0.799   8.517   7.275
21950WAT      O66091   0.422   6.327   3.809
21950WAT     H166092   0.475   6.412   3.813
21950WAT     H266093   0.342   6.341   3.751
21951WAT      O66094   5.043   3.799   7.329
21951WAT     H166095   4.951   3.834   7.317
21951WAT     H266096   5.045   3.736   7.407
21952WAT      O66097   6.141   2.107   2.799
21952WAT     H166098   6.146   2.007   2.800
21952WAT     H266099   6.049   2.136   2.825
21953WAT      O66100   3.557   6.900   0.331
21953WAT     H166101   3.509   6.981   0.365
21953WAT     H266102   3.598   6.921   0.242
21954WAT      O66103   7.437   1.984   8.611
21954WAT     H166104   7.416   1.950   8.520
21954WAT     H266105   7.535   1.976   8.628
21955WAT      O66106   2.665   1.937   0.890
21955WAT     H166107   2.760   1.914   0.907
21955WAT     H266108   2.659   2.025   0.843
21956WAT      O66109   0.894   4.590   3.768
21956WAT     H166110   0.819   4.547   3.818
21956WAT     H266111   0.954   4.518   3.731
21957WAT      O66112   9.000   2.388   5.769
21957WAT     H166113   8.901   2.402   5.759
21957WAT     H266114   9.044   2.475   5.791
21958WAT      O66115   3.170   6.531   9.483
21958WAT     H166116   3.178   6.585   9.567
21958WAT     H266117   3.168   6.592   9.404
21959WAT      O66118   6.530   7.717   9.049
21959WAT     H166119   6.621   7.680   9.067
21959WAT     H266120   6.535   7.783   8.974
21960WAT      O66121   3.001   7.389   4.433
21960WAT     H166122   3.017   7.388   4.334
21960WAT     H266123   3.027   7.301   4.472
21961WAT      O66124   6.290   4.943   4.178
21961WAT     H166125   6.220   4.931   4.248
21961WAT     H266126   6.358   4.871   4.187
21962WAT      O66127   3.424   6.694   1.306
21962WAT     H166128   3.475   6.774   1.338
21962WAT     H266129   3.416   6.628   1.381
21963WAT      O66130   5.629   0.563   5.441
21963WAT     H166131   5.639   0.525   5.349
21963WAT     H266132   5.557   0.632   5.442
21964WAT      O66133   4.083   5.850   7.737
21964WAT     H166134   4.028   5.910   7.796
21964WAT     H266135   4.170   5.895   7.717
21965WAT      O66136   5.801   9.010   5.790
21965WAT     H166137   5.829   9.087   5.848
21965WAT     H266138   5.873   8.941   5.791
21966WAT      O66139   8.694   5.362   6.392
21966WAT     H166140   8.783   5.327   6.422
21966WAT     H266141   8.637   5.381   6.472
21967WAT      O66142   0.731   4.605   2.697
21967WAT     H166143   0.726   4.652   2.784
21967WAT     H266144   0.803   4.536   2.700
21968WAT      O66145   8.906   3.302   3.217
21968WAT     H166146   8.894   3.223   3.278
21968WAT     H266147   8.823   3.313   3.161
21969WAT      O66148   5.483   0.206   8.222
21969WAT     H166149   5.387   0.203   8.249
21969WAT     H266150   5.534   0.265   8.284
21970WAT      O66151   3.544   0.457   0.944
21970WAT     H166152   3.504   0.502   0.864
21970WAT     H266153   3.602   0.521   0.994
21971WAT      O66154   4.685   3.365   9.258
21971WAT     H166155   4.689   3.429   9.334
21971WAT     H266156   4.697   3.415   9.172
21972WAT      O66157   0.683   3.710   0.993
21972WAT     H166158   0.662   3.744   1.084
21972WAT     H266159   0.781   3.718   0.976
21973WAT      O66160   3.074   5.344   1.790
21973WAT     H166161   3.103   5.425   1.741
21973WAT     H266162   3.066   5.365   1.888
21974WAT      O66163   9.444   2.429   1.860
21974WAT     H166164   9.454   2.333   1.885
21974WAT     H266165   9.362   2.440   1.803
21975WAT      O66166   6.287   4.245   6.240
21975WAT     H166167   6.317   4.339   6.259
21975WAT     H266168   6.254   4.204   6.325
21976WAT      O66169   3.624   9.262   8.151
21976WAT     H166170   3.704   9.232   8.100
21976WAT     H266171   3.575   9.182   8.187
21977WAT      O66172   7.548   0.172   3.503
21977WAT     H166173   7.469   0.233   3.502
21977WAT     H266174   7.613   0.203   3.573
21978WAT      O66175   1.016   1.068   4.373
21978WAT     H166176   1.038   1.158   4.411
21978WAT     H266177   1.096   1.008   4.382
21979WAT      O66178   9.760   8.131   4.101
21979WAT     H166179   9.687   8.122   4.169
21979WAT     H266180   9.723   8.170   4.017
21980WAT      O66181   9.244   1.499   5.969
21980WAT     H166182   9.298   1.447   6.035
21980WAT     H266183   9.176   1.555   6.019
21981WAT      O66184   3.583   5.625   4.240
21981WAT     H166185   3.661   5.643   4.180
21981WAT     H266186   3.499   5.659   4.197
21982WAT      O66187   2.249   1.497   4.758
21982WAT     H166188   2.347   1.486   4.776
21982WAT     H266189   2.197   1.434   4.816
21983WAT      O66190   6.864   9.528   8.943
21983WAT     H166191   6.907   9.542   9.032
21983WAT     H266192   6.930   9.548   8.870
21984WAT      O66193   8.576   9.650   0.949
21984WAT     H166194   8.627   9.719   0.898
21984WAT     H266195   8.512   9.695   1.011
21985WAT      O66196   6.734   9.075   3.451
21985WAT     H166197   6.639   9.074   3.423
21985WAT     H266198   6.741   9.107   3.546
21986WAT      O66199   9.354   5.556   5.684
21986WAT     H166200   9.352   5.466   5.726
21986WAT     H266201   9.281   5.562   5.616
21987WAT      O66202   8.999   8.015   1.522
21987WAT     H166203   9.064   8.033   1.595
21987WAT     H266204   9.007   8.085   1.451
21988WAT      O66205   4.958   3.514   0.430
21988WAT     H166206   4.924   3.478   0.518
21988WAT     H266207   4.890   3.576   0.391
21989WAT      O66208   8.221   2.910   0.069
21989WAT     H166209   8.261   2.848   0.002
21989WAT     H266210   8.201   2.998   0.026
21990WAT      O66211   5.166   7.943   7.555
21990WAT     H166212   5.179   7.881   7.477
21990WAT     H266213   5.080   7.993   7.543
21991WAT      O66214   2.243   0.255   6.329
21991WAT     H166215   2.212   0.322   6.262
21991WAT     H266216   2.293   0.182   6.282
21992WAT      O66217   3.190   1.809   0.596
21992WAT     H166218   3.226   1.898   0.567
21992WAT     H266219   3.092   1.804   0.575
21993WAT      O66220   2.544   6.218   7.789
21993WAT     H166221   2.491   6.268   7.720
21993WAT     H266222   2.635   6.197   7.752
21994WAT      O66223   8.429   8.561   1.899
21994WAT     H166224   8.362   8.607   1.840
21994WAT     H266225   8.518   8.606   1.890
21995WAT      O66226   7.198   0.333   5.301
21995WAT     H166227   7.178   0.367   5.393
21995WAT     H266228   7.150   0.387   5.233
21996WAT      O66229   0.120   2.867   1.407
21996WAT     H166230   0.169   2.792   1.362
21996WAT     H266231   0.036   2.886   1.357
21997WAT      O66232   3.906   3.514   4.111
21997WAT     H166233   3.993   3.485   4.072
21997WAT     H266234   3.861   3.577   4.048
21998WAT      O66235   3.804   6.234   5.075
21998WAT     H166236   3.795   6.248   5.174
21998WAT     H266237   3.736   6.289   5.027
21999WAT      O66238   2.153   6.557   6.396
21999WAT     H166239   2.183   6.517   6.309
21999WAT     H266240   2.148   6.657   6.386
22000WAT      O66241   2.679   1.273   8.453
22000WAT     H166242   2.690   1.366   8.490
22000WAT     H266243   2.597   1.231   8.492
22001WAT      O66244   3.987   8.034   3.283
22001WAT     H166245   4.010   7.978   3.362
22001WAT     H266246   3.996   8.131   3.307
22002WAT      O66247   5.160   6.098   1.707
22002WAT     H166248   5.109   6.057   1.784
22002WAT     H266249   5.233   6.036   1.679
22003WAT      O66250   0.386   8.053   1.450
22003WAT     H166251   0.438   8.039   1.534
22003WAT     H266252   0.425   8.130   1.399
22004WAT      O66253   5.070   0.145   7.427
22004WAT     H166254   5.121   0.060   7.424
22004WAT     H266255   5.079   0.186   7.517
22005WAT      O66256   1.544   2.488   5.348
22005WAT     H166257   1.536   2.521   5.442
22005WAT     H266258   1.582   2.395   5.349
22006WAT      O66259   6.252   2.496   4.168
22006WAT     H166260   6.231   2.470   4.074
22006WAT     H266261   6.339   2.455   4.195
22007WAT      O66262   0.242   2.001   6.279
22007WAT     H166263   0.211   1.907   6.286
22007WAT     H266264   0.254   2.039   6.370
22008WAT      O66265   3.016   8.713   2.220
22008WAT     H166266   3.109   8.678   2.219
22008WAT     H266267   2.957   8.654   2.165
22009WAT      O66268   3.685   9.234   8.971
22009WAT     H166269   3.637   9.149   8.949
22009WAT     H266270   3.773   9.212   9.014
22010WAT      O66271   6.733   5.323   7.578
22010WAT     H166272   6.812   5.372   7.616
22010WAT     H266273   6.672   5.296   7.652
22011WAT      O66274   9.734   8.148   7.716
22011WAT     H166275   9.752   8.204   7.797
22011WAT     H266276   9.647   8.175   7.674
22012WAT      O66277   0.712   8.137   8.192
22012WAT     H166278   0.618   8.112   8.169
22012WAT     H266279   0.749   8.196   8.120
22013WAT      O66280   4.438   3.498   2.138
22013WAT     H166281   4.393   3.582   2.106
22013WAT     H266282   4.382   3.457   2.210
22014WAT      O66283   0.671   9.394   6.930
22014WAT     H166284   0.744   9.398   6.862
22014WAT     H266285   0.711   9.376   7.020
22015WAT      O66286   1.132   2.112   0.070
22015WAT     H166287   1.211   2.069   0.115
22015WAT     H266288   1.110   2.061  -0.013
22016WAT      O66289   2.478   4.543   6.536
22016WAT     H166290   2.493   4.515   6.441
22016WAT     H266291   2.560   4.587   6.572
22017WAT      O66292   5.628   4.293   7.204
22017WAT     H166293   5.588   4.354   7.136
22017WAT     H266294   5.604   4.198   7.181
22018WAT      O66295   4.512   5.146   2.670
22018WAT     H166296   4.554   5.236   2.656
22018WAT     H266297   4.493   5.106   2.580
22019WAT      O66298   7.640   6.529   9.845
22019WAT     H166299   7.557   6.540   9.791
22019WAT     H266300   7.618   6.489   9.934
22020WAT      O66301   5.157   7.050   5.967
22020WAT     H166302   5.103   6.971   5.997
22020WAT     H266303   5.251   7.041   6.001
22021WAT      O66304   2.330   8.124   1.558
22021WAT     H166305   2.238   8.162   1.570
22021WAT     H266306   2.335   8.077   1.470
22022WAT      O66307   9.454   9.172   5.152
22022WAT     H166308   9.530   9.218   5.198
22022WAT     H266309   9.374   9.172   5.211
22023WAT      O66310   2.898   9.197   1.691
22023WAT     H166311   2.884   9.289   1.728
22023WAT     H266312   2.874   9.129   1.760
22024WAT      O66313   4.014   2.479   4.764
22024WAT     H166314   4.010   2.546   4.690
22024WAT     H266315   4.093   2.499   4.822
22025WAT      O66316   6.452   4.565   1.603
22025WAT     H166317   6.466   4.474   1.642
22025WAT     H266318   6.541   4.609   1.589
22026WAT      O66319   7.457   8.385   8.021
22026WAT     H166320   7.494   8.472   8.053
22026WAT     H266321   7.531   8.329   7.983
22027WAT      O66322   1.721   4.693   0.226
22027WAT     H166323   1.763   4.627   0.289
22027WAT     H266324   1.644   4.737   0.271
22028WAT      O66325   7.154   0.560   6.353
22028WAT     H166326   7.158   0.460   6.354
22028WAT     H266327   7.083   0.591   6.416
22029WAT      O66328   8.168   0.365   4.606
22029WAT     H166329   8.206   0.280   4.643
22029WAT     H266330   8.069   0.366   4.620
22030WAT      O66331   9.682   3.948   1.087
22030WAT     H166332   9.780   3.927   1.081
22030WAT     H266333   9.643   3.903   1.167
22031WAT      O66334   3.558   7.142   7.489
22031WAT     H166335   3.625   7.114   7.420
22031WAT     H266336   3.488   7.200   7.447
22032WAT      O66337   8.372   8.775   5.128
22032WAT     H166338   8.391   8.733   5.039
22032WAT     H266339   8.295   8.729   5.171
22033WAT      O66340   6.937   1.785   3.352
22033WAT     H166341   6.848   1.740   3.344
22033WAT     H266342   6.964   1.820   3.263
22034WAT      O66343   0.432   0.213   6.265
22034WAT     H166344   0.532   0.204   6.267
22034WAT     H266345   0.398   0.218   6.359
22035WAT      O66346   8.846   6.596   3.743
22035WAT     H166347   8.794   6.652   3.808
22035WAT     H266348   8.929   6.562   3.787
22036WAT      O66349   1.867   5.255   8.441
22036WAT     H166350   1.941   5.242   8.374
22036WAT     H266351   1.819   5.341   8.420
22037WAT      O66352   7.596   5.876   1.864
22037WAT     H166353   7.577   5.784   1.899
22037WAT     H266354   7.584   5.943   1.937
22038WAT      O66355   5.438   8.509   5.444
22038WAT     H166356   5.419   8.496   5.347
22038WAT     H266357   5.522   8.563   5.455
22039WAT      O66358   2.412   7.972   4.155
22039WAT     H166359   2.336   8.020   4.113
22039WAT     H266360   2.384   7.937   4.245
22040WAT      O66361   0.213   4.178   5.604
22040WAT     H166362   0.127   4.127   5.603
22040WAT     H266363   0.248   4.187   5.510
22041WAT      O66364   4.323   8.726   2.733
22041WAT     H166365   4.231   8.693   2.756
22041WAT     H266366   4.315   8.803   2.670
22042WAT      O66367   5.225   7.736   3.403
22042WAT     H166368   5.297   7.680   3.362
22042WAT     H266369   5.200   7.699   3.492
22043WAT      O66370   9.798   1.770   3.206
22043WAT     H166371   9.895   1.756   3.186
22043WAT     H266372   9.750   1.683   3.200
22044WAT      O66373   8.917   0.364   3.928
22044WAT     H166374   8.994   0.344   3.989
22044WAT     H266375   8.893   0.461   3.934
22045WAT      O66376   2.307   2.860   8.359
22045WAT     H166377   2.353   2.772   8.349
22045WAT     H266378   2.211   2.844   8.385
22046WAT      O66379   4.711   2.185   1.022
22046WAT     H166380   4.733   2.180   0.925
22046WAT     H266381   4.782   2.139   1.075
22047WAT      O66382   6.700   4.628   5.483
22047WAT     H166383   6.621   4.571   5.506
22047WAT     H266384   6.669   4.722   5.467
22048WAT      O66385   3.856   1.980   7.116
22048WAT     H166386   3.942   1.954   7.073
22048WAT     H266387   3.788   1.999   7.046
22049WAT      O66388   7.354   7.172   9.433
22049WAT     H166389   7.364   7.098   9.499
22049WAT     H266390   7.437   7.229   9.432
22050WAT      O66391   0.340   0.364   6.074
22050WAT     H166392   0.417   0.347   6.013
22050WAT     H266393   0.344   0.300   6.152
22051WAT      O66394   9.181   6.644   0.341
22051WAT     H166395   9.212   6.693   0.422
22051WAT     H266396   9.167   6.547   0.365
22052WAT      O66397   6.943   4.221   0.413
22052WAT     H166398   6.952   4.124   0.390
22052WAT     H266399   6.989   4.239   0.500
22053WAT      O66400   1.153   3.008   0.557
22053WAT     H166401   1.113   3.098   0.573
22053WAT     H266402   1.090   2.937   0.588
22054WAT      O66403   7.545   1.374   8.259
22054WAT     H166404   7.539   1.348   8.163
22054WAT     H266405   7.618   1.441   8.271
22055WAT      O66406   6.581   1.593   8.397
22055WAT     H166407   6.546   1.621   8.487
22055WAT     H266408   6.649   1.521   8.409
22056WAT      O66409   8.966   4.935   1.476
22056WAT     H166410   8.903   4.892   1.412
22056WAT     H266411   9.060   4.916   1.449
22057WAT      O66412   3.802   9.840   0.262
22057WAT     H166413   3.715   9.828   0.310
22057WAT     H266414   3.794   9.807   0.168
22058WAT      O66415   1.588   2.634   1.556
22058WAT     H166416   1.570   2.664   1.650
22058WAT     H266417   1.533   2.688   1.493
22059WAT      O66418   7.266   2.168   8.063
22059WAT     H166419   7.320   2.217   7.995
22059WAT     H266420   7.190   2.225   8.093
22060WAT      O66421   4.334   8.508   0.779
22060WAT     H166422   4.391   8.584   0.749
22060WAT     H266423   4.266   8.487   0.708
22061WAT      O66424   8.861   1.291   4.765
22061WAT     H166425   8.960   1.294   4.749
22061WAT     H266426   8.815   1.251   4.686
22062WAT      O66427   5.283   2.280   4.660
22062WAT     H166428   5.322   2.189   4.666
22062WAT     H266429   5.258   2.299   4.565
22063WAT      O66430   9.865   2.755   6.523
22063WAT     H166431   9.930   2.686   6.555
22063WAT     H266432   9.902   2.802   6.443
22064WAT      O66433   6.770   7.336   6.030
22064WAT     H166434   6.837   7.374   6.093
22064WAT     H266435   6.679   7.341   6.070
22065WAT      O66436   8.662   2.768   4.879
22065WAT     H166437   8.593   2.759   4.807
22065WAT     H266438   8.643   2.850   4.933
22066WAT      O66439   5.668   6.508   8.810
22066WAT     H166440   5.718   6.593   8.824
22066WAT     H266441   5.637   6.473   8.898
22067WAT      O66442   9.709   6.297   6.630
22067WAT     H166443   9.631   6.255   6.584
22067WAT     H266444   9.700   6.287   6.729
22068WAT      O66445   7.484   4.269   3.531
22068WAT     H166446   7.463   4.365   3.551
22068WAT     H266447   7.416   4.211   3.574
22069WAT      O66448   9.003   8.841   5.757
22069WAT     H166449   9.080   8.780   5.737
22069WAT     H266450   8.981   8.895   5.676
22070WAT      O66451   3.112   4.517   1.041
22070WAT     H166452   3.209   4.519   1.018
22070WAT     H266453   3.101   4.505   1.140
22071WAT      O66454   6.700   0.473   7.530
22071WAT     H166455   6.673   0.562   7.493
22071WAT     H266456   6.629   0.405   7.508
22072WAT      O66457   4.474   7.881   4.901
22072WAT     H166458   4.480   7.883   4.801
22072WAT     H266459   4.394   7.829   4.929
22073WAT      O66460   6.142   6.893   1.404
22073WAT     H166461   6.048   6.861   1.389
22073WAT     H266462   6.202   6.854   1.335
22074WAT      O66463   5.734   1.120   6.711
22074WAT     H166464   5.736   1.196   6.775
22074WAT     H266465   5.642   1.109   6.674
22075WAT      O66466   8.497   7.076   5.193
22075WAT     H166467   8.576   7.053   5.136
22075WAT     H266468   8.502   7.173   5.217
22076WAT      O66469   5.664   5.837   3.738
22076WAT     H166470   5.737   5.775   3.712
22076WAT     H266471   5.636   5.819   3.833
22077WAT      O66472   2.289   5.399   2.663
22077WAT     H166473   2.197   5.393   2.625
22077WAT     H266474   2.324   5.492   2.650
22078WAT      O66475   4.006   1.992   7.565
22078WAT     H166476   3.966   1.952   7.482
22078WAT     H266477   4.103   1.966   7.570
22079WAT      O66478   0.824   0.624   5.545
22079WAT     H166479   0.863   0.716   5.549
22079WAT     H266480   0.738   0.626   5.494
22080WAT      O66481   6.953   3.008   3.734
22080WAT     H166482   6.985   3.098   3.763
22080WAT     H266483   6.931   3.010   3.636
22081WAT      O66484   0.022   2.192   6.401
22081WAT     H166485   0.111   2.199   6.446
22081WAT     H266486  -0.047   2.237   6.458
22082WAT      O66487   1.740   8.808   4.468
22082WAT     H166488   1.757   8.710   4.459
22082WAT     H266489   1.660   8.823   4.526
22083WAT      O66490   5.261   0.384   7.875
22083WAT     H166491   5.337   0.344   7.824
22083WAT     H266492   5.273   0.366   7.972
22084WAT      O66493   9.364   6.061   4.747
22084WAT     H166494   9.432   5.993   4.719
22084WAT     H266495   9.293   6.017   4.802
22085WAT      O66496   3.548   6.048   7.065
22085WAT     H166497   3.506   6.112   7.001
22085WAT     H266498   3.540   5.955   7.028
22086WAT      O66499   9.636   4.950   6.840
22086WAT     H166500   9.630   4.851   6.831
22086WAT     H266501   9.715   4.983   6.789
22087WAT      O66502   5.819   2.471   7.921
22087WAT     H166503   5.908   2.426   7.924
22087WAT     H266504   5.831   2.570   7.925
22088WAT      O66505   0.662   6.034   0.082
22088WAT     H166506   0.632   6.129   0.087
22088WAT     H266507   0.589   5.974   0.116
22089WAT      O66508   7.814   6.482   9.624
22089WAT     H166509   7.822   6.579   9.598
22089WAT     H266510   7.762   6.474   9.709
22090WAT      O66511   1.072   1.777   3.734
22090WAT     H166512   1.169   1.753   3.724
22090WAT     H266513   1.025   1.765   3.647
22091WAT      O66514   1.151   3.494   0.508
22091WAT     H166515   1.113   3.569   0.562
22091WAT     H266516   1.146   3.518   0.411
22092WAT      O66517   7.415   3.637   2.642
22092WAT     H166518   7.440   3.726   2.601
22092WAT     H266519   7.339   3.650   2.705
22093WAT      O66520   0.790   6.610   2.148
22093WAT     H166521   0.862   6.676   2.127
22093WAT     H266522   0.831   6.522   2.171
22094WAT      O66523   4.540   6.085   1.263
22094WAT     H166524   4.465   6.025   1.291
22094WAT     H266525   4.518   6.127   1.175
22095WAT      O66526   4.321   5.869   4.747
22095WAT     H166527   4.391   5.941   4.744
22095WAT     H266528   4.320   5.828   4.838
22096WAT      O66529   4.774   8.488   9.718
22096WAT     H166530   4.690   8.509   9.668
22096WAT     H266531   4.847   8.548   9.687
22097WAT      O66532   4.375   7.663   0.659
22097WAT     H166533   4.278   7.642   0.672
22097WAT     H266534   4.406   7.728   0.729
22098WAT      O66535   2.780   2.102   3.606
22098WAT     H166536   2.825   2.139   3.524
22098WAT     H266537   2.769   2.174   3.674
22099WAT      O66538   6.909   2.327   8.374
22099WAT     H166539   6.840   2.376   8.321
22099WAT     H266540   6.871   2.239   8.404
22100WAT      O66541   8.105   8.724   5.291
22100WAT     H166542   8.028   8.670   5.324
22100WAT     H266543   8.189   8.669   5.294
22101WAT      O66544   0.477   4.182   0.894
22101WAT     H166545   0.541   4.131   0.836
22101WAT     H266546   0.384   4.169   0.861
22102WAT      O66547   6.083   0.477   4.383
22102WAT     H166548   6.182   0.478   4.395
22102WAT     H266549   6.043   0.555   4.431
22103WAT      O66550   5.918   5.977   9.485
22103WAT     H166551   5.864   5.935   9.558
22103WAT     H266552   6.009   5.936   9.484
22104WAT      O66553   8.521   3.903   4.253
22104WAT     H166554   8.606   3.851   4.260
22104WAT     H266555   8.530   3.988   4.305
22105WAT      O66556   8.187   5.519   6.330
22105WAT     H166557   8.286   5.504   6.321
22105WAT     H266558   8.171   5.596   6.391
22106WAT      O66559   7.626   7.123   1.543
22106WAT     H166560   7.717   7.118   1.585
22106WAT     H266561   7.635   7.150   1.447
22107WAT      O66562   3.527   2.316   3.977
22107WAT     H166563   3.509   2.218   3.980
22107WAT     H266564   3.518   2.354   4.070
22108WAT      O66565   6.249   7.358   8.532
22108WAT     H166566   6.263   7.259   8.539
22108WAT     H266567   6.157   7.381   8.564
22109WAT      O66568   1.460   2.841   8.597
22109WAT     H166569   1.383   2.874   8.543
22109WAT     H266570   1.505   2.918   8.643
22110WAT      O66571   8.122   2.194   5.192
22110WAT     H166572   8.027   2.196   5.222
22110WAT     H266573   8.175   2.261   5.244
22111WAT      O66574   9.327   7.485   6.606
22111WAT     H166575   9.353   7.393   6.636
22111WAT     H266576   9.260   7.477   6.532
22112WAT      O66577   3.685   3.040   9.581
22112WAT     H166578   3.631   3.114   9.619
22112WAT     H266579   3.687   2.963   9.645
22113WAT      O66580   4.615   2.235   1.545
22113WAT     H166581   4.544   2.182   1.499
22113WAT     H266582   4.574   2.318   1.584
22114WAT      O66583   4.631   0.470   3.352
22114WAT     H166584   4.717   0.507   3.316
22114WAT     H266585   4.640   0.371   3.364
22115WAT      O66586   2.517   1.653   1.220
22115WAT     H166587   2.533   1.608   1.132
22115WAT     H266588   2.483   1.746   1.203
22116WAT      O66589   7.294   1.754   7.876
22116WAT     H166590   7.370   1.803   7.834
22116WAT     H266591   7.299   1.657   7.849
22117WAT      O66592   6.353   7.975   7.093
22117WAT     H166593   6.342   8.017   7.183
22117WAT     H266594   6.352   8.046   7.023
22118WAT      O66595   3.075   9.350   7.971
22118WAT     H166596   3.021   9.302   7.902
22118WAT     H266597   3.108   9.284   8.039
22119WAT      O66598   3.123   8.069   1.086
22119WAT     H166599   3.150   8.070   1.183
22119WAT     H266600   3.065   7.989   1.069
22120WAT      O66601   7.221   0.906   4.854
22120WAT     H166602   7.292   0.837   4.867
22120WAT     H266603   7.205   0.954   4.941
22121WAT      O66604   0.844   8.212   0.993
22121WAT     H166605   0.857   8.305   0.956
22121WAT     H266606   0.934   8.169   1.003
22122WAT      O66607   0.852   0.190   7.982
22122WAT     H166608   0.922   0.124   7.959
22122WAT     H266609   0.776   0.144   8.028
22123WAT      O66610   1.478   2.226   7.401
22123WAT     H166611   1.499   2.228   7.499
22123WAT     H266612   1.553   2.267   7.350
22124WAT      O66613   4.588   5.083   1.324
22124WAT     H166614   4.567   5.178   1.347
22124WAT     H266615   4.528   5.022   1.375
22125WAT      O66616   9.420   2.710   0.135
22125WAT     H166617   9.410   2.794   0.188
22125WAT     H266618   9.512   2.706   0.096
22126WAT      O66619   6.213   1.654   6.070
22126WAT     H166620   6.247   1.645   6.163
22126WAT     H266621   6.213   1.751   6.044
22127WAT      O66622   9.894   0.304   2.668
22127WAT     H166623   9.845   0.325   2.752
22127WAT     H266624   9.829   0.276   2.597
22128WAT      O66625   6.747   6.034   7.105
22128WAT     H166626   6.814   6.094   7.061
22128WAT     H266627   6.791   5.948   7.131
22129WAT      O66628   1.483   1.132   7.608
22129WAT     H166629   1.544   1.181   7.671
22129WAT     H266630   1.391   1.129   7.646
22130WAT      O66631   6.846   3.689   9.214
22130WAT     H166632   6.896   3.634   9.281
22130WAT     H266633   6.906   3.712   9.137
22131WAT      O66634   7.777   4.683   0.359
22131WAT     H166635   7.863   4.729   0.338
22131WAT     H266636   7.735   4.726   0.439
22132WAT      O66637   4.993   1.968   8.762
22132WAT     H166638   5.090   1.948   8.772
22132WAT     H266639   4.939   1.888   8.789
22133WAT      O66640   8.282   1.189   8.607
22133WAT     H166641   8.337   1.229   8.680
22133WAT     H266642   8.312   1.225   8.519
22134WAT      O66643   7.341   2.408   4.081
22134WAT     H166644   7.245   2.383   4.097
22134WAT     H266645   7.371   2.472   4.152
22135WAT      O66646   6.635   3.522   4.719
22135WAT     H166647   6.571   3.570   4.780
22135WAT     H266648   6.709   3.584   4.694
22136WAT      O66649   1.135   6.343   2.710
22136WAT     H166650   1.133   6.305   2.803
22136WAT     H266651   1.227   6.379   2.691
22137WAT      O66652   8.962   9.590   9.825
22137WAT     H166653   8.919   9.519   9.769
22137WAT     H266654   9.061   9.573   9.831
22138WAT      O66655   8.223   6.745   1.322
22138WAT     H166656   8.138   6.696   1.302
22138WAT     H266657   8.300   6.681   1.319
22139WAT      O66658   9.468   5.504   2.682
22139WAT     H166659   9.422   5.593   2.679
22139WAT     H266660   9.518   5.496   2.769
22140WAT      O66661   8.430   4.932   2.145
22140WAT     H166662   8.448   4.864   2.215
22140WAT     H266663   8.514   4.983   2.126
22141WAT      O66664   6.346   9.646   6.276
22141WAT     H166665   6.261   9.699   6.286
22141WAT     H266666   6.344   9.595   6.190
22142WAT      O66667   6.149   8.184   5.561
22142WAT     H166668   6.237   8.226   5.540
22142WAT     H266669   6.162   8.086   5.578
22143WAT      O66670   4.013   1.153   6.186
22143WAT     H166671   3.975   1.225   6.128
22143WAT     H266672   4.033   1.072   6.130
22144WAT      O66673   8.372   7.350   3.561
22144WAT     H166674   8.279   7.382   3.579
22144WAT     H266675   8.425   7.353   3.646
22145WAT      O66676   3.669   6.979   3.424
22145WAT     H166677   3.697   6.925   3.344
22145WAT     H266678   3.740   7.045   3.445
22146WAT      O66679   3.815   5.672   1.306
22146WAT     H166680   3.784   5.643   1.215
22146WAT     H266681   3.874   5.752   1.297
22147WAT      O66682   0.778   2.351   0.463
22147WAT     H166683   0.794   2.293   0.382
22147WAT     H266684   0.721   2.429   0.437
22148WAT      O66685   9.379   1.017   3.728
22148WAT     H166686   9.478   1.022   3.716
22148WAT     H266687   9.351   1.077   3.803
22149WAT      O66688   1.088   4.980   3.782
22149WAT     H166689   1.165   4.915   3.779
22149WAT     H266690   1.004   4.930   3.804
22150WAT      O66691   6.274   1.015   1.152
22150WAT     H166692   6.316   0.950   1.089
22150WAT     H266693   6.186   1.045   1.115
22151WAT      O66694   6.230   2.936   0.140
22151WAT     H166695   6.240   3.028   0.104
22151WAT     H266696   6.281   2.872   0.083
22152WAT      O66697   7.319   6.918   6.934
22152WAT     H166698   7.270   6.837   6.903
22152WAT     H266699   7.374   6.895   7.014
22153WAT      O66700   3.300   3.946   1.461
22153WAT     H166701   3.393   3.981   1.468
22153WAT     H266702   3.247   3.978   1.540
22154WAT      O66703   6.506   8.712   4.197
22154WAT     H166704   6.528   8.809   4.189
22154WAT     H266705   6.407   8.700   4.201
22155WAT      O66706   6.833   7.507   4.878
22155WAT     H166707   6.744   7.538   4.909
22155WAT     H266708   6.823   7.421   4.828
22156WAT      O66709   0.128   0.908   6.970
22156WAT     H166710   0.072   0.830   6.999
22156WAT     H266711   0.224   0.881   6.967
22157WAT      O66712   9.374   6.071   1.802
22157WAT     H166713   9.472   6.086   1.811
22157WAT     H266714   9.355   6.019   1.719
22158WAT      O66715   9.752   4.452   4.692
22158WAT     H166716   9.664   4.445   4.739
22158WAT     H266717   9.794   4.540   4.714
22159WAT      O66718   9.810   5.792   8.527
22159WAT     H166719   9.761   5.850   8.592
22159WAT     H266720   9.752   5.714   8.501
22160WAT      O66721   7.773   8.287   6.971
22160WAT     H166722   7.823   8.202   6.986
22160WAT     H266723   7.757   8.300   6.873
22161WAT      O66724   7.875   7.360   2.686
22161WAT     H166725   7.823   7.275   2.698
22161WAT     H266726   7.861   7.395   2.593
22162WAT      O66727   6.005   1.417   0.785
22162WAT     H166728   6.060   1.413   0.702
22162WAT     H266729   5.988   1.512   0.809
22163WAT      O66730   0.402   3.799   4.743
22163WAT     H166731   0.311   3.772   4.714
22163WAT     H266732   0.431   3.741   4.820
22164WAT      O66733   4.712   1.210   9.819
22164WAT     H166734   4.685   1.289   9.873
22164WAT     H266735   4.638   1.185   9.756
22165WAT      O66736   1.198   4.702   4.735
22165WAT     H166737   1.261   4.638   4.690
22165WAT     H266738   1.156   4.657   4.814
22166WAT      O66739   0.814   1.023   1.270
22166WAT     H166740   0.840   0.956   1.201
22166WAT     H266741   0.721   1.002   1.302
22167WAT      O66742   6.804   7.629   2.063
22167WAT     H166743   6.749   7.546   2.052
22167WAT     H266744   6.745   7.706   2.086
22168WAT      O66745   7.236   7.157   9.180
22168WAT     H166746   7.141   7.190   9.172
22168WAT     H266747   7.269   7.174   9.272
22169WAT      O66748   7.360   9.237   0.858
22169WAT     H166749   7.356   9.195   0.768
22169WAT     H266750   7.377   9.335   0.848
22170WAT      O66751   5.624   2.979   8.114
22170WAT     H166752   5.574   3.036   8.180
22170WAT     H266753   5.578   2.892   8.103
22171WAT      O66754   4.230   2.635   1.047
22171WAT     H166755   4.295   2.710   1.031
22171WAT     H266756   4.260   2.582   1.126
22172WAT      O66757   2.059   2.041   7.288
22172WAT     H166758   2.122   1.980   7.336
22172WAT     H266759   2.101   2.071   7.203
22173WAT      O66760   8.673   4.797   4.276
22173WAT     H166761   8.731   4.869   4.239
22173WAT     H266762   8.579   4.829   4.281
22174WAT      O66763   3.489   7.951   8.554
22174WAT     H166764   3.449   7.979   8.641
22174WAT     H266765   3.589   7.955   8.561
22175WAT      O66766   8.244   5.302   3.150
22175WAT     H166767   8.195   5.216   3.142
22175WAT     H266768   8.180   5.374   3.179
22176WAT      O66769   0.920   4.045   2.743
22176WAT     H166770   0.991   4.094   2.693
22176WAT     H266771   0.922   3.948   2.718
22177WAT      O66772   5.462   2.075   2.197
22177WAT     H166773   5.518   1.997   2.225
22177WAT     H266774   5.479   2.152   2.257
22178WAT      O66775   5.994   8.754   4.220
22178WAT     H166776   5.998   8.778   4.317
22178WAT     H266777   5.924   8.809   4.175
22179WAT      O66778   4.392   9.166   6.044
22179WAT     H166779   4.302   9.202   6.067
22179WAT     H266780   4.433   9.223   5.972
22180WAT      O66781   4.658   6.385   8.967
22180WAT     H166782   4.639   6.471   8.920
22180WAT     H266783   4.742   6.395   9.021
22181WAT      O66784   3.168   4.492   8.785
22181WAT     H166785   3.210   4.583   8.789
22181WAT     H266786   3.237   4.425   8.759
22182WAT      O66787   2.752   4.247   2.896
22182WAT     H166788   2.676   4.308   2.873
22182WAT     H266789   2.726   4.188   2.973
22183WAT      O66790   6.380   4.834   1.582
22183WAT     H166791   6.468   4.865   1.547
22183WAT     H266792   6.381   4.734   1.593
22184WAT      O66793   0.307   3.126   9.191
22184WAT     H166794   0.226   3.165   9.234
22184WAT     H266795   0.381   3.121   9.259
22185WAT      O66796   9.206   5.534   2.079
22185WAT     H166797   9.207   5.633   2.062
22185WAT     H266798   9.294   5.506   2.118
22186WAT      O66799   4.462   3.167   3.828
22186WAT     H166800   4.478   3.227   3.907
22186WAT     H266801   4.549   3.151   3.782
22187WAT      O66802   3.470   3.768   4.646
22187WAT     H166803   3.456   3.863   4.619
22187WAT     H266804   3.566   3.743   4.634
22188WAT      O66805   3.519   0.165   5.131
22188WAT     H166806   3.610   0.158   5.172
22188WAT     H266807   3.518   0.119   5.043
22189WAT      O66808   3.059   0.606   4.377
22189WAT     H166809   3.033   0.702   4.375
22189WAT     H266810   3.129   0.592   4.447
22190WAT      O66811   9.725   0.218   2.471
22190WAT     H166812   9.742   0.147   2.403
22190WAT     H266813   9.635   0.259   2.455
22191WAT      O66814   5.599   6.865   7.450
22191WAT     H166815   5.570   6.777   7.411
22191WAT     H266816   5.615   6.855   7.548
22192WAT      O66817   0.540   6.191   9.037
22192WAT     H166818   0.636   6.187   9.009
22192WAT     H266819   0.482   6.182   8.956
22193WAT      O66820   9.401   5.806   6.441
22193WAT     H166821   9.310   5.844   6.422
22193WAT     H266822   9.395   5.745   6.520
22194WAT      O66823   0.674   0.967   2.290
22194WAT     H166824   0.709   1.049   2.336
22194WAT     H266825   0.734   0.944   2.213
22195WAT      O66826   3.960   1.173   7.876
22195WAT     H166827   3.913   1.119   7.806
22195WAT     H266828   3.909   1.166   7.962
22196WAT      O66829   0.242   9.605   8.194
22196WAT     H166830   0.314   9.560   8.247
22196WAT     H266831   0.155   9.557   8.207
22197WAT      O66832   2.845   7.804   4.879
22197WAT     H166833   2.856   7.900   4.903
22197WAT     H266834   2.890   7.747   4.948
22198WAT      O66835   7.625   3.521   3.194
22198WAT     H166836   7.628   3.567   3.105
22198WAT     H266837   7.530   3.498   3.216
22199WAT      O66838   7.226   3.151   4.183
22199WAT     H166839   7.152   3.087   4.164
22199WAT     H266840   7.210   3.196   4.271
22200WAT      O66841   9.639   5.309   6.236
22200WAT     H166842   9.561   5.291   6.296
22200WAT     H266843   9.611   5.300   6.141
22201WAT      O66844   6.666   3.065   2.854
22201WAT     H166845   6.695   3.063   2.950
22201WAT     H266846   6.599   2.993   2.837
22202WAT      O66847   9.149   7.680   2.859
22202WAT     H166848   9.109   7.697   2.769
22202WAT     H266849   9.096   7.609   2.906
22203WAT      O66850   6.097   3.555   4.985
22203WAT     H166851   6.083   3.511   4.896
22203WAT     H266852   6.166   3.504   5.037
22204WAT      O66853   3.673   2.087   0.647
22204WAT     H166854   3.672   2.025   0.568
22204WAT     H266855   3.659   2.034   0.731
22205WAT      O66856   4.770   2.992   0.276
22205WAT     H166857   4.828   3.046   0.337
22205WAT     H266858   4.675   2.995   0.308
22206WAT      O66859   0.728   1.451   8.349
22206WAT     H166860   0.729   1.533   8.405
22206WAT     H266861   0.777   1.377   8.396
22207WAT      O66862   6.447   8.485   8.581
22207WAT     H166863   6.525   8.481   8.643
22207WAT     H266864   6.369   8.525   8.629
22208WAT      O66865   6.004   9.469   6.242
22208WAT     H166866   6.003   9.545   6.307
22208WAT     H266867   5.941   9.398   6.273
22209WAT      O66868   0.251   3.477   8.989
22209WAT     H166869   0.164   3.438   8.959
22209WAT     H266870   0.325   3.441   8.933
22210WAT      O66871   7.984   3.006   9.658
22210WAT     H166872   7.952   2.989   9.565
22210WAT     H266873   7.916   2.973   9.723
22211WAT      O66874   9.752   4.714   7.078
22211WAT     H166875   9.672   4.741   7.131
22211WAT     H266876   9.738   4.621   7.041
22212WAT      O66877   9.761   3.083   9.495
22212WAT     H166878   9.785   3.162   9.553
22212WAT     H266879   9.843   3.030   9.475
22213WAT      O66880   0.510   7.297   8.473
22213WAT     H166881   0.475   7.297   8.379
22213WAT     H266882   0.546   7.387   8.494
22214WAT      O66883   0.322   9.449   2.136
22214WAT     H166884   0.291   9.495   2.219
22214WAT     H266885   0.246   9.437   2.074
22215WAT      O66886   4.310   9.761   7.040
22215WAT     H166887   4.292   9.676   7.090
22215WAT     H266888   4.329   9.740   6.944
22216WAT      O66889   3.704   6.659   7.817
22216WAT     H166890   3.748   6.747   7.833
22216WAT     H266891   3.760   6.586   7.857
22217WAT      O66892   4.685   5.953   5.591
22217WAT     H166893   4.695   5.888   5.516
22217WAT     H266894   4.612   5.923   5.652
22218WAT      O66895   7.938   9.059   9.184
22218WAT     H166896   8.022   9.114   9.185
22218WAT     H266897   7.860   9.115   9.211
22219WAT      O66898   2.656   7.190   5.040
22219WAT     H166899   2.696   7.280   5.056
22219WAT     H266900   2.565   7.200   5.000
22220WAT      O66901   5.714   3.356   8.269
22220WAT     H166902   5.621   3.351   8.232
22220WAT     H266903   5.709   3.354   8.369
22221WAT      O66904   6.806   9.469   4.349
22221WAT     H166905   6.833   9.419   4.431
22221WAT     H266906   6.760   9.408   4.286
22222WAT      O66907   6.549   9.820   5.938
22222WAT     H166908   6.576   9.731   5.973
22222WAT     H266909   6.580   9.891   6.001
22223WAT      O66910   5.642   4.452   0.672
22223WAT     H166911   5.722   4.500   0.636
22223WAT     H266912   5.640   4.359   0.634
22224WAT      O66913   5.003   0.939   4.679
22224WAT     H166914   4.940   0.966   4.606
22224WAT     H266915   4.980   0.847   4.710
22225WAT      O66916   4.607   2.496   6.736
22225WAT     H166917   4.678   2.561   6.759
22225WAT     H266918   4.630   2.451   6.649
22226WAT      O66919   0.217   3.523   7.614
22226WAT     H166920   0.243   3.619   7.602
22226WAT     H266921   0.236   3.494   7.707
22227WAT      O66922   7.651   7.302   3.025
22227WAT     H166923   7.619   7.283   3.118
22227WAT     H266924   7.684   7.396   3.020
22228WAT      O66925   2.951   7.834   3.245
22228WAT     H166926   3.050   7.826   3.231
22228WAT     H266927   2.934   7.889   3.327
22229WAT      O66928   2.809   9.316   4.553
22229WAT     H166929   2.780   9.292   4.460
22229WAT     H266930   2.801   9.235   4.612
22230WAT      O66931   9.263   0.609   7.812
22230WAT     H166932   9.178   0.631   7.764
22230WAT     H266933   9.254   0.518   7.854
22231WAT      O66934   5.211   8.254   2.840
22231WAT     H166935   5.177   8.252   2.934
22231WAT     H266936   5.297   8.306   2.837
22232WAT      O66937   2.721   2.031   7.635
22232WAT     H166938   2.636   2.071   7.670
22232WAT     H266939   2.786   2.019   7.709
22233WAT      O66940   3.582   7.729   4.438
22233WAT     H166941   3.538   7.664   4.375
22233WAT     H266942   3.528   7.734   4.522
22234WAT      O66943   7.443   2.022   6.243
22234WAT     H166944   7.385   2.011   6.323
22234WAT     H266945   7.386   2.030   6.161
22235WAT      O66946   2.951   0.507   5.054
22235WAT     H166947   3.014   0.471   4.985
22235WAT     H266948   2.986   0.488   5.145
22236WAT      O66949   6.136   2.554   6.149
22236WAT     H166950   6.055   2.509   6.113
22236WAT     H266951   6.218   2.506   6.116
22237WAT      O66952   8.188   4.183   2.487
22237WAT     H166953   8.219   4.269   2.446
22237WAT     H266954   8.245   4.161   2.566
22238WAT      O66955   1.953   5.003   5.458
22238WAT     H166956   2.051   5.011   5.477
22238WAT     H266957   1.938   5.004   5.359
22239WAT      O66958   2.808   4.773   4.624
22239WAT     H166959   2.824   4.865   4.591
22239WAT     H266960   2.884   4.713   4.595
22240WAT      O66961   2.417   0.173   6.857
22240WAT     H166962   2.423   0.083   6.899
22240WAT     H266963   2.338   0.177   6.797
22241WAT      O66964   9.616   4.846   0.490
22241WAT     H166965   9.709   4.823   0.517
22241WAT     H266966   9.554   4.828   0.566
22242WAT      O66967   8.269   1.408   9.480
22242WAT     H166968   8.306   1.489   9.526
22242WAT     H266969   8.180   1.386   9.520
22243WAT      O66970   1.383   7.868   1.690
22243WAT     H166971   1.349   7.908   1.605
22243WAT     H266972   1.404   7.771   1.676
22244WAT      O66973   0.099   4.939   3.983
22244WAT     H166974   0.011   4.963   3.942
22244WAT     H266975   0.172   4.987   3.935
22245WAT      O66976   0.588   8.002   9.567
22245WAT     H166977   0.586   7.939   9.645
22245WAT     H266978   0.575   8.095   9.600
22246WAT      O66979   0.459   2.578   9.345
22246WAT     H166980   0.370   2.537   9.326
22246WAT     H266981   0.459   2.618   9.437
22247WAT      O66982   1.340   0.457   0.972
22247WAT     H166983   1.382   0.512   1.044
22247WAT     H266984   1.381   0.365   0.973
22248WAT      O66985   3.536   1.860   4.192
22248WAT     H166986   3.572   1.843   4.284
22248WAT     H266987   3.596   1.817   4.125
22249WAT      O66988   1.661   6.245   3.056
22249WAT     H166989   1.710   6.326   3.088
22249WAT     H266990   1.612   6.203   3.133
22250WAT      O66991   0.861   4.928   4.097
22250WAT     H166992   0.857   5.027   4.089
22250WAT     H266993   0.825   4.886   4.014
22251WAT      O66994   1.834   3.720   2.999
22251WAT     H166995   1.752   3.768   3.030
22251WAT     H266996   1.898   3.711   3.076
22252WAT      O66997   9.155   0.529   5.724
22252WAT     H166998   9.073   0.584   5.742
22252WAT     H266999   9.137   0.468   5.647
22253WAT      O67000   3.060   5.995   5.961
22253WAT     H167001   3.139   6.016   5.904
22253WAT     H267002   2.978   5.987   5.904
22254WAT      O67003   5.074   7.270   0.255
22254WAT     H167004   5.079   7.204   0.330
22254WAT     H267005   5.154   7.329   0.256
22255WAT      O67006   8.153   3.630   3.203
22255WAT     H167007   8.251   3.621   3.189
22255WAT     H267008   8.104   3.587   3.127
22256WAT      O67009   2.665   0.778   0.535
22256WAT     H167010   2.696   0.811   0.624
22256WAT     H267011   2.640   0.855   0.477
22257WAT      O67012   9.556   2.769   4.051
22257WAT     H167013   9.481   2.792   3.990
22257WAT     H267014   9.540   2.678   4.091
22258WAT      O67015   3.110   5.598   3.340
22258WAT     H167016   3.044   5.548   3.397
22258WAT     H267017   3.100   5.570   3.245
22259WAT      O67018   6.607   3.786   8.794
22259WAT     H167019   6.663   3.707   8.768
22259WAT     H267020   6.588   3.782   8.892
22260WAT      O67021   9.657   2.661   1.179
22260WAT     H167022   9.659   2.741   1.239
22260WAT     H267023   9.721   2.675   1.103
22261WAT      O67024   4.854   6.134   4.992
22261WAT     H167025   4.787   6.146   5.065
22261WAT     H267026   4.912   6.055   5.011
22262WAT      O67027   5.583   5.995   2.286
22262WAT     H167028   5.616   5.955   2.201
22262WAT     H267029   5.628   5.951   2.364
22263WAT      O67030   5.589   0.277   5.089
22263WAT     H167031   5.497   0.295   5.054
22263WAT     H267032   5.637   0.363   5.103
22264WAT      O67033   5.278   5.083   0.548
22264WAT     H167034   5.192   5.081   0.598
22264WAT     H267035   5.347   5.032   0.599
22265WAT      O67036   7.693   3.846   0.765
22265WAT     H167037   7.653   3.848   0.857
22265WAT     H267038   7.723   3.939   0.740
22266WAT      O67039   5.028   7.960   4.774
22266WAT     H167040   5.122   7.934   4.755
22266WAT     H267041   5.008   7.943   4.870
22267WAT      O67042   9.584   6.644   0.010
22267WAT     H167043   9.548   6.647   0.103
22267WAT     H267044   9.646   6.722  -0.004
22268WAT      O67045   5.015   0.023   2.412
22268WAT     H167046   4.945  -0.046   2.428
22268WAT     H267047   5.084  -0.013   2.350
22269WAT      O67048   0.519   8.973   4.885
22269WAT     H167049   0.519   8.970   4.985
22269WAT     H267050   0.429   8.944   4.851
22270WAT      O67051   8.784   2.174   3.803
22270WAT     H167052   8.791   2.272   3.819
22270WAT     H267053   8.854   2.146   3.736
22271WAT      O67054   7.410   0.239   6.829
22271WAT     H167055   7.492   0.189   6.799
22271WAT     H267056   7.376   0.198   6.914
22272WAT      O67057   8.668   5.378   8.406
22272WAT     H167058   8.729   5.305   8.434
22272WAT     H267059   8.709   5.429   8.330
22273WAT      O67060   4.334   2.689   8.910
22273WAT     H167061   4.432   2.674   8.895
22273WAT     H267062   4.303   2.764   8.852
22274WAT      O67063   0.367   8.899   3.906
22274WAT     H167064   0.336   8.804   3.907
22274WAT     H267065   0.394   8.925   3.813
22275WAT      O67066   2.201   1.717   8.283
22275WAT     H167067   2.153   1.783   8.341
22275WAT     H267068   2.289   1.695   8.325
22276WAT      O67069   4.454   2.497   7.239
22276WAT     H167070   4.467   2.592   7.211
22276WAT     H267071   4.437   2.494   7.338
22277WAT      O67072   5.329   7.187   5.129
22277WAT     H167073   5.388   7.267   5.142
22277WAT     H267074   5.243   7.200   5.179
22278WAT      O67075   2.104   8.939   6.858
22278WAT     H167076   2.052   9.021   6.882
22278WAT     H267077   2.192   8.966   6.820
22279WAT      O67078   7.758   3.831   4.708
22279WAT     H167079   7.813   3.910   4.734
22279WAT     H267080   7.723   3.844   4.615
22280WAT      O67081   6.846   8.125   0.240
22280WAT     H167082   6.782   8.096   0.311
22280WAT     H267083   6.940   8.121   0.276
22281WAT      O67084   4.351   7.135   2.367
22281WAT     H167085   4.418   7.207   2.382
22281WAT     H267086   4.297   7.155   2.285
22282WAT      O67087   0.303   5.854   5.298
22282WAT     H167088   0.263   5.941   5.327
22282WAT     H267089   0.285   5.785   5.369
22283WAT      O67090   0.206   0.092   4.847
22283WAT     H167091   0.172   0.159   4.914
22283WAT     H267092   0.153   0.008   4.854
22284WAT      O67093   2.096   1.351   9.054
22284WAT     H167094   2.171   1.315   9.109
22284WAT     H267095   2.048   1.422   9.104
22285WAT      O67096   2.144   0.759   5.394
22285WAT     H167097   2.190   0.745   5.482
22285WAT     H267098   2.100   0.674   5.366
22286WAT      O67099   7.544   3.855   4.905
22286WAT     H167100   7.589   3.836   4.992
22286WAT     H267101   7.614   3.860   4.833
22287WAT      O67102   7.283   9.186   9.310
22287WAT     H167103   7.245   9.144   9.228
22287WAT     H267104   7.370   9.141   9.333
22288WAT      O67105   9.389   7.037   0.262
22288WAT     H167106   9.348   6.967   0.204
22288WAT     H267107   9.348   7.126   0.242
22289WAT      O67108   9.165   5.493   0.120
22289WAT     H167109   9.221   5.503   0.038
22289WAT     H267110   9.213   5.533   0.198
22290WAT      O67111   5.764   6.077   7.037
22290WAT     H167112   5.683   6.087   7.094
22290WAT     H267113   5.844   6.114   7.086
22291WAT      O67114   2.086   4.026   7.236
22291WAT     H167115   2.055   4.037   7.330
22291WAT     H267116   2.049   3.941   7.198
22292WAT      O67117   5.859   2.466   3.140
22292WAT     H167118   5.882   2.387   3.197
22292WAT     H267119   5.772   2.448   3.093
22293WAT      O67120   0.053   7.982   4.814
22293WAT     H167121   0.008   8.057   4.766
22293WAT     H267122   0.088   7.916   4.747
22294WAT      O67123   4.228   4.384   0.579
22294WAT     H167124   4.297   4.453   0.603
22294WAT     H267125   4.274   4.300   0.551
22295WAT      O67126   6.169   6.126   5.331
22295WAT     H167127   6.075   6.138   5.299
22295WAT     H267128   6.218   6.212   5.325
22296WAT      O67129   1.955   3.056   1.413
22296WAT     H167130   2.034   3.114   1.428
22296WAT     H267131   1.883   3.080   1.479
22297WAT      O67132   1.661   1.934   2.516
22297WAT     H167133   1.587   1.981   2.470
22297WAT     H267134   1.746   1.949   2.466
22298WAT      O67135   1.101   7.546   7.818
22298WAT     H167136   1.109   7.644   7.833
22298WAT     H267137   1.076   7.501   7.904
22299WAT      O67138   8.220   5.707   2.537
22299WAT     H167139   8.287   5.633   2.537
22299WAT     H267140   8.207   5.742   2.629
22300WAT      O67141   7.845   8.148   5.104
22300WAT     H167142   7.850   8.099   5.192
22300WAT     H267143   7.801   8.089   5.036
22301WAT      O67144   8.252   4.214   3.775
22301WAT     H167145   8.316   4.142   3.747
22301WAT     H267146   8.190   4.178   3.845
22302WAT      O67147   1.487   7.248   7.497
22302WAT     H167148   1.427   7.235   7.418
22302WAT     H267149   1.432   7.264   7.579
22303WAT      O67150   4.784   0.144   1.113
22303WAT     H167151   4.733   0.091   1.046
22303WAT     H267152   4.815   0.229   1.071
22304WAT      O67153   7.888   1.676   3.625
22304WAT     H167154   7.802   1.726   3.638
22304WAT     H267155   7.948   1.693   3.703
22305WAT      O67156   7.144   5.626   6.480
22305WAT     H167157   7.049   5.618   6.512
22305WAT     H267158   7.203   5.569   6.536
22306WAT      O67159   2.935   3.382   7.117
22306WAT     H167160   2.858   3.326   7.148
22306WAT     H267161   3.012   3.323   7.092
22307WAT      O67162   6.788   6.210   7.592
22307WAT     H167163   6.759   6.242   7.502
22307WAT     H267164   6.887   6.218   7.601
22308WAT      O67165   6.108   8.663   6.986
22308WAT     H167166   6.055   8.729   7.038
22308WAT     H267167   6.122   8.580   7.040
22309WAT      O67168   8.861   8.559   1.842
22309WAT     H167169   8.845   8.487   1.909
22309WAT     H267170   8.959   8.580   1.838
22310WAT      O67171   0.017   0.846   9.870
22310WAT     H167172  -0.070   0.886   9.844
22310WAT     H267173   0.071   0.913   9.921
22311WAT      O67174   4.977   6.218   8.490
22311WAT     H167175   5.056   6.251   8.438
22311WAT     H267176   5.004   6.136   8.542
22312WAT      O67177   2.953   7.863   6.722
22312WAT     H167178   2.887   7.938   6.713
22312WAT     H267179   2.914   7.779   6.684
22313WAT      O67180   4.305   1.387   1.602
22313WAT     H167181   4.268   1.457   1.541
22313WAT     H267182   4.290   1.296   1.563
22314WAT      O67183   3.901   3.545   5.035
22314WAT     H167184   3.879   3.623   5.093
22314WAT     H267185   3.819   3.518   4.984
22315WAT      O67186   1.986   3.271   6.562
22315WAT     H167187   1.936   3.350   6.600
22315WAT     H267188   2.074   3.262   6.608
22316WAT      O67189   2.048   7.883   0.522
22316WAT     H167190   1.983   7.945   0.477
22316WAT     H267191   2.085   7.819   0.454
22317WAT      O67192   1.726   8.039   9.882
22317WAT     H167193   1.790   7.962   9.888
22317WAT     H267194   1.719   8.082   9.972
22318WAT      O67195   7.859   0.990   3.056
22318WAT     H167196   7.768   1.033   3.060
22318WAT     H267197   7.852   0.895   3.085
22319WAT      O67198   7.380   1.277   3.485
22319WAT     H167199   7.285   1.244   3.484
22319WAT     H267200   7.387   1.354   3.548
22320WAT      O67201   7.586   0.966   7.219
22320WAT     H167202   7.506   0.915   7.189
22320WAT     H267203   7.663   0.903   7.230
22321WAT      O67204   1.393   4.606   1.633
22321WAT     H167205   1.445   4.615   1.718
22321WAT     H267206   1.351   4.695   1.610
22322WAT      O67207   6.473   8.615   1.213
22322WAT     H167208   6.520   8.561   1.282
22322WAT     H267209   6.527   8.696   1.190
22323WAT      O67210   0.247   5.706   2.228
22323WAT     H167211   0.217   5.757   2.309
22323WAT     H267212   0.260   5.610   2.253
22324WAT      O67213   3.918   0.031   7.356
22324WAT     H167214   4.015   0.055   7.364
22324WAT     H267215   3.866   0.080   7.426
22325WAT      O67216   8.592   1.877   5.862
22325WAT     H167217   8.588   1.807   5.790
22325WAT     H267218   8.506   1.878   5.913
22326WAT      O67219   3.729   3.257   4.998
22326WAT     H167220   3.825   3.265   5.025
22326WAT     H267221   3.703   3.335   4.941
22327WAT      O67222   1.359   0.574   7.160
22327WAT     H167223   1.368   0.672   7.176
22327WAT     H267224   1.263   0.551   7.143
22328WAT      O67225   4.515   2.818   9.670
22328WAT     H167226   4.553   2.734   9.709
22328WAT     H267227   4.416   2.809   9.662
22329WAT      O67228   7.125   4.087   9.061
22329WAT     H167229   7.102   4.126   9.150
22329WAT     H267230   7.042   4.075   9.006
22330WAT      O67231   6.065   1.440   5.090
22330WAT     H167232   6.125   1.434   5.170
22330WAT     H267233   6.041   1.536   5.074
22331WAT      O67234   4.794   0.395   4.850
22331WAT     H167235   4.750   0.414   4.937
22331WAT     H267236   4.851   0.473   4.823
22332WAT      O67237   2.251   9.772   6.025
22332WAT     H167238   2.152   9.764   6.014
22332WAT     H267239   2.297   9.712   5.959
22333WAT      O67240   1.899   8.768   6.894
22333WAT     H167241   1.927   8.672   6.886
22333WAT     H267242   1.971   8.826   6.856
22334WAT      O67243   8.574   7.013   8.585
22334WAT     H167244   8.619   6.968   8.508
22334WAT     H267245   8.603   7.109   8.590
22335WAT      O67246   8.996   6.693   9.595
22335WAT     H167247   9.016   6.751   9.515
22335WAT     H267248   8.899   6.702   9.618
22336WAT      O67249   7.126   5.900   5.732
22336WAT     H167250   7.124   5.814   5.681
22336WAT     H267251   7.161   5.973   5.673
22337WAT      O67252   9.478   8.680   4.558
22337WAT     H167253   9.531   8.597   4.575
22337WAT     H267254   9.434   8.674   4.468
22338WAT      O67255   5.937   6.124   8.582
22338WAT     H167256   5.880   6.199   8.548
22338WAT     H267257   5.976   6.149   8.670
22339WAT      O67258   8.599   6.713   5.007
22339WAT     H167259   8.505   6.726   4.975
22339WAT     H267260   8.603   6.628   5.061
22340WAT      O67261   1.450   1.420   5.376
22340WAT     H167262   1.355   1.392   5.388
22340WAT     H267263   1.506   1.341   5.353
22341WAT      O67264   9.462   0.048   9.622
22341WAT     H167265   9.553   0.010   9.606
22341WAT     H267266   9.393  -0.011   9.580
22342WAT      O67267   6.646   5.357   0.924
22342WAT     H167268   6.693   5.410   0.853
22342WAT     H267269   6.695   5.271   0.940
22343WAT      O67270   5.505   0.706   9.248
22343WAT     H167271   5.466   0.647   9.177
22343WAT     H267272   5.432   0.757   9.293
22344WAT      O67273   4.470   5.408   4.569
22344WAT     H167274   4.441   5.390   4.663
22344WAT     H267275   4.449   5.503   4.546
22345WAT      O67276   3.420   6.819   2.369
22345WAT     H167277   3.404   6.725   2.340
22345WAT     H267278   3.409   6.826   2.468
22346WAT      O67279   1.842   1.943   5.249
22346WAT     H167280   1.774   1.962   5.177
22346WAT     H267281   1.917   1.889   5.211
22347WAT      O67282   5.554   3.016   9.884
22347WAT     H167283   5.569   2.969   9.971
22347WAT     H267284   5.467   2.985   9.845
22348WAT      O67285   0.652   3.171   3.753
22348WAT     H167286   0.607   3.114   3.685
22348WAT     H267287   0.747   3.141   3.765
22349WAT      O67288   7.393   5.564   3.408
22349WAT     H167289   7.405   5.632   3.336
22349WAT     H267290   7.295   5.551   3.426
22350WAT      O67291   0.500   4.302   5.661
22350WAT     H167292   0.552   4.241   5.600
22350WAT     H267293   0.448   4.246   5.726
22351WAT      O67294   3.172   7.160   7.102
22351WAT     H167295   3.180   7.176   7.201
22351WAT     H267296   3.115   7.080   7.086
22352WAT      O67297   3.791   4.587   4.801
22352WAT     H167298   3.863   4.655   4.809
22352WAT     H267299   3.707   4.631   4.768
22353WAT      O67300   1.286   2.337   8.971
22353WAT     H167301   1.383   2.361   8.968
22353WAT     H267302   1.246   2.352   8.880
22354WAT      O67303   6.891   7.653   7.142
22354WAT     H167304   6.832   7.726   7.106
22354WAT     H267305   6.900   7.662   7.241
22355WAT      O67306   2.762   5.608   4.223
22355WAT     H167307   2.778   5.632   4.127
22355WAT     H267308   2.729   5.689   4.273
22356WAT      O67309   9.469   6.316   2.670
22356WAT     H167310   9.458   6.234   2.614
22356WAT     H267311   9.503   6.291   2.760
22357WAT      O67312   4.432   0.841   1.317
22357WAT     H167313   4.379   0.810   1.238
22357WAT     H267314   4.384   0.916   1.362
22358WAT      O67315   9.125   3.191   5.220
22358WAT     H167316   9.201   3.180   5.155
22358WAT     H267317   9.105   3.102   5.262
22359WAT      O67318   8.861   9.833   5.882
22359WAT     H167319   8.857   9.744   5.837
22359WAT     H267320   8.886   9.903   5.816
22360WAT      O67321   6.680   8.238   6.941
22360WAT     H167322   6.650   8.309   6.877
22360WAT     H267323   6.617   8.233   7.018
22361WAT      O67324   8.012   7.853   9.281
22361WAT     H167325   7.965   7.886   9.362
22361WAT     H267326   8.079   7.921   9.250
22362WAT      O67327   1.022   6.132   9.423
22362WAT     H167328   1.070   6.083   9.496
22362WAT     H267329   1.067   6.220   9.406
22363WAT      O67330   1.403   6.559   5.808
22363WAT     H167331   1.451   6.554   5.896
22363WAT     H267332   1.470   6.570   5.734
22364WAT      O67333   7.491   9.630   9.142
22364WAT     H167334   7.434   9.578   9.206
22364WAT     H267335   7.581   9.588   9.137
22365WAT      O67336   2.696   1.347   3.815
22365WAT     H167337   2.765   1.389   3.875
22365WAT     H267338   2.628   1.415   3.790
22366WAT      O67339   6.857   6.926   5.480
22366WAT     H167340   6.898   6.838   5.506
22366WAT     H267341   6.787   6.911   5.410
22367WAT      O67342   6.139   7.928   1.577
22367WAT     H167343   6.089   7.988   1.639
22367WAT     H267344   6.089   7.842   1.567
22368WAT      O67345   3.948   4.760   2.025
22368WAT     H167346   4.041   4.772   2.060
22368WAT     H267347   3.901   4.689   2.079
22369WAT      O67348   0.128   4.938   1.604
22369WAT     H167349   0.121   5.037   1.588
22369WAT     H267350   0.097   4.889   1.523
22370WAT      O67351   3.562   5.767   6.980
22370WAT     H167352   3.656   5.792   7.002
22370WAT     H267353   3.550   5.668   6.989
22371WAT      O67354   6.762   6.058   3.392
22371WAT     H167355   6.741   6.016   3.303
22371WAT     H267356   6.858   6.087   3.393
22372WAT      O67357   2.561   2.181   7.146
22372WAT     H167358   2.552   2.258   7.209
22372WAT     H267359   2.491   2.188   7.075
22373WAT      O67360   1.986   6.478   4.856
22373WAT     H167361   2.064   6.439   4.806
22373WAT     H267362   1.905   6.422   4.841
22374WAT      O67363   3.494   3.621   7.866
22374WAT     H167364   3.521   3.553   7.935
22374WAT     H267365   3.549   3.608   7.784
22375WAT      O67366   0.581   1.955   5.339
22375WAT     H167367   0.560   1.888   5.267
22375WAT     H267368   0.678   1.978   5.336
22376WAT      O67369   1.197   0.212   3.034
22376WAT     H167370   1.177   0.190   3.130
22376WAT     H267371   1.221   0.309   3.027
22377WAT      O67372   2.809   4.347   9.055
22377WAT     H167373   2.857   4.287   8.991
22377WAT     H267374   2.734   4.297   9.098
22378WAT      O67375   8.209   2.657   7.318
22378WAT     H167376   8.118   2.694   7.334
22378WAT     H267377   8.240   2.610   7.401
22379WAT      O67378   1.518   6.903   1.593
22379WAT     H167379   1.609   6.872   1.618
22379WAT     H267380   1.450   6.858   1.651
22380WAT      O67381   7.683   4.144   5.741
22380WAT     H167382   7.707   4.236   5.771
22380WAT     H267383   7.600   4.146   5.686
22381WAT      O67384   6.949   1.945   1.953
22381WAT     H167385   7.032   1.920   2.002
22381WAT     H267386   6.968   1.954   1.855
22382WAT      O67387   6.401   3.174   9.441
22382WAT     H167388   6.355   3.186   9.353
22382WAT     H267389   6.414   3.263   9.484
22383WAT      O67390   6.104   8.828   9.061
22383WAT     H167391   6.106   8.857   9.156
22383WAT     H267392   6.042   8.750   9.051
22384WAT      O67393   1.443   9.552   3.157
22384WAT     H167394   1.396   9.595   3.234
22384WAT     H267395   1.523   9.502   3.190
22385WAT      O67396   4.098   5.305   3.290
22385WAT     H167397   4.066   5.243   3.219
22385WAT     H267398   4.176   5.264   3.338
22386WAT      O67399   7.048   1.086   9.222
22386WAT     H167400   6.955   1.119   9.237
22386WAT     H267401   7.067   1.082   9.124
22387WAT      O67402   6.982   3.915   7.693
22387WAT     H167403   7.004   3.993   7.752
22387WAT     H267404   7.014   3.831   7.736
22388WAT      O67405   5.982   0.763   4.459
22388WAT     H167406   5.904   0.700   4.462
22388WAT     H267407   5.962   0.838   4.396
22389WAT      O67408   1.592   7.197   8.319
22389WAT     H167409   1.638   7.156   8.241
22389WAT     H267410   1.651   7.190   8.400
22390WAT      O67411   5.463   6.579   2.726
22390WAT     H167412   5.475   6.480   2.717
22390WAT     H267413   5.368   6.603   2.706
22391WAT      O67414   4.679   1.900   4.144
22391WAT     H167415   4.735   1.868   4.067
22391WAT     H267416   4.583   1.883   4.124
22392WAT      O67417   3.328   0.368   2.302
22392WAT     H167418   3.343   0.341   2.397
22392WAT     H267419   3.415   0.363   2.252
22393WAT      O67420   6.813   7.088   7.364
22393WAT     H167421   6.750   7.145   7.312
22393WAT     H267422   6.907   7.111   7.340
22394WAT      O67423   6.895   0.391   3.460
22394WAT     H167424   6.860   0.305   3.496
22394WAT     H267425   6.834   0.424   3.388
22395WAT      O67426   6.434   1.333   4.081
22395WAT     H167427   6.470   1.388   4.006
22395WAT     H267428   6.445   1.236   4.060
22396WAT      O67429   5.677   6.585   6.087
22396WAT     H167430   5.593   6.611   6.134
22396WAT     H267431   5.728   6.667   6.060
22397WAT      O67432   8.942   9.522   2.468
22397WAT     H167433   8.940   9.598   2.403
22397WAT     H267434   8.852   9.480   2.473
22398WAT      O67435   9.828   7.784   6.985
22398WAT     H167436   9.804   7.805   6.891
22398WAT     H267437   9.748   7.746   7.032
22399WAT      O67438   2.313   1.990   6.519
22399WAT     H167439   2.250   1.986   6.597
22399WAT     H267440   2.354   2.081   6.514
22400WAT      O67441   0.566   3.883   5.837
22400WAT     H167442   0.560   3.820   5.760
22400WAT     H267443   0.657   3.926   5.838
22401WAT      O67444   4.876   6.469   1.011
22401WAT     H167445   4.963   6.516   0.996
22401WAT     H267446   4.859   6.405   0.936
22402WAT      O67447   1.722   9.278   1.257
22402WAT     H167448   1.742   9.180   1.250
22402WAT     H267449   1.750   9.324   1.173
22403WAT      O67450   2.162   1.278   4.947
22403WAT     H167451   2.137   1.254   5.040
22403WAT     H267452   2.082   1.266   4.887
22404WAT      O67453   6.868   0.218   0.074
22404WAT     H167454   6.898   0.195  -0.019
22404WAT     H267455   6.936   0.185   0.140
22405WAT      O67456   0.036   2.138   5.497
22405WAT     H167457  -0.031   2.066   5.516
22405WAT     H267458  -0.006   2.210   5.441
22406WAT      O67459   5.971   7.786   3.725
22406WAT     H167460   5.932   7.852   3.660
22406WAT     H267461   6.060   7.756   3.692
22407WAT      O67462   6.701   0.218   9.691
22407WAT     H167463   6.740   0.308   9.675
22407WAT     H267464   6.603   0.219   9.667
22408WAT      O67465   8.511   3.837   8.400
22408WAT     H167466   8.439   3.798   8.456
22408WAT     H267467   8.526   3.779   8.320
22409WAT      O67468   2.333   5.700   4.639
22409WAT     H167469   2.247   5.736   4.674
22409WAT     H267470   2.380   5.771   4.586
22410WAT      O67471   1.468   5.241   3.343
22410WAT     H167472   1.459   5.170   3.413
22410WAT     H267473   1.412   5.216   3.264
22411WAT      O67474   7.089   9.050   6.866
22411WAT     H167475   7.053   9.136   6.831
22411WAT     H267476   7.060   8.975   6.807
22412WAT      O67477   8.201   6.671   4.504
22412WAT     H167478   8.281   6.644   4.451
22412WAT     H267479   8.144   6.591   4.522
22413WAT      O67480   2.495   1.382   4.163
22413WAT     H167481   2.557   1.414   4.091
22413WAT     H267482   2.461   1.291   4.140
22414WAT      O67483   5.530   7.818   3.963
22414WAT     H167484   5.528   7.757   4.042
22414WAT     H267485   5.624   7.831   3.933
22415WAT      O67486   3.865   5.132   8.919
22415WAT     H167487   3.872   5.222   8.874
22415WAT     H267488   3.823   5.144   9.009
22416WAT      O67489   8.613   1.196   1.549
22416WAT     H167490   8.592   1.134   1.624
22416WAT     H267491   8.561   1.168   1.468
22417WAT      O67492   3.110   8.947   2.081
22417WAT     H167493   3.095   8.877   2.151
22417WAT     H267494   3.022   8.978   2.045
22418WAT      O67495   7.009   8.567   1.839
22418WAT     H167496   7.071   8.547   1.915
22418WAT     H267497   7.062   8.580   1.755
22419WAT      O67498   2.870   1.347   9.724
22419WAT     H167499   2.888   1.445   9.736
22419WAT     H267500   2.836   1.309   9.811
22420WAT      O67501   5.839   1.211   9.050
22420WAT     H167502   5.830   1.260   9.137
22420WAT     H267503   5.926   1.160   9.049
22421WAT      O67504   5.171   7.062   3.878
22421WAT     H167505   5.217   7.058   3.966
22421WAT     H267506   5.236   7.042   3.805
22422WAT      O67507   0.572   9.508   2.138
22422WAT     H167508   0.482   9.465   2.144
22422WAT     H267509   0.597   9.544   2.228
22423WAT      O67510   4.416   7.146   6.726
22423WAT     H167511   4.439   7.054   6.758
22423WAT     H267512   4.340   7.141   6.661
22424WAT      O67513   5.506   2.564   2.156
22424WAT     H167514   5.436   2.525   2.217
22424WAT     H267515   5.565   2.625   2.208
22425WAT      O67516   3.770   5.857   9.189
22425WAT     H167517   3.675   5.874   9.213
22425WAT     H267518   3.794   5.906   9.105
22426WAT      O67519   9.570   9.128   9.761
22426WAT     H167520   9.492   9.073   9.789
22426WAT     H267521   9.654   9.075   9.774
22427WAT      O67522   8.993   6.390   1.796
22427WAT     H167523   9.084   6.388   1.754
22427WAT     H267524   8.929   6.435   1.734
22428WAT      O67525   7.714   7.334   8.151
22428WAT     H167526   7.680   7.423   8.182
22428WAT     H267527   7.648   7.294   8.087
22429WAT      O67528   3.557   7.625   1.411
22429WAT     H167529   3.642   7.673   1.389
22429WAT     H267530   3.556   7.537   1.364
22430WAT      O67531   5.264   6.145   2.615
22430WAT     H167532   5.258   6.054   2.573
22430WAT     H267533   5.344   6.150   2.674
22431WAT      O67534   4.816   9.484   0.118
22431WAT     H167535   4.737   9.537   0.149
22431WAT     H267536   4.805   9.460   0.021
22432WAT      O67537   3.473   2.379   0.894
22432WAT     H167538   3.423   2.294   0.879
22432WAT     H267539   3.475   2.400   0.992
22433WAT      O67540   4.297   3.699   2.051
22433WAT     H167541   4.320   3.777   2.109
22433WAT     H267542   4.227   3.726   1.985
22434WAT      O67543   6.794   3.485   2.751
22434WAT     H167544   6.798   3.388   2.726
22434WAT     H267545   6.863   3.504   2.821
22435WAT      O67546   7.134   6.788   5.967
22435WAT     H167547   7.108   6.883   5.950
22435WAT     H267548   7.174   6.781   6.059
22436WAT      O67549   4.362   6.599   1.219
22436WAT     H167550   4.316   6.513   1.198
22436WAT     H267551   4.321   6.673   1.165
22437WAT      O67552   6.192   3.566   9.365
22437WAT     H167553   6.162   3.500   9.297
22437WAT     H267554   6.159   3.657   9.340
22438WAT      O67555   5.194   8.077   0.012
22438WAT     H167556   5.187   8.017   0.092
22438WAT     H267557   5.250   8.156   0.034
22439WAT      O67558   5.447   8.466   8.733
22439WAT     H167559   5.368   8.515   8.769
22439WAT     H267560   5.436   8.368   8.751
22440WAT      O67561   4.011   8.880   1.465
22440WAT     H167562   3.971   8.921   1.547
22440WAT     H267563   4.020   8.781   1.479
22441WAT      O67564   6.314   0.637   8.530
22441WAT     H167565   6.252   0.578   8.478
22441WAT     H267566   6.262   0.685   8.602
22442WAT      O67567   2.649   7.481   3.629
22442WAT     H167568   2.747   7.464   3.636
22442WAT     H267569   2.614   7.440   3.545
22443WAT      O67570   8.520   4.217   2.238
22443WAT     H167571   8.494   4.307   2.274
22443WAT     H267572   8.477   4.145   2.294
22444WAT      O67573   6.611   7.315   8.006
22444WAT     H167574   6.655   7.226   8.012
22444WAT     H267575   6.511   7.304   8.009
22445WAT      O67576   5.935   8.250   6.425
22445WAT     H167577   6.010   8.185   6.429
22445WAT     H267578   5.970   8.343   6.432
22446WAT      O67579   1.521   1.664   5.210
22446WAT     H167580   1.605   1.703   5.248
22446WAT     H267581   1.483   1.598   5.274
22447WAT      O67582   5.306   5.840   5.801
22447WAT     H167583   5.266   5.749   5.796
22447WAT     H267584   5.333   5.870   5.709
22448WAT      O67585   1.551   3.914   7.442
22448WAT     H167586   1.591   4.001   7.414
22448WAT     H267587   1.460   3.904   7.402
22449WAT      O67588   2.502   2.603   0.504
22449WAT     H167589   2.486   2.692   0.461
22449WAT     H267590   2.494   2.531   0.436
22450WAT      O67591   1.584   7.175   1.539
22450WAT     H167592   1.546   7.097   1.588
22450WAT     H267593   1.678   7.155   1.512
22451WAT      O67594   9.309   0.803   3.939
22451WAT     H167595   9.406   0.786   3.954
22451WAT     H267596   9.297   0.897   3.905
22452WAT      O67597   4.508   3.726   5.782
22452WAT     H167598   4.529   3.805   5.725
22452WAT     H267599   4.418   3.689   5.758
22453WAT      O67600   6.309   7.784   7.600
22453WAT     H167601   6.279   7.879   7.609
22453WAT     H267602   6.401   7.774   7.638
22454WAT      O67603   2.144   0.993   1.971
22454WAT     H167604   2.074   0.922   1.968
22454WAT     H267605   2.231   0.955   1.940
22455WAT      O67606   3.206   1.601   8.067
22455WAT     H167607   3.302   1.574   8.065
22455WAT     H267608   3.148   1.521   8.053
22456WAT      O67609   4.031   4.045   8.242
22456WAT     H167610   3.983   4.060   8.328
22456WAT     H267611   3.965   4.038   8.167
22457WAT      O67612   5.959   7.605   6.033
22457WAT     H167613   5.907   7.686   6.008
22457WAT     H267614   6.057   7.623   6.021
22458WAT      O67615   7.942   8.436   9.283
22458WAT     H167616   7.890   8.403   9.203
22458WAT     H267617   7.895   8.514   9.323
22459WAT      O67618   9.747   0.842   7.670
22459WAT     H167619   9.677   0.789   7.718
22459WAT     H267620   9.763   0.801   7.580
22460WAT      O67621   3.508   6.129   0.158
22460WAT     H167622   3.504   6.120   0.258
22460WAT     H267623   3.504   6.226   0.133
22461WAT      O67624   3.281   7.837   4.056
22461WAT     H167625   3.269   7.901   4.132
22461WAT     H267626   3.379   7.818   4.045
22462WAT      O67627   7.387   8.069   0.546
22462WAT     H167628   7.355   8.163   0.541
22462WAT     H267629   7.480   8.063   0.509
22463WAT      O67630   2.045   1.086   3.934
22463WAT     H167631   1.970   1.142   3.968
22463WAT     H267632   2.075   1.024   4.005
22464WAT      O67633   6.053   6.552   6.881
22464WAT     H167634   6.044   6.633   6.823
22464WAT     H267635   6.127   6.567   6.948
22465WAT      O67636   2.984   8.153   7.017
22465WAT     H167637   2.988   8.054   7.008
22465WAT     H267638   3.029   8.196   6.939
22466WAT      O67639   5.713   9.683   0.956
22466WAT     H167640   5.752   9.775   0.961
22466WAT     H267641   5.619   9.689   0.923
22467WAT      O67642   1.102   1.186   6.066
22467WAT     H167643   1.187   1.215   6.109
22467WAT     H267644   1.026   1.239   6.103
22468WAT      O67645   1.092   3.772   0.364
22468WAT     H167646   1.191   3.770   0.348
22468WAT     H267647   1.048   3.697   0.315
22469WAT      O67648   8.017   8.210   7.567
22469WAT     H167649   8.022   8.298   7.614
22469WAT     H267650   7.943   8.212   7.500
22470WAT      O67651   2.652   6.863   0.789
22470WAT     H167652   2.714   6.839   0.863
22470WAT     H267653   2.663   6.799   0.713
22471WAT      O67654   1.399   3.211   0.911
22471WAT     H167655   1.366   3.143   0.976
22471WAT     H267656   1.407   3.170   0.821
22472WAT      O67657   2.211   2.637   8.736
22472WAT     H167658   2.133   2.697   8.719
22472WAT     H267659   2.289   2.668   8.682
22473WAT      O67660   5.007   2.591   1.358
22473WAT     H167661   5.103   2.562   1.353
22473WAT     H267662   4.999   2.686   1.329
22474WAT      O67663   5.831   1.900   4.166
22474WAT     H167664   5.893   1.928   4.093
22474WAT     H267665   5.746   1.865   4.126
22475WAT      O67666   3.979   4.808   5.089
22475WAT     H167667   4.049   4.879   5.080
22475WAT     H267668   3.891   4.851   5.105
22476WAT      O67669   5.451   3.335   4.917
22476WAT     H167670   5.478   3.309   5.009
22476WAT     H267671   5.454   3.434   4.907
22477WAT      O67672   9.340   2.131   4.831
22477WAT     H167673   9.426   2.155   4.876
22477WAT     H267674   9.358   2.101   4.738
22478WAT      O67675   9.800   1.836   5.273
22478WAT     H167676   9.731   1.837   5.200
22478WAT     H267677   9.764   1.886   5.352
22479WAT      O67678   5.284   5.671   5.199
22479WAT     H167679   5.280   5.572   5.185
22479WAT     H267680   5.319   5.715   5.116
22480WAT      O67681   6.972   6.555   4.276
22480WAT     H167682   6.939   6.545   4.182
22480WAT     H267683   6.955   6.471   4.327
22481WAT      O67684   2.322   0.753   4.013
22481WAT     H167685   2.225   0.730   4.005
22481WAT     H267686   2.341   0.785   4.106
22482WAT      O67687   6.992   8.832   8.347
22482WAT     H167688   6.909   8.783   8.321
22482WAT     H267689   6.968   8.925   8.375
22483WAT      O67690   6.604   3.779   9.060
22483WAT     H167691   6.686   3.723   9.074
22483WAT     H267692   6.612   3.864   9.111
22484WAT      O67693   6.264   1.242   3.002
22484WAT     H167694   6.306   1.188   2.930
22484WAT     H267695   6.212   1.318   2.961
22485WAT      O67696   6.589   1.150   7.676
22485WAT     H167697   6.632   1.229   7.633
22485WAT     H267698   6.549   1.177   7.764
22486WAT      O67699   2.450   2.605   8.603
22486WAT     H167700   2.474   2.529   8.663
22486WAT     H267701   2.520   2.676   8.609
22487WAT      O67702   8.581   8.702   5.619
22487WAT     H167703   8.645   8.660   5.683
22487WAT     H267704   8.623   8.783   5.579
22488WAT      O67705   9.235   4.128   5.224
22488WAT     H167706   9.231   4.099   5.319
22488WAT     H267707   9.276   4.056   5.168
22489WAT      O67708   8.993   1.551   1.018
22489WAT     H167709   9.086   1.544   1.053
22489WAT     H267710   8.941   1.617   1.073
22490WAT      O67711   0.728   7.665   6.437
22490WAT     H167712   0.635   7.635   6.459
22490WAT     H267713   0.772   7.700   6.519
22491WAT      O67714   8.954   1.783   5.854
22491WAT     H167715   8.866   1.818   5.888
22491WAT     H267716   9.027   1.847   5.879
22492WAT      O67717   7.732   2.843   3.252
22492WAT     H167718   7.650   2.793   3.278
22492WAT     H267719   7.732   2.933   3.296
22493WAT      O67720   4.913   7.911   5.026
22493WAT     H167721   4.824   7.951   5.004
22493WAT     H267722   4.952   7.957   5.106
22494WAT      O67723   2.504   9.268   5.626
22494WAT     H167724   2.576   9.213   5.583
22494WAT     H267725   2.530   9.364   5.624
22495WAT      O67726   6.394   0.775   9.338
22495WAT     H167727   6.413   0.745   9.244
22495WAT     H267728   6.450   0.855   9.359
22496WAT      O67729   6.374   5.725   1.118
22496WAT     H167730   6.329   5.644   1.156
22496WAT     H267731   6.471   5.723   1.140
22497WAT      O67732   5.226   8.893   5.648
22497WAT     H167733   5.287   8.934   5.715
22497WAT     H267734   5.149   8.955   5.631
22498WAT      O67735   1.041   3.003   6.059
22498WAT     H167736   0.981   3.029   6.135
22498WAT     H267737   1.058   2.904   6.062
22499WAT      O67738   3.851   0.939   5.385
22499WAT     H167739   3.775   0.884   5.353
22499WAT     H267740   3.861   0.928   5.484
22500WAT      O67741   5.291   8.352   9.147
22500WAT     H167742   5.288   8.267   9.200
22500WAT     H267743   5.295   8.330   9.050
22501WAT      O67744   6.744   1.105   2.507
22501WAT     H167745   6.739   1.114   2.408
22501WAT     H267746   6.761   1.010   2.531
22502WAT      O67747   9.109   1.985   7.163
22502WAT     H167748   9.064   1.982   7.074
22502WAT     H267749   9.174   1.909   7.170
22503WAT      O67750   4.646   1.707   6.307
22503WAT     H167751   4.572   1.641   6.319
22503WAT     H267752   4.612   1.799   6.321
22504WAT      O67753   2.833   4.616   9.147
22504WAT     H167754   2.816   4.522   9.118
22504WAT     H267755   2.926   4.623   9.185
22505WAT      O67756   0.588   6.227   1.936
22505WAT     H167757   0.547   6.138   1.918
22505WAT     H267758   0.551   6.264   2.022
22506WAT      O67759   3.310   4.024   0.301
22506WAT     H167760   3.349   4.090   0.235
22506WAT     H267761   3.375   4.009   0.375
22507WAT      O67762   1.259   2.042   5.472
22507WAT     H167763   1.271   1.971   5.403
22507WAT     H267764   1.221   2.001   5.555
22508WAT      O67765   2.017   6.445   8.318
22508WAT     H167766   1.925   6.444   8.278
22508WAT     H267767   2.084   6.422   8.247
22509WAT      O67768   6.352   3.313   7.124
22509WAT     H167769   6.386   3.289   7.215
22509WAT     H267770   6.376   3.407   7.102
22510WAT      O67771   0.843   2.080   5.354
22510WAT     H167772   0.894   2.048   5.274
22510WAT     H267773   0.875   2.171   5.380
22511WAT      O67774   3.726   7.501   6.264
22511WAT     H167775   3.807   7.465   6.218
22511WAT     H267776   3.665   7.426   6.289
22512WAT      O67777   2.643   5.996   4.115
22512WAT     H167778   2.660   6.052   4.034
22512WAT     H267779   2.727   5.985   4.167
22513WAT      O67780   2.108   5.492   2.090
22513WAT     H167781   2.076   5.512   2.182
22513WAT     H267782   2.203   5.460   2.093
22514WAT      O67783   1.118   7.287   9.182
22514WAT     H167784   1.019   7.290   9.169
22514WAT     H267785   1.141   7.215   9.248
22515WAT      O67786   9.624   4.275   2.555
22515WAT     H167787   9.631   4.282   2.456
22515WAT     H267788   9.716   4.274   2.595
22516WAT      O67789   9.555   3.354   8.256
22516WAT     H167790   9.515   3.264   8.272
22516WAT     H267791   9.495   3.425   8.292
22517WAT      O67792   5.211   8.567   8.813
22517WAT     H167793   5.122   8.520   8.817
22517WAT     H267794   5.196   8.665   8.803
22518WAT      O67795   4.479   9.507   8.277
22518WAT     H167796   4.495   9.605   8.266
22518WAT     H267797   4.399   9.492   8.334
22519WAT      O67798   2.950   7.147   8.768
22519WAT     H167799   2.950   7.053   8.801
22519WAT     H267800   3.037   7.191   8.791
22520WAT      O67801   9.213   0.913   2.702
22520WAT     H167802   9.293   0.968   2.729
22520WAT     H267803   9.236   0.860   2.621
22521WAT      O67804   9.277   9.143   5.396
22521WAT     H167805   9.253   9.232   5.433
22521WAT     H267806   9.304   9.082   5.471
22522WAT      O67807   3.514   3.576   0.657
22522WAT     H167808   3.423   3.549   0.627
22522WAT     H267809   3.581   3.544   0.590
22523WAT      O67810   3.221   5.177   6.181
22523WAT     H167811   3.131   5.146   6.153
22523WAT     H267812   3.285   5.166   6.106
22524WAT      O67813   3.885   4.428   7.975
22524WAT     H167814   3.920   4.520   7.959
22524WAT     H267815   3.789   4.432   8.000
22525WAT      O67816   3.194   4.916   9.775
22525WAT     H167817   3.265   4.851   9.748
22525WAT     H267818   3.123   4.868   9.827
22526WAT      O67819   4.638   1.243   0.581
22526WAT     H167820   4.722   1.269   0.627
22526WAT     H267821   4.588   1.325   0.552
22527WAT      O67822   2.505   1.763   5.264
22527WAT     H167823   2.533   1.737   5.171
22527WAT     H267824   2.421   1.714   5.288
22528WAT      O67825   8.786   7.058   9.249
22528WAT     H167826   8.828   7.128   9.306
22528WAT     H267827   8.738   6.992   9.307
22529WAT      O67828   5.664   0.165   3.341
22529WAT     H167829   5.570   0.182   3.371
22529WAT     H267830   5.682   0.067   3.342
22530WAT      O67831   7.100   3.126   0.095
22530WAT     H167832   7.002   3.115   0.078
22530WAT     H267833   7.127   3.067   0.171
22531WAT      O67834   7.766   9.803   8.914
22531WAT     H167835   7.851   9.808   8.966
22531WAT     H267836   7.691   9.842   8.969
22532WAT      O67837   3.113   1.259   1.335
22532WAT     H167838   3.022   1.234   1.301
22532WAT     H267839   3.132   1.354   1.312
22533WAT      O67840   6.738   4.535   0.113
22533WAT     H167841   6.700   4.590   0.187
22533WAT     H267842   6.782   4.454   0.151
22534WAT      O67843   3.095   3.857   9.376
22534WAT     H167844   3.037   3.823   9.450
22534WAT     H267845   3.152   3.783   9.342
22535WAT      O67846   9.471   3.420   6.269
22535WAT     H167847   9.471   3.437   6.170
22535WAT     H267848   9.400   3.353   6.290
22536WAT      O67849   5.653   0.114   4.045
22536WAT     H167850   5.597   0.187   4.083
22536WAT     H267851   5.594   0.039   4.014
22537WAT      O67852   5.284   1.353   6.501
22537WAT     H167853   5.271   1.293   6.421
22537WAT     H267854   5.245   1.443   6.482
22538WAT      O67855   0.440   4.730   7.751
22538WAT     H167856   0.350   4.685   7.759
22538WAT     H267857   0.486   4.727   7.839
22539WAT      O67858   0.153   3.527   1.408
22539WAT     H167859   0.090   3.574   1.346
22539WAT     H267860   0.213   3.595   1.452
22540WAT      O67861   4.976   4.464   1.405
22540WAT     H167862   5.068   4.482   1.370
22540WAT     H267863   4.961   4.366   1.411
22541WAT      O67864   5.521   5.410   6.571
22541WAT     H167865   5.517   5.506   6.598
22541WAT     H267866   5.505   5.352   6.651
22542WAT      O67867   1.589   1.180   5.308
22542WAT     H167868   1.644   1.102   5.277
22542WAT     H267869   1.534   1.152   5.387
22543WAT      O67870   4.040   8.107   1.206
22543WAT     H167871   4.054   8.204   1.184
22543WAT     H267872   3.982   8.100   1.288
22544WAT      O67873   6.576   3.621   4.372
22544WAT     H167874   6.599   3.529   4.404
22544WAT     H267875   6.626   3.640   4.287
22545WAT      O67876   8.060   9.688   5.024
22545WAT     H167877   8.035   9.614   4.963
22545WAT     H267878   8.047   9.776   4.978
22546WAT      O67879   5.774   8.394   8.330
22546WAT     H167880   5.835   8.348   8.265
22546WAT     H267881   5.683   8.404   8.289
22547WAT      O67882   7.317   8.003   6.786
22547WAT     H167883   7.241   7.938   6.787
22547WAT     H267884   7.294   8.080   6.726
22548WAT      O67885   5.322   5.705   9.709
22548WAT     H167886   5.367   5.665   9.789
22548WAT     H267887   5.368   5.674   9.625
22549WAT      O67888   1.073   3.754   3.592
22549WAT     H167889   0.974   3.762   3.589
22549WAT     H267890   1.105   3.712   3.507
22550WAT      O67891   8.730   8.988   2.537
22550WAT     H167892   8.709   8.927   2.460
22550WAT     H267893   8.670   8.967   2.614
22551WAT      O67894   5.693   1.880   7.249
22551WAT     H167895   5.692   1.977   7.271
22551WAT     H267896   5.787   1.850   7.235
22552WAT      O67897   7.032   9.683   6.205
22552WAT     H167898   7.090   9.603   6.190
22552WAT     H267899   7.063   9.731   6.287
22553WAT      O67900   8.991   3.406   2.488
22553WAT     H167901   8.966   3.457   2.569
22553WAT     H267902   9.042   3.324   2.514
22554WAT      O67903   0.056   7.818   1.779
22554WAT     H167904  -0.007   7.807   1.856
22554WAT     H267905   0.100   7.907   1.784
22555WAT      O67906   2.798   4.778   0.359
22555WAT     H167907   2.750   4.865   0.366
22555WAT     H267908   2.826   4.747   0.450
22556WAT      O67909   6.667   7.356   2.259
22556WAT     H167910   6.585   7.404   2.227
22556WAT     H267911   6.694   7.287   2.192
22557WAT      O67912   6.675   5.664   9.731
22557WAT     H167913   6.661   5.584   9.673
22557WAT     H267914   6.772   5.686   9.736
22558WAT      O67915   3.050   6.195   8.125
22558WAT     H167916   2.988   6.254   8.176
22558WAT     H267917   3.050   6.222   8.028
22559WAT      O67918   5.812   8.345   1.224
22559WAT     H167919   5.768   8.352   1.135
22559WAT     H267920   5.889   8.281   1.219
22560WAT      O67921   7.354   5.490   8.691
22560WAT     H167922   7.396   5.572   8.729
22560WAT     H267923   7.425   5.427   8.661
22561WAT      O67924   4.117   8.315   3.330
22561WAT     H167925   4.194   8.374   3.305
22561WAT     H267926   4.038   8.340   3.275
22562WAT      O67927   6.455   8.265   8.825
22562WAT     H167928   6.554   8.253   8.818
22562WAT     H267929   6.409   8.202   8.763
22563WAT      O67930   9.701   0.164   4.807
22563WAT     H167931   9.760   0.230   4.761
22563WAT     H267932   9.656   0.106   4.740
22564WAT      O67933   8.817   2.130   0.809
22564WAT     H167934   8.744   2.198   0.811
22564WAT     H267935   8.786   2.047   0.855
22565WAT      O67936   7.470   8.094   9.687
22565WAT     H167937   7.565   8.116   9.708
22565WAT     H267938   7.412   8.119   9.765
22566WAT      O67939   9.500   4.006   5.112
22566WAT     H167940   9.555   4.066   5.054
22566WAT     H267941   9.512   4.032   5.208
22567WAT      O67942   0.652   6.183   0.706
22567WAT     H167943   0.640   6.085   0.685
22567WAT     H267944   0.563   6.228   0.705
22568WAT      O67945   0.289   9.225   5.130
22568WAT     H167946   0.281   9.317   5.092
22568WAT     H267947   0.325   9.163   5.061
22569WAT      O67948   9.075   8.902   7.767
22569WAT     H167949   9.012   8.825   7.779
22569WAT     H267950   9.161   8.882   7.813
22570WAT      O67951   7.620   0.385   0.067
22570WAT     H167952   7.555   0.318   0.104
22570WAT     H267953   7.663   0.347  -0.016
22571WAT      O67954   8.262   7.547   0.125
22571WAT     H167955   8.193   7.493   0.077
22571WAT     H267956   8.222   7.586   0.208
22572WAT      O67957   7.527   5.850   9.234
22572WAT     H167958   7.484   5.760   9.230
22572WAT     H267959   7.494   5.906   9.158
22573WAT      O67960   3.964   4.875   9.266
22573WAT     H167961   4.027   4.933   9.213
22573WAT     H267962   3.871   4.908   9.253
22574WAT      O67963   6.169   5.746   8.637
22574WAT     H167964   6.243   5.732   8.704
22574WAT     H267965   6.186   5.829   8.585
22575WAT      O67966   9.456   0.050   3.669
22575WAT     H167967   9.501   0.139   3.677
22575WAT     H267968   9.364   0.063   3.632
22576WAT      O67969   7.380   5.768   8.540
22576WAT     H167970   7.349   5.681   8.503
22576WAT     H267971   7.401   5.758   8.638
22577WAT      O67972   6.463   4.619   1.968
22577WAT     H167973   6.408   4.691   1.928
22577WAT     H267974   6.553   4.655   1.992
22578WAT      O67975   0.142   4.658   7.746
22578WAT     H167976   0.078   4.698   7.812
22578WAT     H267977   0.154   4.720   7.669
22579WAT      O67978   6.936   5.581   1.363
22579WAT     H167979   6.881   5.653   1.320
22579WAT     H267980   7.031   5.592   1.336
22580WAT      O67981   9.334   7.715   9.261
22580WAT     H167982   9.317   7.616   9.262
22580WAT     H267983   9.256   7.762   9.302
22581WAT      O67984   9.817   8.029   7.313
22581WAT     H167985   9.867   7.953   7.270
22581WAT     H267986   9.873   8.068   7.386
22582WAT      O67987   6.113   7.397   3.367
22582WAT     H167988   6.089   7.455   3.290
22582WAT     H267989   6.043   7.405   3.438
22583WAT      O67990   8.914   6.587   0.117
22583WAT     H167991   8.954   6.501   0.084
22583WAT     H267992   8.907   6.585   0.216
22584WAT      O67993   3.453   9.056   6.281
22584WAT     H167994   3.414   9.138   6.324
22584WAT     H267995   3.453   9.067   6.182
22585WAT      O67996   9.662   2.429   9.108
22585WAT     H167997   9.738   2.375   9.143
22585WAT     H267998   9.586   2.368   9.085
22586WAT      O67999   8.207   0.831   6.176
22586WAT     H168000   8.239   0.914   6.222
22586WAT     H268001   8.283   0.790   6.125
22587WAT      O68002   2.424   0.628   5.315
22587WAT     H168003   2.510   0.663   5.353
22587WAT     H268004   2.347   0.671   5.362
22588WAT      O68005   0.892   6.082   5.330
22588WAT     H168006   0.944   6.167   5.322
22588WAT     H268007   0.947   6.006   5.294
22589WAT      O68008   1.750   7.014   7.273
22589WAT     H168009   1.800   6.929   7.256
22589WAT     H268010   1.702   7.043   7.190
22590WAT      O68011   5.568   8.824   3.827
22590WAT     H168012   5.473   8.825   3.858
22590WAT     H268013   5.613   8.909   3.856
22591WAT      O68014   8.996   7.930   3.257
22591WAT     H168015   9.007   8.001   3.187
22591WAT     H268016   9.044   7.957   3.340
22592WAT      O68017   6.783   8.659   8.144
22592WAT     H168018   6.701   8.646   8.200
22592WAT     H268019   6.785   8.752   8.108
22593WAT      O68020   4.583   8.646   9.600
22593WAT     H168021   4.492   8.634   9.560
22593WAT     H268022   4.594   8.741   9.631
22594WAT      O68023   7.312   9.718   8.943
22594WAT     H168024   7.395   9.691   8.992
22594WAT     H268025   7.265   9.637   8.908
22595WAT      O68026   9.797   2.019   8.152
22595WAT     H168027   9.738   2.075   8.094
22595WAT     H268028   9.741   1.965   8.215
22596WAT      O68029   9.610   2.768   4.795
22596WAT     H168030   9.703   2.762   4.758
22596WAT     H268031   9.588   2.864   4.815
22597WAT      O68032   8.690   0.499   1.450
22597WAT     H168033   8.623   0.479   1.522
22597WAT     H268034   8.769   0.439   1.460
22598WAT      O68035   9.453   4.698   0.645
22598WAT     H168036   9.375   4.758   0.661
22598WAT     H268037   9.512   4.698   0.726
22599WAT      O68038   8.599   4.496   0.012
22599WAT     H168039   8.549   4.481   0.098
22599WAT     H268040   8.546   4.557  -0.047
22600WAT      O68041   8.795   3.251   4.736
22600WAT     H168042   8.701   3.217   4.730
22600WAT     H268043   8.825   3.248   4.832
22601WAT      O68044   5.550   0.806   9.806
22601WAT     H168045   5.565   0.707   9.815
22601WAT     H268046   5.614   0.854   9.866
22602WAT      O68047   5.149   6.604   1.051
22602WAT     H168048   5.102   6.679   1.098
22602WAT     H268049   5.230   6.577   1.104
22603WAT      O68050   2.098   4.798   0.937
22603WAT     H168051   2.030   4.851   0.886
22603WAT     H268052   2.053   4.755   1.016
22604WAT      O68053   5.368   0.585   4.529
22604WAT     H168054   5.312   0.628   4.600
22604WAT     H268055   5.319   0.506   4.491
22605WAT      O68056   4.869   6.494   3.460
22605WAT     H168057   4.867   6.587   3.497
22605WAT     H268058   4.958   6.454   3.477
22606WAT      O68059   5.454   1.740   6.777
22606WAT     H168060   5.362   1.701   6.786
22606WAT     H268061   5.450   1.839   6.796
22607WAT      O68062   2.148   3.767   0.168
22607WAT     H168063   2.153   3.765   0.068
22607WAT     H268064   2.227   3.817   0.204
22608WAT      O68065   2.973   8.829   8.125
22608WAT     H168066   2.881   8.816   8.089
22608WAT     H268067   2.968   8.861   8.220
22609WAT      O68068   7.475   4.921   3.628
22609WAT     H168069   7.509   5.006   3.587
22609WAT     H268070   7.455   4.937   3.725
22610WAT      O68071   7.321   4.714   8.043
22610WAT     H168072   7.258   4.677   8.111
22610WAT     H268073   7.407   4.738   8.087
22611WAT      O68074   7.982   2.215   7.673
22611WAT     H168075   7.894   2.175   7.701
22611WAT     H268076   7.965   2.291   7.610
22612WAT      O68077   2.218   9.163   8.766
22612WAT     H168078   2.246   9.209   8.681
22612WAT     H268079   2.192   9.068   8.745
22613WAT      O68080   5.544   7.317   0.594
22613WAT     H168081   5.581   7.295   0.504
22613WAT     H268082   5.525   7.232   0.644
22614WAT      O68083   8.001   7.508   8.146
22614WAT     H168084   8.063   7.571   8.099
22614WAT     H268085   7.922   7.491   8.088
22615WAT      O68086   3.575   1.597   1.053
22615WAT     H168087   3.544   1.508   1.087
22615WAT     H268088   3.512   1.668   1.085
22616WAT      O68089   4.075   2.488   0.625
22616WAT     H168090   4.029   2.577   0.618
22616WAT     H268091   4.074   2.457   0.720
22617WAT      O68092   7.381   0.863   9.055
22617WAT     H168093   7.479   0.857   9.069
22617WAT     H268094   7.361   0.938   8.991
22618WAT      O68095   2.810   2.642   7.841
22618WAT     H168096   2.715   2.644   7.807
22618WAT     H268097   2.830   2.550   7.875
22619WAT      O68098   0.638   1.781   4.073
22619WAT     H168099   0.541   1.803   4.069
22619WAT     H268100   0.691   1.866   4.073
22620WAT      O68101   3.431   1.836   8.364
22620WAT     H168102   3.440   1.931   8.336
22620WAT     H268103   3.483   1.778   8.301
22621WAT      O68104   6.304   9.187   7.265
22621WAT     H168105   6.337   9.155   7.354
22621WAT     H268106   6.273   9.109   7.211
22622WAT      O68107   1.153   4.667   9.124
22622WAT     H168108   1.178   4.764   9.125
22622WAT     H268109   1.235   4.611   9.118
22623WAT      O68110   2.054   0.706   4.001
22623WAT     H168111   2.046   0.780   4.068
22623WAT     H268112   1.996   0.727   3.922
22624WAT      O68113   2.110   0.276   3.275
22624WAT     H168114   2.131   0.228   3.360
22624WAT     H268115   2.105   0.210   3.200
22625WAT      O68116   2.526   6.836   5.550
22625WAT     H168117   2.583   6.838   5.468
22625WAT     H268118   2.447   6.896   5.537
22626WAT      O68119   0.206   2.310   1.341
22626WAT     H168120   0.165   2.326   1.431
22626WAT     H268121   0.135   2.310   1.271
22627WAT      O68122   2.371   8.168   7.012
22627WAT     H168123   2.396   8.164   7.109
22627WAT     H268124   2.404   8.086   6.966
22628WAT      O68125   2.905   8.540   2.024
22628WAT     H168126   2.808   8.541   2.000
22628WAT     H268127   2.959   8.568   1.944
22629WAT      O68128   3.362   2.474   8.481
22629WAT     H168129   3.384   2.494   8.386
22629WAT     H268130   3.363   2.375   8.495
22630WAT      O68131   1.764   9.400   5.755
22630WAT     H168132   1.814   9.486   5.751
22630WAT     H268133   1.787   9.351   5.839
22631WAT      O68134   4.572   0.836   7.065
22631WAT     H168135   4.485   0.841   7.016
22631WAT     H268136   4.560   0.781   7.148
22632WAT      O68137   5.642   3.926   6.037
22632WAT     H168138   5.633   3.919   6.137
22632WAT     H268139   5.716   3.867   6.007
22633WAT      O68140   8.304   7.098   8.660
22633WAT     H168141   8.234   7.092   8.589
22633WAT     H268142   8.393   7.071   8.623
22634WAT      O68143   3.533   2.839   7.430
22634WAT     H168144   3.434   2.826   7.427
22634WAT     H268145   3.568   2.810   7.519
22635WAT      O68146   1.100   0.791   4.597
22635WAT     H168147   1.156   0.828   4.524
22635WAT     H268148   1.057   0.706   4.566
22636WAT      O68149   6.264   7.987   0.371
22636WAT     H168150   6.184   7.981   0.431
22636WAT     H268151   6.296   8.082   0.368
22637WAT      O68152   8.202   1.885   4.231
22637WAT     H168153   8.191   1.861   4.327
22637WAT     H268154   8.112   1.900   4.189
22638WAT      O68155   4.508   8.190   9.568
22638WAT     H168156   4.411   8.177   9.591
22638WAT     H268157   4.516   8.243   9.484
22639WAT      O68158   1.393   1.918   1.113
22639WAT     H168159   1.414   1.840   1.053
22639WAT     H268160   1.452   1.915   1.193
22640WAT      O68161   8.552   8.915   5.308
22640WAT     H168162   8.510   9.006   5.305
22640WAT     H268163   8.498   8.851   5.253
22641WAT      O68164   7.320   2.636   3.136
22641WAT     H168165   7.254   2.582   3.188
22641WAT     H268166   7.380   2.686   3.199
22642WAT      O68167   3.852   8.498   8.674
22642WAT     H168168   3.940   8.458   8.700
22642WAT     H268169   3.797   8.512   8.757
22643WAT      O68170   7.304   7.099   8.629
22643WAT     H168171   7.215   7.144   8.638
22643WAT     H268172   7.375   7.157   8.669
22644WAT      O68173   2.863   9.786   3.656
22644WAT     H168174   2.780   9.731   3.670
22644WAT     H268175   2.930   9.731   3.605
22645WAT      O68176   5.220   3.451   7.371
22645WAT     H168177   5.286   3.512   7.327
22645WAT     H268178   5.173   3.500   7.444
22646WAT      O68179   3.244   4.227   8.248
22646WAT     H168180   3.338   4.256   8.233
22646WAT     H268181   3.206   4.275   8.327
22647WAT      O68182   6.237   0.776   4.554
22647WAT     H168183   6.297   0.697   4.540
22647WAT     H268184   6.142   0.747   4.549
22648WAT      O68185   3.594   0.267   7.243
22648WAT     H168186   3.655   0.263   7.163
22648WAT     H268187   3.583   0.176   7.282
22649WAT      O68188   5.969   7.011   5.934
22649WAT     H168189   6.062   7.044   5.952
22649WAT     H268190   5.920   7.080   5.881
22650WAT      O68191   6.196   1.280   9.789
22650WAT     H168192   6.167   1.278   9.885
22650WAT     H268193   6.293   1.260   9.783
22651WAT      O68194   5.190   5.960   8.026
22651WAT     H168195   5.213   6.011   7.943
22651WAT     H268196   5.094   5.977   8.050
22652WAT      O68197   6.279   0.851   7.213
22652WAT     H168198   6.199   0.821   7.265
22652WAT     H268199   6.265   0.831   7.116
22653WAT      O68200   6.243   1.318   8.548
22653WAT     H168201   6.229   1.412   8.518
22653WAT     H268202   6.159   1.285   8.592
22654WAT      O68203   9.678   7.161   1.328
22654WAT     H168204   9.758   7.218   1.311
22654WAT     H268205   9.707   7.072   1.362
22655WAT      O68206   9.127   0.884   9.243
22655WAT     H168207   9.123   0.839   9.154
22655WAT     H268208   9.054   0.951   9.250
22656WAT      O68209   8.067   9.488   7.270
22656WAT     H168210   8.150   9.446   7.232
22656WAT     H268211   8.008   9.416   7.307
22657WAT      O68212   9.290   1.334   6.431
22657WAT     H168213   9.309   1.379   6.343
22657WAT     H268214   9.251   1.243   6.413
22658WAT      O68215   1.709   2.805   0.214
22658WAT     H168216   1.739   2.857   0.135
22658WAT     H268217   1.695   2.866   0.292
22659WAT      O68218   0.615   4.376   6.538
22659WAT     H168219   0.600   4.463   6.492
22659WAT     H268220   0.527   4.336   6.564
22660WAT      O68221   1.241   6.500   6.396
22660WAT     H168222   1.285   6.585   6.425
22660WAT     H268223   1.308   6.439   6.356
22661WAT      O68224   8.848   0.330   5.276
22661WAT     H168225   8.827   0.381   5.193
22661WAT     H268226   8.946   0.334   5.295
22662WAT      O68227   5.424   0.763   0.988
22662WAT     H168228   5.429   0.836   0.919
22662WAT     H268229   5.410   0.805   1.079
22663WAT      O68230   3.516   2.732   7.735
22663WAT     H168231   3.446   2.661   7.734
22663WAT     H268232   3.591   2.705   7.795
22664WAT      O68233   1.604   4.132   3.375
22664WAT     H168234   1.629   4.035   3.378
22664WAT     H268235   1.679   4.186   3.413
22665WAT      O68236   7.814   0.263   4.269
22665WAT     H168237   7.812   0.213   4.182
22665WAT     H268238   7.884   0.333   4.267
22666WAT      O68239   4.805   0.060   0.290
22666WAT     H168240   4.770   0.000   0.362
22666WAT     H268241   4.864   0.130   0.331
22667WAT      O68242   2.036   8.363   1.817
22667WAT     H168243   2.107   8.307   1.860
22667WAT     H268244   2.044   8.457   1.849
22668WAT      O68245   4.396   2.987   7.396
22668WAT     H168246   4.350   3.043   7.327
22668WAT     H268247   4.413   3.041   7.478
22669WAT      O68248   9.266   2.224   0.269
22669WAT     H168249   9.251   2.314   0.228
22669WAT     H268250   9.178   2.182   0.291
22670WAT      O68251   2.440   1.189   1.392
22670WAT     H168252   2.518   1.130   1.412
22670WAT     H268253   2.413   1.238   1.475
22671WAT      O68254   4.370   1.900   5.723
22671WAT     H168255   4.357   1.804   5.748
22671WAT     H268256   4.468   1.917   5.708
22672WAT      O68257   3.015   9.223   0.537
22672WAT     H168258   2.980   9.302   0.585
22672WAT     H268259   2.947   9.149   0.538
22673WAT      O68260   9.547   6.515   3.070
22673WAT     H168261   9.463   6.547   3.025
22673WAT     H268262   9.523   6.455   3.146
22674WAT      O68263   1.539   1.435   6.653
22674WAT     H168264   1.471   1.469   6.588
22674WAT     H268265   1.558   1.505   6.721
22675WAT      O68266   3.234   2.761   1.509
22675WAT     H168267   3.184   2.715   1.581
22675WAT     H268268   3.199   2.854   1.497
22676WAT      O68269   4.046   4.312   1.134
22676WAT     H168270   3.957   4.354   1.154
22676WAT     H268271   4.079   4.346   1.046
22677WAT      O68272   4.248   7.249   2.142
22677WAT     H168273   4.154   7.260   2.109
22677WAT     H268274   4.283   7.337   2.174
22678WAT      O68275   8.644   2.535   8.966
22678WAT     H168276   8.595   2.448   8.975
22678WAT     H268277   8.698   2.552   9.048
22679WAT      O68278   3.333   5.109   8.798
22679WAT     H168279   3.424   5.111   8.840
22679WAT     H268280   3.271   5.167   8.851
22680WAT      O68281   6.731   7.802   6.828
22680WAT     H168282   6.783   7.880   6.862
22680WAT     H268283   6.657   7.781   6.892
22681WAT      O68284   6.326   3.657   0.936
22681WAT     H168285   6.330   3.756   0.925
22681WAT     H268286   6.414   3.622   0.968
22682WAT      O68287   4.306   9.394   4.458
22682WAT     H168288   4.223   9.399   4.402
22682WAT     H268289   4.305   9.468   4.525
22683WAT      O68290   0.477   5.976   1.888
22683WAT     H168291   0.472   5.888   1.840
22683WAT     H268292   0.397   5.986   1.946
22684WAT      O68293   1.836   0.549   4.318
22684WAT     H168294   1.744   0.566   4.282
22684WAT     H268295   1.855   0.614   4.392
22685WAT      O68296   7.000   6.201   5.903
22685WAT     H168297   7.083   6.244   5.868
22685WAT     H268298   7.019   6.104   5.922
22686WAT      O68299   6.711   5.614   5.443
22686WAT     H168300   6.809   5.604   5.427
22686WAT     H268301   6.694   5.615   5.542
22687WAT      O68302   5.352   7.213   3.133
22687WAT     H168303   5.292   7.147   3.179
22687WAT     H268304   5.325   7.222   3.037
22688WAT      O68305   7.909   1.984   6.667
22688WAT     H168306   7.991   1.973   6.724
22688WAT     H268307   7.856   1.900   6.668
22689WAT      O68308   1.643   5.275   4.156
22689WAT     H168309   1.610   5.357   4.201
22689WAT     H268310   1.679   5.212   4.224
22690WAT      O68311   1.271   7.481   9.198
22690WAT     H168312   1.211   7.402   9.188
22690WAT     H268313   1.216   7.564   9.206
22691WAT      O68314   2.864   1.927   1.433
22691WAT     H168315   2.826   1.849   1.482
22691WAT     H268316   2.821   2.011   1.466
22692WAT      O68317   6.373   0.684   2.102
22692WAT     H168318   6.340   0.600   2.146
22692WAT     H268319   6.379   0.669   2.003
22693WAT      O68320   6.621   0.193   3.361
22693WAT     H168321   6.707   0.144   3.375
22693WAT     H268322   6.611   0.264   3.430
22694WAT      O68323   0.096   2.115   7.937
22694WAT     H168324   0.020   2.136   7.875
22694WAT     H268325   0.064   2.054   8.010
22695WAT      O68326   3.149   3.673   8.147
22695WAT     H168327   3.189   3.589   8.185
22695WAT     H268328   3.203   3.752   8.176
22696WAT      O68329   3.791   2.062   9.491
22696WAT     H168330   3.714   2.064   9.555
22696WAT     H268331   3.758   2.086   9.399
22697WAT      O68332   3.944   3.651   0.437
22697WAT     H168333   3.951   3.602   0.350
22697WAT     H268334   3.912   3.588   0.508
22698WAT      O68335   2.370   7.605   7.744
22698WAT     H168336   2.386   7.516   7.702
22698WAT     H268337   2.366   7.595   7.844
22699WAT      O68338   7.666   4.230   2.562
22699WAT     H168339   7.746   4.234   2.502
22699WAT     H268340   7.631   4.322   2.577
22700WAT      O68341   6.964   2.480   1.445
22700WAT     H168342   7.007   2.391   1.459
22700WAT     H268343   7.034   2.551   1.450
22701WAT      O68344   9.625   9.090   4.951
22701WAT     H168345   9.575   9.064   4.868
22701WAT     H268346   9.561   9.101   5.027
22702WAT      O68347   4.298   7.336   5.771
22702WAT     H168348   4.242   7.401   5.720
22702WAT     H268349   4.348   7.383   5.843
22703WAT      O68350   1.791   2.520   6.239
22703WAT     H168351   1.755   2.613   6.228
22703WAT     H268352   1.723   2.464   6.287
22704WAT      O68353   2.059   6.625   1.070
22704WAT     H168354   2.038   6.579   1.156
22704WAT     H268355   2.082   6.721   1.088
22705WAT      O68356   4.568   1.222   1.361
22705WAT     H168357   4.659   1.264   1.361
22705WAT     H268358   4.557   1.166   1.443
22706WAT      O68359   6.500   2.647   5.914
22706WAT     H168360   6.494   2.742   5.883
22706WAT     H268361   6.510   2.644   6.013
22707WAT      O68362   1.348   4.562   4.189
22707WAT     H168363   1.369   4.649   4.232
22707WAT     H268364   1.263   4.525   4.227
22708WAT      O68365   1.721   1.358   6.237
22708WAT     H168366   1.652   1.428   6.256
22708WAT     H268367   1.678   1.268   6.235
22709WAT      O68368   6.853   7.224   4.029
22709WAT     H168369   6.769   7.181   3.996
22709WAT     H268370   6.880   7.296   3.966
22710WAT      O68371   7.518   1.244   8.024
22710WAT     H168372   7.609   1.241   7.982
22710WAT     H268373   7.456   1.295   7.964
22711WAT      O68374   4.097   4.853   3.655
22711WAT     H168375   4.017   4.893   3.699
22711WAT     H268376   4.180   4.890   3.695
22712WAT      O68377   8.742   7.069   6.477
22712WAT     H168378   8.670   7.071   6.546
22712WAT     H268379   8.711   7.015   6.399
22713WAT      O68380   1.124   6.164   7.603
22713WAT     H168381   1.162   6.113   7.680
22713WAT     H268382   1.030   6.190   7.623
22714WAT      O68383   4.672   2.179   9.056
22714WAT     H168384   4.752   2.189   8.996
22714WAT     H268385   4.595   2.144   9.003
22715WAT      O68386   1.288   5.031   6.612
22715WAT     H168387   1.287   4.943   6.660
22715WAT     H268388   1.279   5.105   6.677
22716WAT      O68389   9.265   1.506   6.662
22716WAT     H168390   9.270   1.425   6.604
22716WAT     H268391   9.220   1.580   6.612
22717WAT      O68392   0.892   5.599   1.702
22717WAT     H168393   0.865   5.688   1.740
22717WAT     H268394   0.815   5.536   1.708
22718WAT      O68395   2.520   1.836   8.596
22718WAT     H168396   2.504   1.779   8.516
22718WAT     H268397   2.433   1.869   8.631
22719WAT      O68398   5.887   2.283   9.395
22719WAT     H168399   5.912   2.274   9.299
22719WAT     H268400   5.799   2.330   9.401
22720WAT      O68401   0.221   9.514   8.770
22720WAT     H168402   0.257   9.543   8.681
22720WAT     H268403   0.297   9.487   8.829
22721WAT      O68404   9.264   6.365   6.493
22721WAT     H168405   9.284   6.442   6.433
22721WAT     H268406   9.296   6.280   6.450
22722WAT      O68407   7.486   7.207   3.692
22722WAT     H168408   7.465   7.265   3.612
22722WAT     H268409   7.414   7.217   3.760
22723WAT      O68410   4.277   7.398   1.477
22723WAT     H168411   4.365   7.377   1.519
22723WAT     H268412   4.204   7.389   1.544
22724WAT      O68413   7.090   5.467   8.619
22724WAT     H168414   7.185   5.468   8.649
22724WAT     H268415   7.084   5.431   8.526
22725WAT      O68416   7.155   3.664   2.731
22725WAT     H168417   7.098   3.641   2.810
22725WAT     H268418   7.125   3.751   2.692
22726WAT      O68419   5.767   7.164   3.611
22726WAT     H168420   5.689   7.163   3.548
22726WAT     H268421   5.733   7.162   3.705
22727WAT      O68422   4.552   3.780   4.491
22727WAT     H168423   4.485   3.706   4.504
22727WAT     H268424   4.504   3.868   4.489
22728WAT      O68425   0.499   9.299   0.707
22728WAT     H168426   0.599   9.301   0.697
22728WAT     H268427   0.465   9.208   0.682
22729WAT      O68428   7.221   7.285   1.864
22729WAT     H168429   7.213   7.227   1.945
22729WAT     H268430   7.287   7.244   1.801
22730WAT      O68431   3.341   1.743   9.530
22730WAT     H168432   3.367   1.718   9.437
22730WAT     H268433   3.393   1.688   9.595
22731WAT      O68434   0.653   9.045   7.564
22731WAT     H168435   0.629   8.999   7.478
22731WAT     H268436   0.682   8.978   7.631
22732WAT      O68437   2.493   2.388   7.310
22732WAT     H168438   2.454   2.445   7.238
22732WAT     H268439   2.423   2.326   7.346
22733WAT      O68440   2.606   9.220   3.245
22733WAT     H168441   2.556   9.306   3.257
22733WAT     H268442   2.695   9.227   3.291
22734WAT      O68443   2.833   2.371   7.971
22734WAT     H168444   2.738   2.342   7.963
22734WAT     H268445   2.892   2.290   7.978
22735WAT      O68446   2.160   1.231   3.764
22735WAT     H168447   2.116   1.170   3.830
22735WAT     H268448   2.153   1.193   3.672
22736WAT      O68449   5.114   8.625   7.988
22736WAT     H168450   5.066   8.710   8.009
22736WAT     H268451   5.078   8.551   8.045
22737WAT      O68452   4.508   3.859   5.546
22737WAT     H168453   4.410   3.858   5.524
22737WAT     H268454   4.540   3.953   5.554
22738WAT      O68455   4.364   8.308   5.759
22738WAT     H168456   4.335   8.244   5.688
22738WAT     H268457   4.285   8.338   5.811
22739WAT      O68458   9.599   5.376   1.359
22739WAT     H168459   9.689   5.334   1.372
22739WAT     H268460   9.555   5.338   1.278
22740WAT      O68461   8.246   5.902   5.701
22740WAT     H168462   8.254   5.961   5.781
22740WAT     H268463   8.156   5.916   5.659
22741WAT      O68464   7.829   3.979   8.472
22741WAT     H168465   7.808   4.063   8.423
22741WAT     H268466   7.864   3.911   8.408
22742WAT      O68467   0.162   0.341   9.747
22742WAT     H168468   0.252   0.307   9.774
22742WAT     H268469   0.146   0.431   9.787
22743WAT      O68470   2.684   1.270   0.544
22743WAT     H168471   2.637   1.219   0.472
22743WAT     H268472   2.691   1.366   0.518
22744WAT      O68473   2.983   0.375   1.658
22744WAT     H168474   3.044   0.341   1.586
22744WAT     H268475   3.017   0.347   1.747
22745WAT      O68476   4.877   5.108   5.613
22745WAT     H168477   4.939   5.111   5.692
22745WAT     H268478   4.855   5.201   5.585
22746WAT      O68479   3.655   9.473   2.598
22746WAT     H168480   3.631   9.506   2.507
22746WAT     H268481   3.572   9.465   2.654
22747WAT      O68482   4.928   9.371   8.952
22747WAT     H168483   4.960   9.417   9.035
22747WAT     H268484   5.003   9.318   8.912
22748WAT      O68485   5.919   6.490   2.750
22748WAT     H168486   5.850   6.560   2.735
22748WAT     H268487   5.981   6.487   2.672
22749WAT      O68488   1.946   6.061   9.152
22749WAT     H168489   2.010   6.123   9.106
22749WAT     H268490   1.995   6.010   9.223
22750WAT      O68491   0.088   6.062   4.117
22750WAT     H168492   0.112   6.036   4.210
22750WAT     H268493   0.083   6.162   4.110
22751WAT      O68494   1.548   9.532   1.085
22751WAT     H168495   1.612   9.491   1.020
22751WAT     H268496   1.454   9.508   1.060
22752WAT      O68497   7.494   9.050   7.540
22752WAT     H168498   7.572   9.042   7.478
22752WAT     H268499   7.413   9.010   7.497
22753WAT      O68500   7.994   3.066   8.812
22753WAT     H168501   8.003   3.069   8.911
22753WAT     H268502   7.899   3.047   8.787
22754WAT      O68503   2.339   3.089   0.100
22754WAT     H168504   2.277   3.124   0.030
22754WAT     H268505   2.338   2.989   0.098
22755WAT      O68506   9.792   4.954   2.479
22755WAT     H168507   9.799   4.929   2.382
22755WAT     H268508   9.821   4.877   2.535
22756WAT      O68509   6.998   4.525   1.469
22756WAT     H168510   6.939   4.505   1.547
22756WAT     H268511   7.093   4.507   1.493
22757WAT      O68512   6.903   2.340   1.702
22757WAT     H168513   6.875   2.436   1.705
22757WAT     H268514   6.929   2.316   1.608
22758WAT      O68515   6.747   5.463   9.054
22758WAT     H168516   6.673   5.405   9.088
22758WAT     H268517   6.829   5.408   9.040
22759WAT      O68518   1.065   6.430   0.707
22759WAT     H168519   1.035   6.437   0.802
22759WAT     H268520   1.163   6.450   0.701
22760WAT      O68521   4.615   0.357   1.842
22760WAT     H168522   4.607   0.408   1.757
22760WAT     H268523   4.680   0.282   1.830
22761WAT      O68524   3.196   4.809   7.856
22761WAT     H168525   3.168   4.806   7.952
22761WAT     H268526   3.290   4.776   7.849
22762WAT      O68527   6.044   6.171   8.826
22762WAT     H168528   6.001   6.240   8.884
22762WAT     H268529   6.051   6.085   8.877
22763WAT      O68530   9.823   9.510   3.899
22763WAT     H168531   9.733   9.474   3.876
22763WAT     H268532   9.813   9.591   3.956
22764WAT      O68533   6.871   8.747   9.751
22764WAT     H168534   6.915   8.760   9.662
22764WAT     H268535   6.901   8.819   9.813
22765WAT      O68536   4.915   2.332   4.933
22765WAT     H168537   5.009   2.333   4.967
22765WAT     H268538   4.896   2.244   4.891
22766WAT      O68539   7.954   8.517   3.946
22766WAT     H168540   8.010   8.596   3.968
22766WAT     H268541   7.933   8.466   4.029
22767WAT      O68542   9.873   7.363   4.511
22767WAT     H168543   9.854   7.456   4.544
22767WAT     H268544   9.894   7.367   4.413
22768WAT      O68545   0.496   0.218   9.167
22768WAT     H168546   0.463   0.135   9.211
22768WAT     H268547   0.586   0.241   9.203
22769WAT      O68548   0.677   5.508   2.564
22769WAT     H168549   0.643   5.583   2.621
22769WAT     H268550   0.765   5.476   2.599
22770WAT      O68551   2.204   8.334   0.666
22770WAT     H168552   2.296   8.300   0.645
22770WAT     H268553   2.136   8.269   0.632
22771WAT      O68554   8.553   8.103   4.035
22771WAT     H168555   8.514   8.089   4.125
22771WAT     H268556   8.540   8.198   4.006
22772WAT      O68557   6.993   4.102   1.565
22772WAT     H168558   7.083   4.141   1.548
22772WAT     H268559   6.948   4.081   1.477
22773WAT      O68560   2.111   4.554   4.049
22773WAT     H168561   2.165   4.637   4.035
22773WAT     H268562   2.019   4.579   4.080
22774WAT      O68563   2.010   4.431   6.109
22774WAT     H168564   2.075   4.357   6.124
22774WAT     H268565   2.024   4.502   6.178
22775WAT      O68566   6.335   7.915   9.144
22775WAT     H168567   6.237   7.930   9.126
22775WAT     H268568   6.363   7.828   9.103
22776WAT      O68569   4.523   2.473   1.684
22776WAT     H168570   4.548   2.453   1.779
22776WAT     H268571   4.585   2.541   1.647
22777WAT      O68572   3.719   7.416   0.421
22777WAT     H168573   3.722   7.426   0.322
22777WAT     H268574   3.648   7.476   0.458
22778WAT      O68575   3.754   8.420   6.336
22778WAT     H168576   3.793   8.339   6.293
22778WAT     H268577   3.693   8.392   6.410
22779WAT      O68578   4.332   6.985   1.242
22779WAT     H168579   4.308   6.904   1.188
22779WAT     H268580   4.252   7.013   1.296
22780WAT      O68581   0.416   9.753   7.257
22780WAT     H168582   0.403   9.814   7.179
22780WAT     H268583   0.373   9.793   7.338
22781WAT      O68584   0.744   5.723   6.645
22781WAT     H168585   0.722   5.628   6.667
22781WAT     H268586   0.748   5.777   6.729
22782WAT      O68587   0.270   5.496   5.287
22782WAT     H168588   0.248   5.442   5.206
22782WAT     H268589   0.343   5.450   5.338
22783WAT      O68590   0.543   5.467   8.608
22783WAT     H168591   0.612   5.460   8.680
22783WAT     H268592   0.484   5.546   8.626
22784WAT      O68593   9.597   3.398   1.505
22784WAT     H168594   9.533   3.369   1.576
22784WAT     H268595   9.632   3.318   1.457
22785WAT      O68596   1.502   2.362   2.676
22785WAT     H168597   1.454   2.300   2.614
22785WAT     H268598   1.437   2.429   2.714
22786WAT      O68599   7.025   1.446   8.357
22786WAT     H168600   7.125   1.436   8.362
22786WAT     H268601   7.002   1.544   8.355
22787WAT      O68602   0.995   6.817   8.576
22787WAT     H168603   1.002   6.764   8.660
22787WAT     H268604   1.026   6.911   8.593
22788WAT      O68605   8.811   5.455   8.810
22788WAT     H168606   8.757   5.377   8.842
22788WAT     H268607   8.903   5.424   8.786
22789WAT      O68608   8.233   8.955   9.886
22789WAT     H168609   8.238   9.005   9.972
22789WAT     H268610   8.255   9.017   9.810
22790WAT      O68611   7.223   0.299   7.019
22790WAT     H168612   7.231   0.205   7.052
22790WAT     H268613   7.127   0.326   7.016
22791WAT      O68614   4.833   0.732   2.542
22791WAT     H168615   4.750   0.681   2.519
22791WAT     H268616   4.809   0.826   2.566
22792WAT      O68617   6.884   4.812   2.659
22792WAT     H168618   6.814   4.808   2.588
22792WAT     H268619   6.908   4.907   2.677
22793WAT      O68620   1.770   5.144   7.185
22793WAT     H168621   1.687   5.108   7.144
22793WAT     H268622   1.806   5.078   7.250
22794WAT      O68623   5.962   4.343   4.537
22794WAT     H168624   5.999   4.340   4.630
22794WAT     H268625   5.947   4.438   4.510
22795WAT      O68626   2.580   0.926   3.186
22795WAT     H168627   2.548   0.835   3.213
22795WAT     H268628   2.621   0.971   3.265
22796WAT      O68629   1.534   1.501   7.529
22796WAT     H168630   1.569   1.431   7.592
22796WAT     H268631   1.522   1.460   7.438
22797WAT      O68632   8.219   6.924   2.205
22797WAT     H168633   8.252   6.876   2.285
22797WAT     H268634   8.278   7.004   2.187
22798WAT      O68635   8.461   6.396   1.507
22798WAT     H168636   8.492   6.371   1.599
22798WAT     H268637   8.364   6.372   1.498
22799WAT      O68638   7.849   9.194   1.562
22799WAT     H168639   7.920   9.248   1.606
22799WAT     H268640   7.786   9.255   1.514
22800WAT      O68641   5.729   0.056   4.995
22800WAT     H168642   5.662   0.128   5.010
22800WAT     H268643   5.776   0.035   5.081
22801WAT      O68644   3.306   7.375   4.938
22801WAT     H168645   3.329   7.421   5.023
22801WAT     H268646   3.240   7.301   4.957
22802WAT      O68647   5.189   5.345   7.074
22802WAT     H168648   5.255   5.271   7.082
22802WAT     H268649   5.097   5.307   7.065
22803WAT      O68650   3.741   0.167   7.513
22803WAT     H168651   3.697   0.207   7.432
22803WAT     H268652   3.695   0.081   7.537
22804WAT      O68653   4.385   6.488   2.567
22804WAT     H168654   4.332   6.408   2.593
22804WAT     H268655   4.476   6.482   2.609
22805WAT      O68656   4.269   6.868   6.346
22805WAT     H168657   4.189   6.897   6.397
22805WAT     H268658   4.277   6.922   6.262
22806WAT      O68659   5.228   4.174   8.448
22806WAT     H168660   5.235   4.273   8.462
22806WAT     H268661   5.293   4.128   8.509
22807WAT      O68662   7.218   6.263   5.734
22807WAT     H168663   7.317   6.277   5.745
22807WAT     H268664   7.191   6.285   5.640
22808WAT      O68665   6.713   2.163   1.773
22808WAT     H168666   6.783   2.231   1.751
22808WAT     H268667   6.754   2.071   1.773
22809WAT      O68668   0.747   8.479   8.615
22809WAT     H168669   0.846   8.474   8.624
22809WAT     H268670   0.720   8.452   8.523
22810WAT      O68671   5.069   7.685   7.168
22810WAT     H168672   5.015   7.600   7.160
22810WAT     H268673   5.127   7.695   7.087
22811WAT      O68674   7.690   4.254   1.628
22811WAT     H168675   7.681   4.158   1.603
22811WAT     H268676   7.753   4.263   1.705
22812WAT      O68677   2.485   1.180   0.308
22812WAT     H168678   2.538   1.098   0.287
22812WAT     H268679   2.506   1.251   0.241
22813WAT      O68680   4.658   3.452   2.337
22813WAT     H168681   4.586   3.426   2.402
22813WAT     H268682   4.619   3.456   2.244
22814WAT      O68683   5.004   7.297   3.100
22814WAT     H168684   5.064   7.260   3.030
22814WAT     H268685   4.919   7.330   3.058
22815WAT      O68686   9.256   8.596   8.454
22815WAT     H168687   9.170   8.546   8.464
22815WAT     H268688   9.321   8.540   8.402
22816WAT      O68689   8.370   1.858   6.026
22816WAT     H168690   8.300   1.904   6.080
22816WAT     H268691   8.396   1.773   6.071
22817WAT      O68692   0.409   0.953   6.238
22817WAT     H168693   0.398   1.052   6.244
22817WAT     H268694   0.320   0.911   6.221
22818WAT      O68695   3.962   4.775   9.509
22818WAT     H168696   3.961   4.812   9.416
22818WAT     H268697   3.954   4.849   9.575
22819WAT      O68698   1.152   8.948   4.393
22819WAT     H168699   1.245   8.930   4.358
22819WAT     H268700   1.135   9.046   4.392
22820WAT      O68701   3.726   8.349   3.015
22820WAT     H168702   3.714   8.250   3.024
22820WAT     H268703   3.689   8.379   2.927
22821WAT      O68704   7.391   5.331   3.006
22821WAT     H168705   7.365   5.319   2.910
22821WAT     H268706   7.309   5.337   3.063
22822WAT      O68707   9.220   7.371   2.942
22822WAT     H168708   9.122   7.387   2.929
22822WAT     H268709   9.272   7.434   2.885
22823WAT      O68710   6.160   1.200   6.880
22823WAT     H168711   6.131   1.184   6.974
22823WAT     H268712   6.080   1.222   6.824
22824WAT      O68713   5.228   7.165   1.238
22824WAT     H168714   5.229   7.147   1.139
22824WAT     H268715   5.257   7.259   1.255
22825WAT      O68716   6.739   8.742   6.168
22825WAT     H168717   6.644   8.753   6.140
22825WAT     H268718   6.797   8.803   6.114
22826WAT      O68719   5.530   5.249   4.172
22826WAT     H168720   5.486   5.334   4.201
22826WAT     H268721   5.469   5.172   4.191
22827WAT      O68722   1.257   2.848   4.485
22827WAT     H168723   1.265   2.905   4.403
22827WAT     H268724   1.163   2.849   4.517
22828WAT      O68725   9.691   1.710   5.630
22828WAT     H168726   9.629   1.642   5.592
22828WAT     H268727   9.680   1.713   5.730
22829WAT      O68728   1.926   4.856   0.097
22829WAT     H168729   1.881   4.773   0.132
22829WAT     H268730   2.024   4.840   0.089
22830WAT      O68731   8.843   7.966   4.836
22830WAT     H168732   8.875   8.012   4.753
22830WAT     H268733   8.843   7.867   4.820
22831WAT      O68734   6.956   4.927   3.670
22831WAT     H168735   7.033   4.933   3.607
22831WAT     H268736   6.949   4.834   3.705
22832WAT      O68737   8.911   4.678   5.044
22832WAT     H168738   9.007   4.677   5.071
22832WAT     H268739   8.863   4.749   5.095
22833WAT      O68740   7.179   3.735   8.032
22833WAT     H168741   7.176   3.733   7.933
22833WAT     H268742   7.086   3.748   8.068
22834WAT      O68743   6.035   4.923   6.544
22834WAT     H168744   6.123   4.899   6.503
22834WAT     H268745   5.977   4.968   6.477
22835WAT      O68746   2.891   7.189   1.640
22835WAT     H168747   2.801   7.169   1.602
22835WAT     H268748   2.956   7.120   1.608
22836WAT      O68749   9.204   7.419   2.265
22836WAT     H168750   9.122   7.465   2.233
22836WAT     H268751   9.230   7.454   2.355
22837WAT      O68752   6.352   1.497   2.307
22837WAT     H168753   6.348   1.518   2.405
22837WAT     H268754   6.325   1.402   2.293
22838WAT      O68755   4.761   9.662   9.569
22838WAT     H168756   4.779   9.713   9.654
22838WAT     H268757   4.665   9.673   9.544
22839WAT      O68758   5.030   8.380   3.511
22839WAT     H168759   4.999   8.288   3.485
22839WAT     H268760   5.059   8.429   3.429
22840WAT      O68761   3.176   7.319   2.200
22840WAT     H168762   3.223   7.275   2.276
22840WAT     H268763   3.176   7.418   2.213
22841WAT      O68764   3.672   4.886   0.276
22841WAT     H168765   3.579   4.855   0.291
22841WAT     H268766   3.736   4.822   0.318
22842WAT      O68767   0.105   6.939   3.205
22842WAT     H168768   0.200   6.919   3.227
22842WAT     H268769   0.089   7.037   3.212
22843WAT      O68770   2.970   4.759   8.876
22843WAT     H168771   3.021   4.678   8.905
22843WAT     H268772   2.872   4.741   8.885
22844WAT      O68773   8.024   3.979   2.530
22844WAT     H168774   8.074   3.904   2.486
22844WAT     H268775   8.078   4.063   2.524
22845WAT      O68776   2.184   5.709   3.202
22845WAT     H168777   2.174   5.680   3.107
22845WAT     H268778   2.094   5.721   3.244
22846WAT      O68779   6.578   5.175   1.230
22846WAT     H168780   6.590   5.275   1.223
22846WAT     H268781   6.664   5.130   1.207
22847WAT      O68782   5.088   6.533   6.393
22847WAT     H168783   5.103   6.446   6.440
22847WAT     H268784   5.050   6.599   6.458
22848WAT      O68785   5.572   8.175   8.655
22848WAT     H168786   5.631   8.255   8.655
22848WAT     H268787   5.628   8.092   8.646
22849WAT      O68788   7.640   3.726   0.476
22849WAT     H168789   7.546   3.762   0.475
22849WAT     H268790   7.670   3.717   0.571
22850WAT      O68791   7.281   8.343   7.814
22850WAT     H168792   7.277   8.436   7.780
22850WAT     H268793   7.352   8.336   7.885
22851WAT      O68794   7.701   8.214   9.726
22851WAT     H168795   7.786   8.164   9.743
22851WAT     H268796   7.722   8.303   9.685
22852WAT      O68797   4.415   9.638   3.316
22852WAT     H168798   4.418   9.538   3.318
22852WAT     H268799   4.320   9.668   3.310
22853WAT      O68800   2.966   7.083   1.391
22853WAT     H168801   3.035   7.028   1.438
22853WAT     H268802   2.961   7.054   1.295
22854WAT      O68803   4.088   3.398   5.988
22854WAT     H168804   4.151   3.328   5.956
22854WAT     H268805   4.115   3.428   6.079
22855WAT      O68806   2.328   1.326   3.248
22855WAT     H168807   2.389   1.287   3.179
22855WAT     H268808   2.370   1.318   3.338
22856WAT      O68809   8.362   7.139   2.141
22856WAT     H168810   8.334   7.208   2.207
22856WAT     H268811   8.446   7.168   2.096
22857WAT      O68812   4.173   1.222   5.584
22857WAT     H168813   4.271   1.240   5.583
22857WAT     H268814   4.139   1.219   5.490
22858WAT      O68815   3.967   2.085   7.839
22858WAT     H168816   3.997   2.051   7.749
22858WAT     H268817   4.043   2.132   7.883
22859WAT      O68818   4.734   3.468   8.960
22859WAT     H168819   4.737   3.431   8.867
22859WAT     H268820   4.726   3.568   8.956
22860WAT      O68821   1.217   5.987   7.812
22860WAT     H168822   1.317   5.992   7.804
22860WAT     H268823   1.186   5.898   7.779
22861WAT      O68824   4.183   8.180   2.797
22861WAT     H168825   4.189   8.137   2.887
22861WAT     H268826   4.088   8.182   2.768
22862WAT      O68827   4.766   6.363   9.837
22862WAT     H168828   4.743   6.435   9.903
22862WAT     H268829   4.692   6.352   9.772
22863WAT      O68830   1.274   0.462   3.033
22863WAT     H168831   1.229   0.490   3.117
22863WAT     H268832   1.327   0.538   2.996
22864WAT      O68833   0.570   3.618   1.755
22864WAT     H168834   0.523   3.536   1.722
22864WAT     H268835   0.626   3.594   1.835
22865WAT      O68836   7.385   0.679   3.749
22865WAT     H168837   7.429   0.614   3.811
22865WAT     H268838   7.288   0.658   3.741
22866WAT      O68839   8.516   1.783   3.873
22866WAT     H168840   8.518   1.685   3.851
22866WAT     H268841   8.610   1.817   3.879
22867WAT      O68842   4.983   4.416   0.263
22867WAT     H168843   5.003   4.511   0.286
22867WAT     H268844   4.928   4.374   0.335
22868WAT      O68845   9.650   7.082   8.288
22868WAT     H168846   9.649   7.140   8.207
22868WAT     H268847   9.732   7.100   8.341
22869WAT      O68848   1.553   9.621   9.823
22869WAT     H168849   1.485   9.600   9.893
22869WAT     H268850   1.636   9.569   9.841
22870WAT      O68851   3.458   6.885   5.636
22870WAT     H168852   3.442   6.787   5.628
22870WAT     H268853   3.391   6.935   5.582
22871WAT      O68854   9.485   4.024   4.211
22871WAT     H168855   9.446   3.969   4.137
22871WAT     H268856   9.584   4.029   4.198
22872WAT      O68857   7.546   7.390   2.770
22872WAT     H168858   7.507   7.385   2.862
22872WAT     H268859   7.639   7.353   2.772
22873WAT      O68860   6.397   6.042   5.797
22873WAT     H168861   6.387   6.141   5.809
22873WAT     H268862   6.393   6.019   5.700
22874WAT      O68863   7.795   7.235   4.507
22874WAT     H168864   7.703   7.247   4.544
22874WAT     H268865   7.821   7.315   4.454
22875WAT      O68866   0.283   9.620   7.634
22875WAT     H168867   0.263   9.717   7.619
22875WAT     H268868   0.217   9.582   7.698
22876WAT      O68869   3.150   6.809   3.455
22876WAT     H168870   3.111   6.895   3.421
22876WAT     H268871   3.193   6.759   3.380
22877WAT      O68872   8.468   9.400   4.887
22877WAT     H168873   8.423   9.486   4.860
22877WAT     H268874   8.519   9.363   4.810
22878WAT      O68875   2.130   5.760   4.808
22878WAT     H168876   2.057   5.828   4.794
22878WAT     H268877   2.162   5.764   4.902
22879WAT      O68878   7.165   3.878   9.341
22879WAT     H168879   7.221   3.908   9.419
22879WAT     H268880   7.123   3.958   9.298
22880WAT      O68881   7.134   2.568   2.368
22880WAT     H168882   7.211   2.581   2.432
22880WAT     H268883   7.073   2.646   2.374
22881WAT      O68884   4.745   1.487   3.529
22881WAT     H168885   4.705   1.528   3.447
22881WAT     H268886   4.828   1.536   3.554
22882WAT      O68887   0.890   8.760   1.760
22882WAT     H168888   0.843   8.792   1.677
22882WAT     H268889   0.822   8.745   1.832
22883WAT      O68890   1.836   6.661   4.215
22883WAT     H168891   1.875   6.622   4.298
22883WAT     H268892   1.909   6.699   4.158
22884WAT      O68893   6.712   2.139   5.018
22884WAT     H168894   6.628   2.086   5.005
22884WAT     H268895   6.690   2.224   5.065
22885WAT      O68896   8.935   3.650   6.336
22885WAT     H168897   9.022   3.691   6.308
22885WAT     H268898   8.860   3.709   6.306
22886WAT      O68899   1.773   6.973   7.535
22886WAT     H168900   1.751   7.003   7.442
22886WAT     H268901   1.733   7.037   7.601
22887WAT      O68902   4.359   1.952   7.402
22887WAT     H168903   4.295   2.006   7.348
22887WAT     H268904   4.413   1.893   7.341
22888WAT      O68905   1.570   3.038   8.791
22888WAT     H168906   1.566   3.008   8.887
22888WAT     H268907   1.555   3.137   8.786
22889WAT      O68908   9.681   8.329   5.479
22889WAT     H168909   9.672   8.406   5.416
22889WAT     H268910   9.775   8.295   5.477
22890WAT      O68911   9.446   5.488   2.189
22890WAT     H168912   9.539   5.502   2.157
22890WAT     H268913   9.447   5.453   2.283
22891WAT      O68914   2.373   9.200   6.221
22891WAT     H168915   2.338   9.202   6.127
22891WAT     H268916   2.441   9.127   6.230
22892WAT      O68917   8.634   6.474   5.161
22892WAT     H168918   8.577   6.448   5.239
22892WAT     H268919   8.723   6.505   5.195
22893WAT      O68920   7.724   4.312   8.687
22893WAT     H168921   7.687   4.366   8.611
22893WAT     H268922   7.818   4.340   8.705
22894WAT      O68923   1.503   1.400   2.957
22894WAT     H168924   1.521   1.331   2.886
22894WAT     H268925   1.405   1.406   2.973
22895WAT      O68926   3.488   9.107   5.732
22895WAT     H168927   3.544   9.159   5.668
22895WAT     H268928   3.405   9.074   5.685
22896WAT      O68929   4.318   2.998   5.282
22896WAT     H168930   4.290   2.979   5.376
22896WAT     H268931   4.250   2.962   5.219
22897WAT      O68932   3.139   6.690   7.270
22897WAT     H168933   3.061   6.653   7.220
22897WAT     H268934   3.146   6.788   7.253
22898WAT      O68935   3.765   1.955   7.971
22898WAT     H168936   3.848   1.995   7.933
22898WAT     H268937   3.689   1.966   7.907
22899WAT      O68938   6.651   8.598   3.492
22899WAT     H168939   6.692   8.539   3.562
22899WAT     H268940   6.628   8.687   3.532
22900WAT      O68941   3.536   5.381   0.116
22900WAT     H168942   3.446   5.375   0.072
22900WAT     H268943   3.562   5.477   0.125
22901WAT      O68944   3.565   1.412   3.693
22901WAT     H168945   3.655   1.432   3.654
22901WAT     H268946   3.497   1.411   3.620
22902WAT      O68947   8.523   8.938   8.524
22902WAT     H168948   8.537   8.907   8.618
22902WAT     H268949   8.607   8.980   8.490
22903WAT      O68950   6.341   9.406   7.765
22903WAT     H168951   6.262   9.379   7.710
22903WAT     H268952   6.348   9.505   7.768
22904WAT      O68953   8.352   5.572   8.712
22904WAT     H168954   8.421   5.600   8.779
22904WAT     H268955   8.278   5.639   8.711
22905WAT      O68956   2.644   6.291   3.477
22905WAT     H168957   2.550   6.303   3.508
22905WAT     H268958   2.668   6.363   3.412
22906WAT      O68959   4.832   2.917   9.728
22906WAT     H168960   4.739   2.948   9.708
22906WAT     H268961   4.894   2.946   9.656
22907WAT      O68962   4.607   9.744   1.364
22907WAT     H168963   4.565   9.664   1.406
22907WAT     H268964   4.636   9.808   1.435
22908WAT      O68965   5.260   5.016   6.131
22908WAT     H168966   5.233   4.933   6.083
22908WAT     H268967   5.321   5.070   6.073
22909WAT      O68968   3.443   9.504   1.495
22909WAT     H168969   3.439   9.566   1.417
22909WAT     H268970   3.384   9.425   1.478
22910WAT      O68971   8.331   6.253   7.324
22910WAT     H168972   8.266   6.206   7.265
22910WAT     H268973   8.355   6.341   7.283
22911WAT      O68974   6.948   7.218   1.900
22911WAT     H168975   6.934   7.260   1.811
22911WAT     H268976   7.042   7.234   1.931
22912WAT      O68977   7.687   6.848   5.559
22912WAT     H168978   7.670   6.770   5.499
22912WAT     H268979   7.721   6.925   5.506
22913WAT      O68980   9.472   0.787   7.170
22913WAT     H168981   9.504   0.866   7.221
22913WAT     H268982   9.375   0.798   7.148
22914WAT      O68983   9.661   2.600   6.442
22914WAT     H168984   9.688   2.513   6.481
22914WAT     H268985   9.724   2.672   6.472
22915WAT      O68986   1.219   8.388   7.659
22915WAT     H168987   1.316   8.394   7.679
22915WAT     H268988   1.206   8.331   7.577
22916WAT      O68989   6.215   2.418   8.540
22916WAT     H168990   6.295   2.416   8.600
22916WAT     H268991   6.169   2.506   8.548
22917WAT      O68992   1.788   5.536   8.850
22917WAT     H168993   1.714   5.598   8.820
22917WAT     H268994   1.876   5.575   8.823
22918WAT      O68995   6.356   5.268   9.571
22918WAT     H168996   6.277   5.236   9.518
22918WAT     H268997   6.386   5.196   9.633
22919WAT      O68998   9.044   0.813   4.900
22919WAT     H168999   9.107   0.844   4.971
22919WAT     H269000   8.950   0.830   4.930
22920WAT      O69001   8.068   6.402   7.034
22920WAT     H169002   8.072   6.487   7.088
22920WAT     H269003   7.981   6.398   6.985
22921WAT      O69004   7.535   4.861   0.757
22921WAT     H169005   7.563   4.784   0.814
22921WAT     H269006   7.451   4.837   0.708
22922WAT      O69007   3.745   5.414   3.894
22922WAT     H169008   3.766   5.438   3.799
22922WAT     H269009   3.741   5.497   3.949
22923WAT      O69010   7.719   1.406   8.881
22923WAT     H169011   7.776   1.462   8.822
22923WAT     H269012   7.721   1.443   8.974
22924WAT      O69013   6.027   0.992   9.378
22924WAT     H169014   6.075   0.951   9.456
22924WAT     H269015   6.060   1.085   9.363
22925WAT      O69016   9.676   8.400   2.478
22925WAT     H169017   9.663   8.492   2.443
22925WAT     H269018   9.768   8.368   2.454
22926WAT      O69019   4.995   6.235   4.160
22926WAT     H169020   4.999   6.151   4.214
22926WAT     H269021   5.074   6.292   4.181
22927WAT      O69022   5.109   0.561   6.913
22927WAT     H169023   5.047   0.584   6.989
22927WAT     H269024   5.191   0.517   6.950
22928WAT      O69025   9.637   5.700   3.149
22928WAT     H169026   9.708   5.695   3.219
22928WAT     H269027   9.672   5.665   3.063
22929WAT      O69028   1.293   5.299   7.779
22929WAT     H169029   1.299   5.399   7.780
22929WAT     H269030   1.294   5.266   7.685
22930WAT      O69031   0.245   1.990   5.455
22930WAT     H169032   0.293   2.008   5.369
22930WAT     H269033   0.158   2.038   5.455
22931WAT      O69034   1.443   8.362   1.633
22931WAT     H169035   1.419   8.311   1.716
22931WAT     H269036   1.541   8.352   1.616
22932WAT      O69037   3.279   0.509   3.964
22932WAT     H169038   3.338   0.578   4.006
22932WAT     H269039   3.203   0.488   4.026
22933WAT      O69040   8.278   1.935   4.810
22933WAT     H169041   8.331   1.852   4.797
22933WAT     H269042   8.244   1.939   4.904
22934WAT      O69043   9.355   6.079   9.619
22934WAT     H169044   9.395   6.161   9.660
22934WAT     H269045   9.293   6.036   9.684
22935WAT      O69046   6.507   7.284   5.668
22935WAT     H169047   6.488   7.372   5.624
22935WAT     H269048   6.426   7.226   5.664
22936WAT      O69049   4.660   7.455   3.311
22936WAT     H169050   4.724   7.470   3.387
22936WAT     H269051   4.695   7.501   3.230
22937WAT      O69052   7.854   0.322   1.458
22937WAT     H169053   7.842   0.420   1.440
22937WAT     H269054   7.949   0.305   1.484
22938WAT      O69055   8.882   2.316   2.135
22938WAT     H169056   8.901   2.228   2.091
22938WAT     H269057   8.948   2.332   2.209
22939WAT      O69058   3.061   5.911   8.190
22939WAT     H169059   3.051   6.010   8.194
22939WAT     H269060   2.994   5.873   8.126
22940WAT      O69061   3.560   5.978   1.449
22940WAT     H169062   3.573   5.882   1.425
22940WAT     H269063   3.475   6.012   1.408
22941WAT      O69064   5.149   1.182   9.195
22941WAT     H169065   5.216   1.177   9.121
22941WAT     H269066   5.092   1.100   9.194
22942WAT      O69067   8.768   2.940   5.409
22942WAT     H169068   8.680   2.894   5.397
22942WAT     H269069   8.820   2.933   5.324
22943WAT      O69070   1.098   0.647   7.877
22943WAT     H169071   1.128   0.737   7.844
22943WAT     H269072   1.034   0.607   7.811
22944WAT      O69073   8.087   3.687   5.852
22944WAT     H169074   8.071   3.677   5.950
22944WAT     H269075   8.012   3.644   5.802
22945WAT      O69076   7.674   7.580   2.274
22945WAT     H169077   7.735   7.655   2.249
22945WAT     H269078   7.584   7.617   2.298
22946WAT      O69079   8.474   9.466   0.124
22946WAT     H169080   8.563   9.421   0.119
22946WAT     H269081   8.466   9.514   0.211
22947WAT      O69082   4.730   0.754   7.541
22947WAT     H169083   4.768   0.814   7.612
22947WAT     H269084   4.757   0.788   7.451
22948WAT      O69085   7.679   4.276   0.168
22948WAT     H169086   7.775   4.249   0.159
22948WAT     H269087   7.634   4.270   0.079
22949WAT      O69088   9.155   5.762   8.968
22949WAT     H169089   9.196   5.835   9.023
22949WAT     H269090   9.061   5.786   8.945
22950WAT      O69091   1.211   7.408   5.577
22950WAT     H169092   1.287   7.426   5.515
22950WAT     H269093   1.127   7.394   5.525
22951WAT      O69094   3.606   2.452   6.475
22951WAT     H169095   3.575   2.491   6.561
22951WAT     H269096   3.657   2.521   6.423
22952WAT      O69097   9.475   3.397   7.380
22952WAT     H169098   9.496   3.366   7.473
22952WAT     H269099   9.382   3.369   7.356
22953WAT      O69100   4.466   5.705   1.369
22953WAT     H169101   4.427   5.790   1.402
22953WAT     H269102   4.414   5.673   1.290
22954WAT      O69103   3.318   3.348   9.466
22954WAT     H169104   3.379   3.426   9.455
22954WAT     H269105   3.224   3.379   9.479
22955WAT      O69106   3.663   9.012   3.925
22955WAT     H169107   3.623   9.060   4.004
22955WAT     H269108   3.609   8.931   3.904
22956WAT      O69109   5.736   7.520   4.412
22956WAT     H169110   5.639   7.544   4.403
22956WAT     H269111   5.791   7.595   4.376
22957WAT      O69112   1.718   0.909   0.505
22957WAT     H169113   1.783   0.871   0.439
22957WAT     H269114   1.624   0.894   0.472
22958WAT      O69115   7.024   4.612   7.007
22958WAT     H169116   7.121   4.634   7.020
22958WAT     H269117   6.975   4.693   6.976
22959WAT      O69118   1.822   4.089   9.170
22959WAT     H169119   1.877   4.161   9.127
22959WAT     H269120   1.729   4.093   9.136
22960WAT      O69121   4.034   9.651   6.892
22960WAT     H169122   3.945   9.612   6.866
22960WAT     H269123   4.099   9.636   6.818
22961WAT      O69124   1.084   0.574   1.939
22961WAT     H169125   1.122   0.516   2.011
22961WAT     H269126   1.078   0.522   1.854
22962WAT      O69127   5.260   0.441   8.190
22962WAT     H169128   5.190   0.451   8.261
22962WAT     H269129   5.305   0.528   8.175
22963WAT      O69130   8.130   4.818   9.408
22963WAT     H169131   8.109   4.885   9.337
22963WAT     H269132   8.223   4.832   9.441
22964WAT      O69133   0.937   8.531   8.066
22964WAT     H169134   0.971   8.506   8.156
22964WAT     H269135   0.889   8.619   8.072
22965WAT      O69136   6.539   6.720   0.267
22965WAT     H169137   6.513   6.647   0.331
22965WAT     H269138   6.631   6.703   0.233
22966WAT      O69139   0.181   8.139   9.716
22966WAT     H169140   0.177   8.100   9.807
22966WAT     H269141   0.230   8.226   9.719
22967WAT      O69142   1.107   7.682   9.273
22967WAT     H169143   1.078   7.756   9.333
22967WAT     H269144   1.040   7.669   9.201
22968WAT      O69145   1.585   8.626   7.946
22968WAT     H169146   1.675   8.632   7.903
22968WAT     H269147   1.588   8.669   8.036
22969WAT      O69148   3.892   1.598   4.757
22969WAT     H169149   3.884   1.591   4.857
22969WAT     H269150   3.917   1.691   4.732
22970WAT      O69151   3.748   8.942   4.719
22970WAT     H169152   3.801   8.912   4.640
22970WAT     H269153   3.661   8.893   4.721
22971WAT      O69154   3.703   5.932   4.204
22971WAT     H169155   3.618   5.912   4.253
22971WAT     H269156   3.781   5.899   4.258
22972WAT      O69157   8.255   9.271   8.836
22972WAT     H169158   8.286   9.238   8.748
22972WAT     H269159   8.192   9.205   8.877
22973WAT      O69160   5.658   5.877   2.538
22973WAT     H169161   5.575   5.828   2.564
22973WAT     H269162   5.695   5.925   2.618
22974WAT      O69163   6.178   8.556   0.246
22974WAT     H169164   6.179   8.560   0.146
22974WAT     H269165   6.091   8.593   0.279
22975WAT      O69166   1.130   1.180   5.146
22975WAT     H169167   1.112   1.250   5.215
22975WAT     H269168   1.229   1.175   5.130
22976WAT      O69169   1.855   3.728   8.323
22976WAT     H169170   1.862   3.774   8.235
22976WAT     H269171   1.840   3.630   8.308
22977WAT      O69172   1.933   8.784   0.984
22977WAT     H169173   1.859   8.720   0.966
22977WAT     H269174   2.014   8.734   1.014
22978WAT      O69175   1.052   6.556   4.797
22978WAT     H169176   0.999   6.639   4.781
22978WAT     H269177   0.999   6.477   4.767
22979WAT      O69178   2.513   3.047   7.930
22979WAT     H169179   2.604   3.017   7.901
22979WAT     H269180   2.522   3.114   8.004
22980WAT      O69181   3.226   4.345   6.065
22980WAT     H169182   3.302   4.287   6.033
22980WAT     H269183   3.192   4.309   6.152
22981WAT      O69184   9.832   7.173   6.121
22981WAT     H169185   9.775   7.248   6.152
22981WAT     H269186   9.855   7.114   6.198
22982WAT      O69187   4.067   8.094   8.387
22982WAT     H169188   4.069   8.000   8.419
22982WAT     H269189   4.063   8.096   8.287
22983WAT      O69190   7.512   5.618   2.729
22983WAT     H169191   7.555   5.536   2.767
22983WAT     H269192   7.419   5.626   2.764
22984WAT      O69193   5.050   0.327   9.171
22984WAT     H169194   5.115   0.386   9.218
22984WAT     H269195   4.990   0.284   9.238
22985WAT      O69196   5.429   3.862   2.710
22985WAT     H169197   5.503   3.803   2.742
22985WAT     H269198   5.395   3.827   2.622
22986WAT      O69199   5.521   3.942   9.203
22986WAT     H169200   5.619   3.937   9.221
22986WAT     H269201   5.498   4.032   9.166
22987WAT      O69202   3.892   2.145   2.001
22987WAT     H169203   3.840   2.228   1.978
22987WAT     H269204   3.984   2.153   1.965
22988WAT      O69205   0.963   1.360   1.922
22988WAT     H169206   0.949   1.263   1.939
22988WAT     H269207   0.902   1.390   1.849
22989WAT      O69208   5.333   4.130   9.748
22989WAT     H169209   5.359   4.225   9.734
22989WAT     H269210   5.354   4.077   9.666
22990WAT      O69211   5.733   7.626   6.236
22990WAT     H169212   5.810   7.618   6.173
22990WAT     H269213   5.766   7.618   6.330
22991WAT      O69214   2.980   3.722   7.321
22991WAT     H169215   2.956   3.694   7.228
22991WAT     H269216   3.073   3.758   7.322
22992WAT      O69217   4.567   6.968   7.559
22992WAT     H169218   4.645   6.917   7.594
22992WAT     H269219   4.492   6.965   7.625
22993WAT      O69220   4.877   6.877   5.464
22993WAT     H169221   4.915   6.857   5.554
22993WAT     H269222   4.804   6.812   5.444
22994WAT      O69223   5.168   1.078   7.963
22994WAT     H169224   5.070   1.094   7.967
22994WAT     H269225   5.216   1.160   7.995
22995WAT      O69226   9.210   7.091   7.412
22995WAT     H169227   9.178   7.031   7.486
22995WAT     H269228   9.133   7.123   7.359
22996WAT      O69229   2.116   7.095   8.285
22996WAT     H169230   2.080   7.003   8.299
22996WAT     H269231   2.064   7.140   8.213
22997WAT      O69232   1.102   0.132   9.295
22997WAT     H169233   1.162   0.142   9.374
22997WAT     H269234   1.025   0.072   9.319
22998WAT      O69235   6.207   7.059   5.228
22998WAT     H169236   6.111   7.076   5.204
22998WAT     H269237   6.217   6.965   5.259
22999WAT      O69238   2.120   7.700   8.544
22999WAT     H169239   2.050   7.672   8.478
22999WAT     H269240   2.160   7.619   8.586
23000WAT      O69241   0.798   2.660   1.693
23000WAT     H169242   0.740   2.583   1.667
23000WAT     H269243   0.742   2.732   1.734
23001WAT      O69244   2.584   9.657   3.368
23001WAT     H169245   2.574   9.578   3.428
23001WAT     H269246   2.681   9.675   3.352
23002WAT      O69247   8.900   0.620   2.076
23002WAT     H169248   8.865   0.706   2.114
23002WAT     H269249   8.998   0.629   2.058
23003WAT      O69250   1.984   6.821   6.182
23003WAT     H169251   2.038   6.799   6.263
23003WAT     H269252   1.992   6.919   6.163
23004WAT      O69253   4.680   8.885   6.675
23004WAT     H169254   4.633   8.802   6.644
23004WAT     H269255   4.770   8.862   6.710
23005WAT      O69256   7.880   5.393   9.612
23005WAT     H169257   7.817   5.315   9.608
23005WAT     H269258   7.829   5.478   9.601
23006WAT      O69259   4.010   5.106   3.111
23006WAT     H169260   3.992   5.117   3.013
23006WAT     H269261   3.985   5.014   3.140
23007WAT      O69262   9.319   3.244   1.274
23007WAT     H169263   9.390   3.308   1.245
23007WAT     H269264   9.360   3.172   1.330
23008WAT      O69265   8.719   7.116   1.555
23008WAT     H169266   8.661   7.198   1.558
23008WAT     H269267   8.704   7.067   1.470
23009WAT      O69268   6.580   1.057   4.776
23009WAT     H169269   6.501   0.996   4.788
23009WAT     H269270   6.550   1.152   4.783
23010WAT      O69271   6.634   2.194   0.161
23010WAT     H169272   6.625   2.269   0.096
23010WAT     H269273   6.661   2.231   0.250
23011WAT      O69274   4.133   1.445   2.216
23011WAT     H169275   4.071   1.452   2.295
23011WAT     H269276   4.160   1.350   2.203
23012WAT      O69277   8.914   5.528   6.619
23012WAT     H169278   8.888   5.602   6.558
23012WAT     H269279   8.966   5.459   6.568
23013WAT      O69280   3.041   7.571   5.992
23013WAT     H169281   3.036   7.525   5.903
23013WAT     H269282   3.119   7.535   6.043
23014WAT      O69283   1.219   2.595   3.530
23014WAT     H169284   1.232   2.515   3.471
23014WAT     H269285   1.157   2.571   3.605
23015WAT      O69286   4.817   6.081   4.422
23015WAT     H169287   4.877   6.052   4.348
23015WAT     H269288   4.838   6.175   4.448
23016WAT      O69289   7.218   2.082   8.763
23016WAT     H169290   7.229   2.101   8.860
23016WAT     H269291   7.302   2.041   8.727
23017WAT      O69292   8.443   1.664   5.269
23017WAT     H169293   8.419   1.710   5.355
23017WAT     H269294   8.495   1.581   5.289
23018WAT      O69295   0.233   3.022   3.684
23018WAT     H169296   0.228   3.120   3.700
23018WAT     H269297   0.241   3.004   3.586
23019WAT      O69298   3.485   3.001   6.277
23019WAT     H169299   3.459   3.004   6.373
23019WAT     H269300   3.578   3.038   6.266
23020WAT      O69301   1.853   2.246   8.544
23020WAT     H169302   1.857   2.316   8.614
23020WAT     H269303   1.849   2.156   8.587
23021WAT      O69304   2.078   1.909   9.724
23021WAT     H169305   2.075   1.885   9.627
23021WAT     H269306   2.163   1.875   9.765
23022WAT      O69307   5.128   7.405   3.494
23022WAT     H169308   5.116   7.489   3.548
23022WAT     H269309   5.220   7.404   3.456
23023WAT      O69310   0.779   5.431   0.564
23023WAT     H169311   0.697   5.378   0.586
23023WAT     H269312   0.797   5.425   0.466
23024WAT      O69313   5.037   2.684   7.078
23024WAT     H169314   4.986   2.634   7.007
23024WAT     H269315   5.072   2.619   7.145
23025WAT      O69316   8.415   9.008   1.729
23025WAT     H169317   8.497   9.011   1.786
23025WAT     H269318   8.353   9.083   1.755
23026WAT      O69319   9.804   8.808   0.822
23026WAT     H169320   9.833   8.796   0.727
23026WAT     H269321   9.795   8.905   0.843
23027WAT      O69322   3.597   5.239   6.578
23027WAT     H169323   3.604   5.178   6.499
23027WAT     H269324   3.658   5.206   6.651
23028WAT      O69325   8.482   3.180   8.382
23028WAT     H169326   8.499   3.122   8.462
23028WAT     H269327   8.405   3.241   8.401
23029WAT      O69328   8.632   2.827   4.578
23029WAT     H169329   8.686   2.890   4.522
23029WAT     H269330   8.557   2.877   4.622
23030WAT      O69331   7.255   3.302   4.417
23030WAT     H169332   7.262   3.227   4.483
23030WAT     H269333   7.312   3.379   4.447
23031WAT      O69334   8.958   6.061   3.246
23031WAT     H169335   8.974   6.136   3.181
23031WAT     H269336   8.990   6.089   3.337
23032WAT      O69337   5.852   4.443   9.694
23032WAT     H169338   5.883   4.503   9.768
23032WAT     H269339   5.835   4.497   9.612
23033WAT      O69340   1.056   0.431   1.022
23033WAT     H169341   1.146   0.473   1.027
23033WAT     H269342   1.040   0.376   1.104
23034WAT      O69343   7.190   7.920   4.378
23034WAT     H169344   7.254   7.934   4.454
23034WAT     H269345   7.167   7.822   4.372
23035WAT      O69346   9.078   1.404   2.441
23035WAT     H169347   9.074   1.421   2.343
23035WAT     H269348   9.104   1.489   2.488
23036WAT      O69349   8.381   7.346   2.656
23036WAT     H169350   8.333   7.369   2.741
23036WAT     H269351   8.442   7.422   2.631
23037WAT      O69352   8.561   4.282   7.005
23037WAT     H169353   8.653   4.268   6.967
23037WAT     H269354   8.493   4.265   6.935
23038WAT      O69355   1.453   6.454   7.476
23038WAT     H169356   1.354   6.446   7.471
23038WAT     H269357   1.493   6.433   7.387
23039WAT      O69358   2.804   5.145   2.266
23039WAT     H169359   2.822   5.052   2.234
23039WAT     H269360   2.706   5.164   2.260
23040WAT      O69361   6.276   5.071   7.969
23040WAT     H169362   6.374   5.053   7.962
23040WAT     H269363   6.261   5.148   8.030
23041WAT      O69364   5.382   3.308   7.815
23041WAT     H169365   5.449   3.345   7.751
23041WAT     H269366   5.291   3.312   7.774
23042WAT      O69367   2.641   4.386   7.200
23042WAT     H169368   2.556   4.437   7.211
23042WAT     H269369   2.694   4.425   7.124
23043WAT      O69370   6.668   2.425   7.272
23043WAT     H169371   6.570   2.433   7.287
23043WAT     H269372   6.714   2.504   7.312
23044WAT      O69373   8.913   5.634   2.448
23044WAT     H169374   8.999   5.621   2.497
23044WAT     H269375   8.922   5.598   2.355
23045WAT      O69376   4.872   3.900   1.000
23045WAT     H169377   4.850   3.997   0.992
23045WAT     H269378   4.872   3.858   0.908
23046WAT      O69379   8.669   6.049   3.226
23046WAT     H169380   8.642   6.087   3.138
23046WAT     H269381   8.767   6.029   3.224
23047WAT      O69382   1.834   3.393   6.937
23047WAT     H169383   1.920   3.360   6.975
23047WAT     H269384   1.757   3.347   6.982
23048WAT      O69385   2.325   5.160   0.751
23048WAT     H169386   2.320   5.084   0.687
23048WAT     H269387   2.380   5.234   0.711
23049WAT      O69388   0.926   3.922   3.272
23049WAT     H169389   0.880   3.881   3.351
23049WAT     H269390   0.867   3.992   3.232
23050WAT      O69391   1.551   0.428   7.310
23050WAT     H169392   1.513   0.385   7.392
23050WAT     H269393   1.479   0.476   7.260
23051WAT      O69394   3.986   5.776   0.559
23051WAT     H169395   3.971   5.734   0.470
23051WAT     H269396   3.914   5.843   0.577
23052WAT      O69397   3.058   8.951   3.771
23052WAT     H169398   3.065   8.878   3.703
23052WAT     H269399   3.092   8.917   3.859
23053WAT      O69400   3.953   9.546   8.934
23053WAT     H169401   3.913   9.486   8.864
23053WAT     H269402   3.944   9.503   9.024
23054WAT      O69403   9.494   6.356   8.152
23054WAT     H169404   9.394   6.359   8.156
23054WAT     H269405   9.528   6.444   8.120
23055WAT      O69406   7.852   8.722   1.730
23055WAT     H169407   7.776   8.751   1.787
23055WAT     H269408   7.931   8.781   1.748
23056WAT      O69409   0.297   7.207   7.180
23056WAT     H169410   0.272   7.184   7.274
23056WAT     H269411   0.237   7.159   7.117
23057WAT      O69412   0.678   4.300   1.679
23057WAT     H169413   0.593   4.338   1.641
23057WAT     H269414   0.682   4.202   1.661
23058WAT      O69415   8.396   8.638   4.891
23058WAT     H169416   8.472   8.604   4.836
23058WAT     H269417   8.327   8.567   4.900
23059WAT      O69418   9.854   3.924   8.880
23059WAT     H169419   9.869   4.016   8.918
23059WAT     H269420   9.758   3.898   8.895
23060WAT      O69421   7.719   2.113   9.500
23060WAT     H169422   7.756   2.024   9.472
23060WAT     H269423   7.654   2.144   9.430
23061WAT      O69424   4.836   2.417   2.310
23061WAT     H169425   4.802   2.479   2.381
23061WAT     H269426   4.761   2.361   2.276
23062WAT      O69427   8.148   4.331   8.814
23062WAT     H169428   8.134   4.255   8.877
23062WAT     H269429   8.139   4.418   8.864
23063WAT      O69430   1.485   7.377   1.713
23063WAT     H169431   1.543   7.303   1.680
23063WAT     H269432   1.496   7.457   1.655
23064WAT      O69433   4.834   3.494   6.237
23064WAT     H169434   4.860   3.430   6.310
23064WAT     H269435   4.825   3.444   6.151
23065WAT      O69436   6.028   9.195   9.684
23065WAT     H169437   6.025   9.229   9.778
23065WAT     H269438   6.114   9.223   9.642
23066WAT      O69439   1.022   4.400   0.901
23066WAT     H169440   0.982   4.310   0.886
23066WAT     H269441   0.971   4.447   0.973
23067WAT      O69442   1.002   6.409   6.317
23067WAT     H169443   1.098   6.420   6.340
23067WAT     H269444   0.946   6.439   6.395
23068WAT      O69445   1.517   7.495   6.962
23068WAT     H169446   1.562   7.502   6.873
23068WAT     H269447   1.507   7.586   7.002
23069WAT      O69448   0.212   5.883   3.898
23069WAT     H169449   0.297   5.935   3.904
23069WAT     H269450   0.139   5.932   3.945
23070WAT      O69451   3.508   2.491   2.429
23070WAT     H169452   3.417   2.508   2.466
23070WAT     H269453   3.576   2.540   2.484
23071WAT      O69454   4.546   4.552   6.028
23071WAT     H169455   4.468   4.528   6.085
23071WAT     H269456   4.599   4.470   6.007
23072WAT      O69457   0.652   2.817   4.190
23072WAT     H169458   0.603   2.754   4.250
23072WAT     H269459   0.651   2.909   4.229
23073WAT      O69460   2.704   7.921   4.447
23073WAT     H169461   2.619   7.952   4.488
23073WAT     H269462   2.694   7.826   4.416
23074WAT      O69463   6.133   7.806   4.094
23074WAT     H169464   6.087   7.761   4.171
23074WAT     H269465   6.082   7.888   4.068
23075WAT      O69466   7.577   4.974   5.056
23075WAT     H169467   7.540   5.019   5.137
23075WAT     H269468   7.662   4.927   5.080
23076WAT      O69469   6.907   0.414   9.437
23076WAT     H169470   6.984   0.468   9.401
23076WAT     H269471   6.931   0.317   9.435
23077WAT      O69472   0.595   4.415   8.087
23077WAT     H169473   0.654   4.399   8.007
23077WAT     H269474   0.620   4.351   8.160
23078WAT      O69475   2.871   5.787   5.119
23078WAT     H169476   2.884   5.858   5.188
23078WAT     H269477   2.777   5.753   5.123
23079WAT      O69478   5.352   1.139   9.381
23079WAT     H169479   5.283   1.133   9.309
23079WAT     H269480   5.320   1.197   9.455
23080WAT      O69481   5.845   9.563   4.958
23080WAT     H169482   5.788   9.484   4.935
23080WAT     H269483   5.794   9.624   5.018
23081WAT      O69484   3.256   1.866   0.065
23081WAT     H169485   3.285   1.777   0.101
23081WAT     H269486   3.191   1.851  -0.010
23082WAT      O69487   4.866   9.620   4.746
23082WAT     H169488   4.873   9.720   4.740
23082WAT     H269489   4.869   9.581   4.654
23083WAT      O69490   2.272   1.690   5.980
23083WAT     H169491   2.294   1.649   6.068
23083WAT     H269492   2.244   1.785   5.993
23084WAT      O69493   4.865   0.597   3.292
23084WAT     H169494   4.854   0.694   3.313
23084WAT     H269495   4.959   0.569   3.307
23085WAT      O69496   4.542   6.278   2.933
23085WAT     H169497   4.478   6.234   2.871
23085WAT     H269498   4.624   6.306   2.882
23086WAT      O69499   4.426   8.013   8.572
23086WAT     H169500   4.500   7.946   8.581
23086WAT     H269501   4.437   8.064   8.487
23087WAT      O69502   2.006   8.326   4.383
23087WAT     H169503   1.956   8.246   4.414
23087WAT     H269504   1.986   8.404   4.443
23088WAT      O69505   5.441   1.062   7.391
23088WAT     H169506   5.467   1.012   7.308
23088WAT     H269507   5.458   1.004   7.471
23089WAT      O69508   3.887   3.876   0.574
23089WAT     H169509   3.945   3.889   0.655
23089WAT     H269510   3.902   3.784   0.538
23090WAT      O69511   6.635   8.005   6.368
23090WAT     H169512   6.649   8.040   6.461
23090WAT     H269513   6.544   8.033   6.336
23091WAT      O69514   3.992   6.502   9.538
23091WAT     H169515   4.071   6.533   9.591
23091WAT     H269516   3.910   6.547   9.572
23092WAT      O69517   1.843   2.571   1.712
23092WAT     H169518   1.781   2.498   1.742
23092WAT     H269519   1.810   2.611   1.627
23093WAT      O69520   6.157   2.527   9.535
23093WAT     H169521   6.071   2.571   9.506
23093WAT     H269522   6.227   2.597   9.550
23094WAT      O69523   2.575   4.475   4.830
23094WAT     H169524   2.559   4.509   4.922
23094WAT     H269525   2.661   4.511   4.795
23095WAT      O69526   6.765   3.074   1.169
23095WAT     H169527   6.828   3.088   1.093
23095WAT     H269528   6.740   2.977   1.174
23096WAT      O69529   0.344   0.594   1.248
23096WAT     H169530   0.399   0.649   1.185
23096WAT     H269531   0.387   0.593   1.338
23097WAT      O69532   1.562   6.109   3.261
23097WAT     H169533   1.513   6.025   3.237
23097WAT     H269534   1.613   6.095   3.346
23098WAT      O69535   6.996   4.692   1.828
23098WAT     H169536   6.929   4.746   1.879
23098WAT     H269537   7.071   4.752   1.797
23099WAT      O69538   6.852   6.473   4.005
23099WAT     H169539   6.771   6.509   4.052
23099WAT     H269540   6.841   6.484   3.906
23100WAT      O69541   8.812   6.672   2.109
23100WAT     H169542   8.742   6.733   2.145
23100WAT     H269543   8.833   6.697   2.015
23101WAT      O69544   4.351   2.162   3.189
23101WAT     H169545   4.415   2.237   3.173
23101WAT     H269546   4.355   2.098   3.112
23102WAT      O69547   6.287   2.700   5.115
23102WAT     H169548   6.209   2.739   5.065
23102WAT     H269549   6.268   2.702   5.213
23103WAT      O69550   8.861   0.719   8.815
23103WAT     H169551   8.891   0.749   8.724
23103WAT     H269552   8.794   0.783   8.851
23104WAT      O69553   6.545   0.093   7.079
23104WAT     H169554   6.513   0.019   7.137
23104WAT     H269555   6.468   0.153   7.055
23105WAT      O69556   5.727   1.444   0.430
23105WAT     H169557   5.724   1.433   0.330
23105WAT     H269558   5.710   1.356   0.474
23106WAT      O69559   5.066   0.174   3.642
23106WAT     H169560   5.062   0.272   3.662
23106WAT     H269561   5.031   0.158   3.550
23107WAT      O69562   0.446   5.858   0.154
23107WAT     H169563   0.355   5.879   0.190
23107WAT     H269564   0.453   5.761   0.134
23108WAT      O69565   9.876   5.483   0.167
23108WAT     H169566   9.934   5.476   0.086
23108WAT     H269567   9.804   5.550   0.151
23109WAT      O69568   3.965   3.937   5.578
23109WAT     H169569   4.062   3.927   5.555
23109WAT     H269570   3.925   4.011   5.525
23110WAT      O69571   7.793   9.227   0.166
23110WAT     H169572   7.810   9.128   0.163
23110WAT     H269573   7.711   9.248   0.113
23111WAT      O69574   0.951   3.388   7.365
23111WAT     H169575   1.033   3.409   7.418
23111WAT     H269576   0.909   3.474   7.334
23112WAT      O69577   7.526   3.875   7.924
23112WAT     H169578   7.479   3.841   8.006
23112WAT     H269579   7.536   3.974   7.931
23113WAT      O69580   0.645   3.744   2.325
23113WAT     H169581   0.673   3.831   2.366
23113WAT     H269582   0.725   3.695   2.292
23114WAT      O69583   8.793   3.983   5.014
23114WAT     H169584   8.867   4.049   4.998
23114WAT     H269585   8.718   4.002   4.951
23115WAT      O69586   9.737   2.962   6.371
23115WAT     H169587   9.777   3.024   6.439
23115WAT     H269588   9.649   2.928   6.405
23116WAT      O69589   9.366   4.596   3.305
23116WAT     H169590   9.366   4.676   3.245
23116WAT     H269591   9.406   4.619   3.393
23117WAT      O69592   1.688   4.779   0.624
23117WAT     H169593   1.607   4.742   0.579
23117WAT     H269594   1.732   4.707   0.678
23118WAT      O69595   9.835   5.181   0.198
23118WAT     H169596   9.922   5.223   0.171
23118WAT     H269597   9.765   5.200   0.129
23119WAT      O69598   9.229   7.391   1.351
23119WAT     H169599   9.224   7.369   1.449
23119WAT     H269600   9.324   7.384   1.321
23120WAT      O69601   6.055   8.877   0.369
23120WAT     H169602   6.154   8.861   0.371
23120WAT     H269603   6.029   8.916   0.281
23121WAT      O69604   6.403   8.043   6.687
23121WAT     H169605   6.410   8.113   6.617
23121WAT     H269606   6.347   7.967   6.653
23122WAT      O69607   4.044   4.294   9.569
23122WAT     H169608   4.021   4.199   9.589
23122WAT     H269609   4.114   4.325   9.633
23123WAT      O69610   1.995   0.473   4.130
23123WAT     H169611   2.023   0.547   4.068
23123WAT     H269612   1.957   0.511   4.214
23124WAT      O69613   6.982   4.279   8.222
23124WAT     H169614   6.973   4.183   8.196
23124WAT     H269615   6.903   4.307   8.277
23125WAT      O69616   0.270   9.166   7.461
23125WAT     H169617   0.347   9.181   7.399
23125WAT     H269618   0.192   9.220   7.430
23126WAT      O69619   6.550   5.055   8.990
23126WAT     H169620   6.589   5.101   8.911
23126WAT     H269621   6.614   5.060   9.066
23127WAT      O69622   9.844   7.460   6.501
23127WAT     H169623   9.878   7.548   6.468
23127WAT     H269624   9.764   7.474   6.560
23128WAT      O69625   2.187   1.969   6.991
23128WAT     H169626   2.242   1.885   6.995
23128WAT     H269627   2.105   1.958   7.048
23129WAT      O69628   6.152   5.379   2.724
23129WAT     H169629   6.112   5.463   2.687
23129WAT     H269630   6.246   5.369   2.692
23130WAT      O69631   5.049   2.088   8.500
23130WAT     H169632   5.143   2.103   8.531
23130WAT     H269633   4.989   2.082   8.580
23131WAT      O69634   7.210   8.160   3.447
23131WAT     H169635   7.200   8.179   3.349
23131WAT     H269636   7.292   8.205   3.482
23132WAT      O69637   3.596   4.200   7.301
23132WAT     H169638   3.525   4.270   7.308
23132WAT     H269639   3.674   4.237   7.252
23133WAT      O69640   5.920   2.168   0.321
23133WAT     H169641   5.860   2.095   0.352
23133WAT     H269642   5.958   2.146   0.231
23134WAT      O69643   3.540   5.036   7.081
23134WAT     H169644   3.633   5.047   7.047
23134WAT     H269645   3.492   5.124   7.075
23135WAT      O69646   3.745   0.423   1.434
23135WAT     H169647   3.742   0.350   1.503
23135WAT     H269648   3.836   0.424   1.392
23136WAT      O69649   5.123   2.659   4.273
23136WAT     H169650   5.041   2.657   4.329
23136WAT     H269651   5.177   2.740   4.296
23137WAT      O69652   5.438   2.788   3.674
23137WAT     H169653   5.463   2.792   3.771
23137WAT     H269654   5.494   2.720   3.628
23138WAT      O69655   6.956   8.814   7.826
23138WAT     H169656   7.054   8.833   7.819
23138WAT     H269657   6.933   8.736   7.768
23139WAT      O69658   8.522   0.989   1.775
23139WAT     H169659   8.428   0.975   1.806
23139WAT     H269660   8.579   0.912   1.805
23140WAT      O69661   2.097   8.823   6.323
23140WAT     H169662   2.085   8.923   6.327
23140WAT     H269663   2.187   8.802   6.286
23141WAT      O69664   3.885   9.403   3.501
23141WAT     H169665   3.830   9.329   3.540
23141WAT     H269666   3.884   9.396   3.402
23142WAT      O69667   1.011   6.442   6.026
23142WAT     H169668   1.044   6.531   5.992
23142WAT     H269669   1.009   6.443   6.126
23143WAT      O69670   5.373   0.534   5.049
23143WAT     H169671   5.292   0.583   5.016
23143WAT     H269672   5.350   0.486   5.133
23144WAT      O69673   5.710   7.640   5.741
23144WAT     H169674   5.645   7.640   5.665
23144WAT     H269675   5.700   7.556   5.794
23145WAT      O69676   5.187   6.140   4.730
23145WAT     H169677   5.205   6.229   4.689
23145WAT     H269678   5.094   6.140   4.768
23146WAT      O69679   8.848   6.162   5.942
23146WAT     H169680   8.906   6.082   5.960
23146WAT     H269681   8.882   6.240   5.994
23147WAT      O69682   6.371   0.333   3.095
23147WAT     H169683   6.410   0.420   3.063
23147WAT     H269684   6.339   0.344   3.189
23148WAT      O69685   3.946   8.160   1.855
23148WAT     H169686   3.920   8.225   1.784
23148WAT     H269687   3.983   8.210   1.933
23149WAT      O69688   4.263   1.258   9.796
23149WAT     H169689   4.331   1.213   9.854
23149WAT     H269690   4.179   1.204   9.797
23150WAT      O69691   0.095   0.298   3.496
23150WAT     H169692   0.133   0.349   3.574
23150WAT     H269693  -0.000   0.274   3.516
23151WAT      O69694   3.020   3.470   3.547
23151WAT     H169695   2.986   3.472   3.641
23151WAT     H269696   3.054   3.561   3.522
23152WAT      O69697   8.227   2.956   1.160
23152WAT     H169698   8.235   3.039   1.215
23152WAT     H269699   8.314   2.906   1.162
23153WAT      O69700   0.587   7.342   2.232
23153WAT     H169701   0.621   7.384   2.147
23153WAT     H269702   0.659   7.342   2.301
23154WAT      O69703   2.280   6.528   6.842
23154WAT     H169704   2.199   6.521   6.784
23154WAT     H269705   2.359   6.490   6.792
23155WAT      O69706   8.024   3.305   9.223
23155WAT     H169707   7.940   3.343   9.260
23155WAT     H269708   8.005   3.214   9.184
23156WAT      O69709   0.364   4.253   6.580
23156WAT     H169710   0.343   4.217   6.489
23156WAT     H269711   0.309   4.204   6.648
23157WAT      O69712   8.761   4.818   2.225
23157WAT     H169713   8.841   4.786   2.277
23157WAT     H269714   8.789   4.838   2.131
23158WAT      O69715   9.694   8.496   8.291
23158WAT     H169716   9.726   8.500   8.197
23158WAT     H269717   9.749   8.558   8.348
23159WAT      O69718   7.283   9.185   0.563
23159WAT     H169719   7.232   9.271   0.559
23159WAT     H269720   7.369   9.196   0.512
23160WAT      O69721   0.771   9.362   3.551
23160WAT     H169722   0.782   9.273   3.507
23160WAT     H269723   0.676   9.392   3.544
23161WAT      O69724   6.975   9.020   4.625
23161WAT     H169725   7.047   8.952   4.616
23161WAT     H269726   7.015   9.109   4.649
23162WAT      O69727   6.329   4.703   3.113
23162WAT     H169728   6.258   4.668   3.174
23162WAT     H269729   6.408   4.732   3.166
23163WAT      O69730   9.454   2.916   7.948
23163WAT     H169731   9.474   2.833   8.000
23163WAT     H269732   9.537   2.971   7.939
23164WAT      O69733   8.459   3.765   2.766
23164WAT     H169734   8.522   3.779   2.843
23164WAT     H269735   8.461   3.669   2.739
23165WAT      O69736   6.873   7.503   1.178
23165WAT     H169737   6.907   7.470   1.266
23165WAT     H269738   6.868   7.428   1.113
23166WAT      O69739   1.778   4.227   5.410
23166WAT     H169740   1.780   4.148   5.350
23166WAT     H269741   1.700   4.285   5.386
23167WAT      O69742   5.229   3.177   4.918
23167WAT     H169743   5.154   3.232   4.955
23167WAT     H269744   5.315   3.228   4.928
23168WAT      O69745   3.835   3.016   6.567
23168WAT     H169746   3.851   3.016   6.468
23168WAT     H269747   3.816   3.110   6.597
23169WAT      O69748   2.099   6.698   8.359
23169WAT     H169749   2.078   6.601   8.364
23169WAT     H269750   2.175   6.720   8.420
23170WAT      O69751   4.445   5.848   8.988
23170WAT     H169752   4.476   5.910   9.060
23170WAT     H269753   4.496   5.762   8.995
23171WAT      O69754   1.837   2.095   0.648
23171WAT     H169755   1.865   2.116   0.554
23171WAT     H269756   1.819   2.180   0.697
23172WAT      O69757   3.950   8.232   5.494
23172WAT     H169758   4.031   8.283   5.522
23172WAT     H269759   3.916   8.267   5.407
23173WAT      O69760   0.886   7.718   0.849
23173WAT     H169761   0.932   7.746   0.933
23173WAT     H269762   0.857   7.799   0.798
23174WAT      O69763   5.213   7.230   1.671
23174WAT     H169764   5.291   7.244   1.732
23174WAT     H269765   5.206   7.308   1.609
23175WAT      O69766   8.042   2.115   1.835
23175WAT     H169767   7.984   2.050   1.785
23175WAT     H269768   8.134   2.077   1.843
23176WAT      O69769   5.289   2.479   1.975
23176WAT     H169770   5.296   2.528   2.062
23176WAT     H269771   5.337   2.392   1.981
23177WAT      O69772   1.921   5.486   1.427
23177WAT     H169773   1.997   5.526   1.478
23177WAT     H269774   1.928   5.386   1.430
23178WAT      O69775   8.357   4.283   3.080
23178WAT     H169776   8.413   4.214   3.034
23178WAT     H269777   8.282   4.311   3.019
23179WAT      O69778   0.064   9.074   6.620
23179WAT     H169779   0.153   9.104   6.584
23179WAT     H269780  -0.009   9.128   6.578
23180WAT      O69781   3.134   3.997   7.865
23180WAT     H169782   3.201   3.933   7.827
23180WAT     H269783   3.139   4.084   7.816
23181WAT      O69784   2.767   0.949   2.748
23181WAT     H169785   2.676   0.907   2.739
23181WAT     H269786   2.762   1.046   2.725
23182WAT      O69787   9.603   9.600   8.154
23182WAT     H169788   9.507   9.610   8.179
23182WAT     H269789   9.637   9.687   8.117
23183WAT      O69790   1.792   6.858   2.384
23183WAT     H169791   1.837   6.779   2.342
23183WAT     H269792   1.723   6.826   2.449
23184WAT      O69793   8.585   0.552   2.141
23184WAT     H169794   8.667   0.500   2.117
23184WAT     H269795   8.593   0.645   2.107
23185WAT      O69796   0.633   3.194   7.760
23185WAT     H169797   0.717   3.211   7.707
23185WAT     H269798   0.654   3.199   7.857
23186WAT      O69799   7.564   2.106   3.763
23186WAT     H169800   7.485   2.095   3.704
23186WAT     H269801   7.631   2.166   3.719
23187WAT      O69802   6.367   7.470   3.459
23187WAT     H169803   6.437   7.495   3.392
23187WAT     H269804   6.277   7.474   3.416
23188WAT      O69805   6.807   0.972   8.728
23188WAT     H169806   6.824   0.975   8.629
23188WAT     H269807   6.846   0.888   8.766
23189WAT      O69808   1.199   1.033   8.773
23189WAT     H169809   1.248   0.947   8.758
23189WAT     H269810   1.148   1.057   8.691
23190WAT      O69811   8.979   8.695   4.037
23190WAT     H169812   9.048   8.631   4.005
23190WAT     H269813   8.889   8.668   4.001
23191WAT      O69814   2.743   2.236   4.181
23191WAT     H169815   2.733   2.164   4.113
23191WAT     H269816   2.817   2.212   4.244
23192WAT      O69817   5.651   7.979   0.603
23192WAT     H169818   5.693   8.010   0.517
23192WAT     H269819   5.714   7.917   0.650
23193WAT      O69820   1.859   2.176   6.578
23193WAT     H169821   1.873   2.275   6.583
23193WAT     H269822   1.806   2.146   6.657
23194WAT      O69823   5.600   6.925   5.165
23194WAT     H169824   5.654   6.854   5.211
23194WAT     H269825   5.526   6.882   5.114
23195WAT      O69826   3.386   3.164   1.080
23195WAT     H169827   3.294   3.175   1.116
23195WAT     H269828   3.389   3.085   1.019
23196WAT      O69829   8.548   8.809   3.701
23196WAT     H169830   8.567   8.902   3.733
23196WAT     H269831   8.491   8.813   3.619
23197WAT      O69832   1.839   0.713   8.369
23197WAT     H169833   1.837   0.810   8.346
23197WAT     H269834   1.847   0.702   8.469
23198WAT      O69835   6.906   5.412   3.158
23198WAT     H169836   6.863   5.354   3.089
23198WAT     H269837   6.849   5.413   3.240
23199WAT      O69838   4.023   9.201   4.079
23199WAT     H169839   3.948   9.156   4.127
23199WAT     H269840   3.987   9.250   3.999
23200WAT      O69841   0.623   8.936   9.198
23200WAT     H169842   0.690   8.996   9.154
23200WAT     H269843   0.671   8.863   9.247
23201WAT      O69844   4.833   2.281   3.991
23201WAT     H169845   4.821   2.287   4.090
23201WAT     H269846   4.744   2.272   3.947
23202WAT      O69847   8.351   0.470   2.048
23202WAT     H169848   8.443   0.480   2.085
23202WAT     H269849   8.333   0.373   2.030
23203WAT      O69850   2.735   6.831   5.359
23203WAT     H169851   2.799   6.810   5.285
23203WAT     H269852   2.748   6.925   5.389
23204WAT      O69853   7.045   3.403   9.623
23204WAT     H169854   7.036   3.420   9.722
23204WAT     H269855   7.111   3.467   9.585
23205WAT      O69856   7.346   7.115   6.133
23205WAT     H169857   7.356   7.018   6.154
23205WAT     H269858   7.282   7.157   6.198
23206WAT      O69859   4.447   1.553   5.978
23206WAT     H169860   4.414   1.575   5.886
23206WAT     H269861   4.536   1.597   5.992
23207WAT      O69862   2.570   4.987   9.529
23207WAT     H169863   2.615   4.948   9.609
23207WAT     H269864   2.603   5.081   9.515
23208WAT      O69865   0.042   8.940   1.845
23208WAT     H169866  -0.046   8.975   1.812
23208WAT     H269867   0.039   8.931   1.944
23209WAT      O69868   5.610   9.378   0.622
23209WAT     H169869   5.638   9.473   0.608
23209WAT     H269870   5.647   9.321   0.548
23210WAT      O69871   6.837   4.945   8.739
23210WAT     H169872   6.797   5.033   8.765
23210WAT     H269873   6.817   4.877   8.809
23211WAT      O69874   2.193   5.036   2.039
23211WAT     H169875   2.102   5.055   2.073
23211WAT     H269876   2.209   5.088   1.955
23212WAT      O69877   7.137   9.806   6.422
23212WAT     H169878   7.061   9.832   6.481
23212WAT     H269879   7.218   9.861   6.444
23213WAT      O69880   9.628   1.643   4.626
23213WAT     H169881   9.677   1.719   4.668
23213WAT     H269882   9.687   1.599   4.558
23214WAT      O69883   9.268   6.733   0.581
23214WAT     H169884   9.356   6.713   0.623
23214WAT     H269885   9.258   6.831   0.569
23215WAT      O69886   4.305   1.078   6.204
23215WAT     H169887   4.241   1.123   6.267
23215WAT     H269888   4.260   1.062   6.117
23216WAT      O69889   0.169   4.319   8.496
23216WAT     H169890   0.070   4.308   8.487
23216WAT     H269891   0.208   4.238   8.539
23217WAT      O69892   0.393   9.836   9.256
23217WAT     H169893   0.434   9.781   9.329
23217WAT     H269894   0.308   9.877   9.289
23218WAT      O69895   1.803   8.333   3.199
23218WAT     H169896   1.792   8.245   3.244
23218WAT     H269897   1.730   8.395   3.228
23219WAT      O69898   8.485   3.700   9.030
23219WAT     H169899   8.465   3.676   9.125
23219WAT     H269900   8.538   3.785   9.027
23220WAT      O69901   0.933   0.318   0.811
23220WAT     H169902   0.966   0.244   0.752
23220WAT     H269903   1.011   0.357   0.861
23221WAT      O69904   8.883   9.786   6.445
23221WAT     H169905   8.826   9.814   6.368
23221WAT     H269906   8.929   9.700   6.423
23222WAT      O69907   9.085   3.589   3.524
23222WAT     H169908   9.163   3.528   3.520
23222WAT     H269909   9.117   3.684   3.533
23223WAT      O69910   9.545   4.134   0.946
23223WAT     H169911   9.603   4.188   0.885
23223WAT     H269912   9.599   4.064   0.992
23224WAT      O69913   7.354   8.789   2.555
23224WAT     H169914   7.336   8.875   2.603
23224WAT     H269915   7.441   8.750   2.587
23225WAT      O69916   7.188   0.099   4.854
23225WAT     H169917   7.175   0.178   4.794
23225WAT     H269918   7.206   0.132   4.947
23226WAT      O69919   4.662   0.358   7.802
23226WAT     H169920   4.664   0.438   7.742
23226WAT     H269921   4.574   0.312   7.794
23227WAT      O69922   4.659   9.747   0.541
23227WAT     H169923   4.588   9.683   0.568
23227WAT     H269924   4.747   9.717   0.578
23228WAT      O69925   1.108   6.794   7.754
23228WAT     H169926   1.182   6.861   7.761
23228WAT     H269927   1.146   6.704   7.734
23229WAT      O69928   5.670   9.363   4.927
23229WAT     H169929   5.689   9.275   4.883
23229WAT     H269930   5.587   9.356   4.981
23230WAT      O69931   5.343   3.644   4.380
23230WAT     H169932   5.410   3.717   4.397
23230WAT     H269933   5.374   3.588   4.303
23231WAT      O69934   3.300   8.812   4.579
23231WAT     H169935   3.299   8.754   4.498
23231WAT     H269936   3.221   8.873   4.578
23232WAT      O69937   7.126   0.886   9.384
23232WAT     H169938   7.207   0.841   9.347
23232WAT     H269939   7.092   0.953   9.318
23233WAT      O69940   4.257   9.236   3.149
23233WAT     H169941   4.206   9.205   3.229
23233WAT     H269942   4.215   9.319   3.112
23234WAT      O69943   5.915   6.706   9.881
23234WAT     H169944   5.958   6.678   9.795
23234WAT     H269945   5.912   6.628   9.944
23235WAT      O69946   9.722   7.918   1.406
23235WAT     H169947   9.659   7.845   1.431
23235WAT     H269948   9.672   7.991   1.359
23236WAT      O69949   0.063   4.765   8.526
23236WAT     H169950  -0.002   4.689   8.517
23236WAT     H269951   0.154   4.729   8.545
23237WAT      O69952   8.613   1.268   2.752
23237WAT     H169953   8.634   1.248   2.848
23237WAT     H269954   8.675   1.216   2.693
23238WAT      O69955   3.264   0.899   5.161
23238WAT     H169956   3.326   0.972   5.133
23238WAT     H269957   3.228   0.853   5.080
23239WAT      O69958   0.935   0.784   8.057
23239WAT     H169959   0.913   0.822   7.967
23239WAT     H269960   0.999   0.708   8.047
23240WAT      O69961   4.676   3.284   5.126
23240WAT     H169962   4.582   3.277   5.159
23240WAT     H269963   4.705   3.197   5.087
23241WAT      O69964   3.025   1.208   7.327
23241WAT     H169965   2.989   1.166   7.410
23241WAT     H269966   3.114   1.249   7.346
23242WAT      O69967   2.342   6.977   9.457
23242WAT     H169968   2.298   6.929   9.380
23242WAT     H269969   2.381   6.909   9.520
23243WAT      O69970   7.697   2.944   3.854
23243WAT     H169971   7.773   2.926   3.792
23243WAT     H269972   7.714   3.029   3.905
23244WAT      O69973   2.431   8.616   1.623
23244WAT     H169974   2.506   8.659   1.674
23244WAT     H269975   2.424   8.519   1.649
23245WAT      O69976   0.143   1.261   9.173
23245WAT     H169977   0.150   1.357   9.202
23245WAT     H269978   0.111   1.205   9.249
23246WAT      O69979   1.839   6.646   5.688
23246WAT     H169980   1.917   6.651   5.626
23246WAT     H269981   1.852   6.570   5.753
23247WAT      O69982   2.269   2.476   0.218
23247WAT     H169983   2.272   2.491   0.119
23247WAT     H269984   2.361   2.455   0.251
23248WAT      O69985   7.603   3.366   6.444
23248WAT     H169986   7.640   3.429   6.376
23248WAT     H269987   7.569   3.418   6.522
23249WAT      O69988   7.949   3.548   6.873
23249WAT     H169989   8.027   3.603   6.903
23249WAT     H269990   7.951   3.539   6.774
23250WAT      O69991   2.745   8.311   4.911
23250WAT     H169992   2.813   8.383   4.925
23250WAT     H269993   2.666   8.329   4.969
23251WAT      O69994   6.643   7.143   2.847
23251WAT     H169995   6.740   7.150   2.870
23251WAT     H269996   6.630   7.069   2.781
23252WAT      O69997   5.462   7.770   6.013
23252WAT     H169998   5.435   7.675   5.996
23252WAT     H269999   5.550   7.772   6.060
23253WAT      O70000   1.356   1.133   1.058
23253WAT     H170001   1.336   1.035   1.064
23253WAT     H270002   1.277   1.181   1.019
23254WAT      O70003   5.671   8.191   7.975
23254WAT     H170004   5.627   8.279   7.992
23254WAT     H270005   5.602   8.122   7.953
23255WAT      O70006   9.238   0.493   6.442
23255WAT     H170007   9.319   0.507   6.385
23255WAT     H270008   9.156   0.500   6.385
23256WAT      O70009   4.745   5.075   2.035
23256WAT     H170010   4.831   5.057   1.989
23256WAT     H270011   4.763   5.101   2.130
23257WAT      O70012   3.155   3.409   8.009
23257WAT     H170013   3.103   3.344   8.065
23257WAT     H270014   3.222   3.457   8.065
23258WAT      O70015   8.035   1.262   3.178
23258WAT     H170016   8.021   1.167   3.207
23258WAT     H270017   8.134   1.280   3.174
23259WAT      O70018   4.495   7.887   4.603
23259WAT     H170019   4.486   7.979   4.565
23259WAT     H270020   4.590   7.857   4.595
23260WAT      O70021   8.937   8.968   0.144
23260WAT     H170022   8.894   8.987   0.056
23260WAT     H270023   8.882   8.900   0.194
23261WAT      O70024   8.290   8.880   9.290
23261WAT     H170025   8.354   8.805   9.274
23261WAT     H270026   8.210   8.846   9.339
23262WAT      O70027   6.483   7.281   8.959
23262WAT     H170028   6.508   7.372   8.993
23262WAT     H270029   6.551   7.214   8.990
23263WAT      O70030   6.368   6.460   6.364
23263WAT     H170031   6.315   6.390   6.316
23263WAT     H270032   6.357   6.548   6.316
23264WAT      O70033   9.858   6.506   4.724
23264WAT     H170034   9.840   6.492   4.822
23264WAT     H270035   9.956   6.508   4.709
23265WAT      O70036   4.793   0.383   5.664
23265WAT     H170037   4.868   0.427   5.615
23265WAT     H270038   4.794   0.285   5.645
23266WAT      O70039   9.114   9.065   9.154
23266WAT     H170040   9.108   8.966   9.164
23266WAT     H270041   9.032   9.100   9.109
23267WAT      O70042   6.533   2.739   8.305
23267WAT     H170043   6.609   2.747   8.370
23267WAT     H270044   6.456   2.793   8.337
23268WAT      O70045   3.639   1.722   0.455
23268WAT     H170046   3.540   1.710   0.460
23268WAT     H270047   3.661   1.816   0.429
23269WAT      O70048   3.541   9.812   6.669
23269WAT     H170049   3.589   9.764   6.742
23269WAT     H270050   3.504   9.745   6.604
23270WAT      O70051   0.410   5.671   8.121
23270WAT     H170052   0.480   5.657   8.191
23270WAT     H270053   0.322   5.685   8.165
23271WAT      O70054   5.758   3.747   1.630
23271WAT     H170055   5.795   3.674   1.574
23271WAT     H270056   5.666   3.722   1.660
23272WAT      O70057   0.947   6.457   7.334
23272WAT     H170058   1.014   6.414   7.394
23272WAT     H270059   0.936   6.553   7.360
23273WAT      O70060   5.561   8.784   1.036
23273WAT     H170061   5.583   8.847   1.110
23273WAT     H270062   5.645   8.756   0.990
23274WAT      O70063   1.079   6.007   9.646
23274WAT     H170064   1.071   5.914   9.682
23274WAT     H270065   1.029   6.070   9.706
23275WAT      O70066   1.755   8.478   2.538
23275WAT     H170067   1.714   8.390   2.513
23275WAT     H270068   1.728   8.548   2.473
23276WAT      O70069   5.543   1.651   7.159
23276WAT     H170070   5.511   1.593   7.233
23276WAT     H270071   5.596   1.727   7.197
23277WAT      O70072   5.624   6.191   8.765
23277WAT     H170073   5.670   6.138   8.835
23277WAT     H270074   5.683   6.197   8.684
23278WAT      O70075   4.840   1.706   3.847
23278WAT     H170076   4.918   1.687   3.788
23278WAT     H270077   4.869   1.766   3.921
23279WAT      O70078   9.873   3.842   9.838
23279WAT     H170079   9.834   3.834   9.746
23279WAT     H270080   9.839   3.767   9.896
23280WAT      O70081   2.763   2.613   9.291
23280WAT     H170082   2.667   2.617   9.316
23280WAT     H270083   2.817   2.582   9.370
23281WAT      O70084   4.666   4.518   1.787
23281WAT     H170085   4.634   4.577   1.713
23281WAT     H270086   4.753   4.477   1.762
23282WAT      O70087   7.044   6.922   8.298
23282WAT     H170088   7.139   6.950   8.303
23282WAT     H270089   7.016   6.883   8.386
23283WAT      O70090   0.750   6.698   4.232
23283WAT     H170091   0.704   6.629   4.288
23283WAT     H270092   0.804   6.758   4.292
23284WAT      O70093   0.411   9.587   6.390
23284WAT     H170094   0.392   9.527   6.468
23284WAT     H270095   0.366   9.675   6.403
23285WAT      O70096   4.721   4.801   8.527
23285WAT     H170097   4.738   4.898   8.512
23285WAT     H270098   4.667   4.789   8.611
23286WAT      O70099   6.362   6.273   9.812
23286WAT     H170100   6.327   6.289   9.904
23286WAT     H270101   6.433   6.203   9.816
23287WAT      O70102   8.036   1.267   8.422
23287WAT     H170103   7.987   1.227   8.499
23287WAT     H270104   8.082   1.351   8.452
23288WAT      O70105   4.873   0.705   5.101
23288WAT     H170106   4.895   0.684   5.006
23288WAT     H270107   4.955   0.742   5.146
23289WAT      O70108   6.264   1.976   6.547
23289WAT     H170109   6.240   1.930   6.632
23289WAT     H270110   6.337   2.042   6.563
23290WAT      O70111   9.768   7.983   6.785
23290WAT     H170112   9.831   7.935   6.725
23290WAT     H270113   9.674   7.971   6.752
23291WAT      O70114   9.021   2.170   8.973
23291WAT     H170115   9.091   2.179   8.902
23291WAT     H270116   9.053   2.216   9.057
23292WAT      O70117   2.109   7.498   1.158
23292WAT     H170118   2.052   7.438   1.214
23292WAT     H270119   2.200   7.459   1.150
23293WAT      O70120   8.376   0.401   9.569
23293WAT     H170121   8.408   0.306   9.569
23293WAT     H270122   8.283   0.404   9.532
23294WAT      O70123   4.761   8.683   2.781
23294WAT     H170124   4.695   8.733   2.837
23294WAT     H270125   4.735   8.690   2.685
23295WAT      O70126   7.398   4.543   3.661
23295WAT     H170127   7.410   4.597   3.744
23295WAT     H270128   7.345   4.595   3.594
23296WAT      O70129   5.796   0.915   3.973
23296WAT     H170130   5.716   0.946   4.023
23296WAT     H270131   5.815   0.977   3.897
23297WAT      O70132   5.475   1.134   7.058
23297WAT     H170133   5.480   1.044   7.101
23297WAT     H270134   5.452   1.124   6.961
23298WAT      O70135   2.079   8.128   7.337
23298WAT     H170136   2.129   8.213   7.318
23298WAT     H270137   2.117   8.085   7.420
23299WAT      O70138   8.307   7.452   2.911
23299WAT     H170139   8.218   7.496   2.918
23299WAT     H270140   8.379   7.516   2.938
23300WAT      O70141   8.964   2.010   4.413
23300WAT     H170142   8.948   2.109   4.406
23300WAT     H270143   8.970   1.984   4.509
23301WAT      O70144   3.020   1.097   5.905
23301WAT     H170145   3.006   1.172   5.969
23301WAT     H270146   2.971   1.116   5.820
23302WAT      O70147   9.205   1.024   8.661
23302WAT     H170148   9.283   0.962   8.649
23302WAT     H270149   9.193   1.044   8.758
23303WAT      O70150   3.094   0.403   5.313
23303WAT     H170151   3.095   0.305   5.333
23303WAT     H270152   3.036   0.450   5.379
23304WAT      O70153   9.319   1.766   4.883
23304WAT     H170154   9.276   1.722   4.805
23304WAT     H270155   9.385   1.834   4.851
23305WAT      O70156   5.118   8.012   2.588
23305WAT     H170157   5.149   7.931   2.637
23305WAT     H270158   5.144   8.094   2.639
23306WAT      O70159   8.410   0.270   3.862
23306WAT     H170160   8.361   0.286   3.776
23306WAT     H270161   8.499   0.313   3.858
23307WAT      O70162   3.080   6.206   4.228
23307WAT     H170163   3.087   6.276   4.299
23307WAT     H270164   3.117   6.120   4.262
23308WAT      O70165   8.918   8.525   0.955
23308WAT     H170166   8.910   8.473   1.039
23308WAT     H270167   8.919   8.623   0.976
23309WAT      O70168   1.561   5.316   7.873
23309WAT     H170169   1.495   5.242   7.863
23309WAT     H270170   1.609   5.307   7.960
23310WAT      O70171   1.557   3.961   5.114
23310WAT     H170172   1.587   3.994   5.025
23310WAT     H270173   1.493   3.885   5.102
23311WAT      O70174   8.393   6.417   7.508
23311WAT     H170175   8.335   6.344   7.473
23311WAT     H270176   8.448   6.455   7.434
23312WAT      O70177   0.492   8.541   3.926
23312WAT     H170178   0.447   8.604   3.988
23312WAT     H270179   0.471   8.447   3.953
23313WAT      O70180   0.017   5.502   0.982
23313WAT     H170181   0.016   5.550   1.070
23313WAT     H270182  -0.057   5.435   0.980
23314WAT      O70183   1.674   7.215   9.686
23314WAT     H170184   1.772   7.232   9.698
23314WAT     H270185   1.635   7.181   9.771
23315WAT      O70186   4.525   8.162   8.347
23315WAT     H170187   4.516   8.258   8.321
23315WAT     H270188   4.613   8.127   8.315
23316WAT      O70189   6.139   7.038   7.719
23316WAT     H170190   6.180   6.947   7.712
23316WAT     H270191   6.173   7.083   7.801
23317WAT      O70192   7.838   7.754   9.077
23317WAT     H170193   7.899   7.791   9.147
23317WAT     H270194   7.746   7.791   9.090
23318WAT      O70195   4.055   7.835   2.666
23318WAT     H170196   4.117   7.818   2.589
23318WAT     H270197   3.998   7.754   2.682
23319WAT      O70198   4.297   6.504   7.571
23319WAT     H170199   4.271   6.574   7.505
23319WAT     H270200   4.242   6.422   7.557
23320WAT      O70201   5.765   4.894   0.683
23320WAT     H170202   5.676   4.869   0.644
23320WAT     H270203   5.814   4.954   0.620
23321WAT      O70204   7.837   3.814   7.872
23321WAT     H170205   7.762   3.764   7.829
23321WAT     H270206   7.862   3.892   7.815
23322WAT      O70207   3.154   7.578   4.014
23322WAT     H170208   3.103   7.601   3.931
23322WAT     H270209   3.205   7.658   4.045
23323WAT      O70210   6.306   5.803   6.441
23323WAT     H170211   6.330   5.845   6.354
23323WAT     H270212   6.359   5.845   6.515
23324WAT      O70213   8.872   3.491   6.101
23324WAT     H170214   8.815   3.570   6.126
23324WAT     H270215   8.930   3.516   6.023
23325WAT      O70216   6.768   6.643   2.409
23325WAT     H170217   6.707   6.722   2.396
23325WAT     H270218   6.748   6.574   2.340
23326WAT      O70219   7.437   2.351   2.341
23326WAT     H170220   7.424   2.442   2.382
23326WAT     H270221   7.491   2.359   2.258
23327WAT      O70222   8.284   1.698   7.217
23327WAT     H170223   8.257   1.780   7.166
23327WAT     H270224   8.369   1.716   7.267
23328WAT      O70225   8.076   9.644   5.308
23328WAT     H170226   8.070   9.640   5.209
23328WAT     H270227   8.108   9.735   5.336
23329WAT      O70228   2.770   7.626   0.021
23329WAT     H170229   2.830   7.696   0.058
23329WAT     H270230   2.716   7.665  -0.054
23330WAT      O70231   6.518   4.774   3.302
23330WAT     H170232   6.458   4.816   3.371
23330WAT     H270233   6.612   4.804   3.318
23331WAT      O70234   3.474   7.378   9.236
23331WAT     H170235   3.432   7.468   9.244
23331WAT     H270236   3.442   7.333   9.153
23332WAT      O70237   2.409   5.813   3.525
23332WAT     H170238   2.410   5.829   3.426
23332WAT     H270239   2.502   5.797   3.556
23333WAT      O70240   9.010   1.818   7.511
23333WAT     H170241   8.981   1.775   7.596
23333WAT     H270242   9.105   1.846   7.518
23334WAT      O70243   0.407   8.070   7.273
23334WAT     H170244   0.332   8.124   7.236
23334WAT     H270245   0.379   7.975   7.284
23335WAT      O70246   0.206   7.276   5.681
23335WAT     H170247   0.179   7.292   5.776
23335WAT     H270248   0.207   7.177   5.663
23336WAT      O70249   6.959   6.538   7.704
23336WAT     H170250   6.875   6.565   7.657
23336WAT     H270251   6.988   6.612   7.765
23337WAT      O70252   7.579   8.175   4.867
23337WAT     H170253   7.481   8.162   4.859
23337WAT     H270254   7.627   8.094   4.831
23338WAT      O70255   7.327   8.173   0.011
23338WAT     H170256   7.348   8.239   0.083
23338WAT     H270257   7.236   8.192  -0.025
23339WAT      O70258   9.277   0.886   8.335
23339WAT     H170259   9.275   0.912   8.239
23339WAT     H270260   9.365   0.912   8.375
23340WAT      O70261   1.940   4.285   9.536
23340WAT     H170262   1.841   4.298   9.541
23340WAT     H270263   1.970   4.231   9.615
23341WAT      O70264   1.390   3.874   0.057
23341WAT     H170265   1.402   3.798  -0.007
23341WAT     H270266   1.313   3.931   0.028
23342WAT      O70267   6.270   2.488   1.440
23342WAT     H170268   6.330   2.480   1.520
23342WAT     H270269   6.263   2.583   1.412
23343WAT      O70270   0.690   1.580   3.884
23343WAT     H170271   0.692   1.636   3.967
23343WAT     H270272   0.784   1.554   3.860
23344WAT      O70273   8.856   8.420   1.423
23344WAT     H170274   8.827   8.512   1.398
23344WAT     H270275   8.810   8.391   1.507
23345WAT      O70276   1.416   7.366   3.411
23345WAT     H170277   1.328   7.334   3.446
23345WAT     H270278   1.422   7.347   3.313
23346WAT      O70279   4.631   8.331   1.011
23346WAT     H170280   4.538   8.300   0.990
23346WAT     H270281   4.684   8.256   1.051
23347WAT      O70282   5.165   6.482   3.113
23347WAT     H170283   5.120   6.398   3.142
23347WAT     H270284   5.098   6.544   3.072
23348WAT      O70285   9.242   5.176   3.803
23348WAT     H170286   9.300   5.200   3.881
23348WAT     H270287   9.146   5.188   3.829
23349WAT      O70288   2.402   3.107   9.107
23349WAT     H170289   2.456   3.125   9.025
23349WAT     H270290   2.459   3.117   9.188
23350WAT      O70291   2.674   1.740   9.811
23350WAT     H170292   2.585   1.698   9.795
23350WAT     H270293   2.695   1.738   9.908
23351WAT      O70294   9.103   8.568   6.344
23351WAT     H170295   9.115   8.525   6.255
23351WAT     H270296   9.144   8.511   6.415
23352WAT      O70297   9.243   4.884   0.635
23352WAT     H170298   9.178   4.808   0.634
23352WAT     H270299   9.223   4.947   0.559
23353WAT      O70300   6.111   2.055   9.481
23353WAT     H170301   6.054   2.124   9.436
23353WAT     H270302   6.190   2.099   9.523
23354WAT      O70303   8.117   3.852   0.907
23354WAT     H170304   8.111   3.870   1.005
23354WAT     H270305   8.166   3.766   0.891
23355WAT      O70306   9.880   2.674   4.186
23355WAT     H170307   9.947   2.716   4.248
23355WAT     H270308   9.910   2.582   4.162
23356WAT      O70309   1.010   2.308   9.219
23356WAT     H170310   1.068   2.237   9.179
23356WAT     H270311   0.954   2.350   9.147
23357WAT      O70312   4.680   5.972   3.652
23357WAT     H170313   4.655   6.061   3.614
23357WAT     H270314   4.684   5.904   3.579
23358WAT      O70315   8.442   5.257   2.718
23358WAT     H170316   8.538   5.285   2.716
23358WAT     H270317   8.435   5.159   2.699
23359WAT      O70318   9.251   7.011   1.165
23359WAT     H170319   9.239   7.015   1.265
23359WAT     H270320   9.310   7.087   1.136
23360WAT      O70321   0.320   9.438   1.186
23360WAT     H170322   0.306   9.536   1.199
23360WAT     H270323   0.327   9.419   1.088
23361WAT      O70324   5.110   0.243   2.836
23361WAT     H170325   5.048   0.286   2.902
23361WAT     H270326   5.174   0.183   2.884
23362WAT      O70327   8.530   9.650   9.815
23362WAT     H170328   8.552   9.739   9.855
23362WAT     H270329   8.507   9.586   9.889
23363WAT      O70330   0.424   7.056   3.962
23363WAT     H170331   0.470   7.101   4.038
23363WAT     H270332   0.326   7.049   3.981
23364WAT      O70333   7.482   7.468   5.171
23364WAT     H170334   7.518   7.376   5.186
23364WAT     H270335   7.429   7.497   5.251
23365WAT      O70336   2.251   0.031   3.539
23365WAT     H170337   2.164  -0.001   3.577
23365WAT     H270338   2.309   0.065   3.613
23366WAT      O70339   5.277   2.091   3.168
23366WAT     H170340   5.252   2.183   3.198
23366WAT     H270341   5.208   2.026   3.200
23367WAT      O70342   0.189   3.232   0.114
23367WAT     H170343   0.254   3.202   0.184
23367WAT     H270344   0.232   3.302   0.057
23368WAT      O70345   2.899   9.448   9.097
23368WAT     H170346   2.974   9.462   9.032
23368WAT     H270347   2.934   9.452   9.190
23369WAT      O70348   9.757   3.012   0.631
23369WAT     H170349   9.842   2.970   0.665
23369WAT     H270350   9.685   3.000   0.699
23370WAT      O70351   6.613   3.518   1.034
23370WAT     H170352   6.582   3.427   1.060
23370WAT     H270353   6.672   3.555   1.106
23371WAT      O70354   8.704   8.283   6.931
23371WAT     H170355   8.618   8.283   6.879
23371WAT     H270356   8.781   8.298   6.869
23372WAT      O70357   1.048   4.649   6.200
23372WAT     H170358   1.044   4.553   6.172
23372WAT     H270359   1.064   4.654   6.299
23373WAT      O70360   1.383   9.524   0.130
23373WAT     H170361   1.414   9.434   0.160
23373WAT     H270362   1.390   9.589   0.205
23374WAT      O70363   8.874   5.318   7.665
23374WAT     H170364   8.951   5.258   7.645
23374WAT     H270365   8.841   5.301   7.758
23375WAT      O70366   4.864   5.946   1.087
23375WAT     H170367   4.952   5.899   1.092
23375WAT     H270368   4.840   5.980   1.177
23376WAT      O70369   6.914   6.170   5.604
23376WAT     H170370   6.936   6.203   5.695
23376WAT     H270371   6.834   6.110   5.608
23377WAT      O70372   7.269   4.299   4.432
23377WAT     H170373   7.221   4.222   4.474
23377WAT     H270374   7.355   4.315   4.480
23378WAT      O70375   6.056   0.237   1.185
23378WAT     H170376   5.995   0.159   1.178
23378WAT     H270377   6.040   0.300   1.110
23379WAT      O70378   1.400   1.693   3.117
23379WAT     H170379   1.493   1.663   3.097
23379WAT     H270380   1.354   1.718   3.032
23380WAT      O70381   0.808   9.308   9.262
23380WAT     H170382   0.736   9.239   9.252
23380WAT     H270383   0.814   9.363   9.179
23381WAT      O70384   0.268   9.620   5.805
23381WAT     H170385   0.339   9.550   5.806
23381WAT     H270386   0.211   9.609   5.724
23382WAT      O70387   2.297   0.409   3.453
23382WAT     H170388   2.312   0.503   3.425
23382WAT     H270389   2.340   0.347   3.388
23383WAT      O70390   5.150   9.258   9.514
23383WAT     H170391   5.141   9.219   9.606
23383WAT     H270392   5.189   9.349   9.520
23384WAT      O70393   3.990   1.466   5.449
23384WAT     H170394   4.068   1.516   5.487
23384WAT     H270395   4.023   1.388   5.397
23385WAT      O70396   2.934   6.967   9.326
23385WAT     H170397   2.919   7.060   9.358
23385WAT     H270398   2.853   6.911   9.349
23386WAT      O70399   0.672   3.663   4.146
23386WAT     H170400   0.741   3.702   4.084
23386WAT     H270401   0.668   3.564   4.133
23387WAT      O70402   9.478   0.836   1.317
23387WAT     H170403   9.526   0.773   1.255
23387WAT     H270404   9.390   0.860   1.278
23388WAT      O70405   0.647   4.482   5.857
23388WAT     H170406   0.563   4.448   5.814
23388WAT     H270407   0.726   4.433   5.821
23389WAT      O70408   5.833   9.693   3.475
23389WAT     H170409   5.887   9.608   3.470
23389WAT     H270410   5.843   9.732   3.567
23390WAT      O70411   9.187   1.462   9.699
23390WAT     H170412   9.222   1.422   9.614
23390WAT     H270413   9.153   1.389   9.759
23391WAT      O70414   2.276   7.269   3.949
23391WAT     H170415   2.331   7.281   4.032
23391WAT     H270416   2.318   7.200   3.890
23392WAT      O70417   6.484   8.915   8.301
23392WAT     H170418   6.573   8.924   8.346
23392WAT     H270419   6.470   8.991   8.238
23393WAT      O70420   6.222   6.605   5.817
23393WAT     H170421   6.134   6.613   5.862
23393WAT     H270422   6.235   6.511   5.786
23394WAT      O70423   0.575   2.611   2.994
23394WAT     H170424   0.646   2.628   2.925
23394WAT     H270425   0.515   2.691   3.000
23395WAT      O70426   7.267   0.877   3.982
23395WAT     H170427   7.170   0.855   3.973
23395WAT     H270428   7.304   0.902   3.892
23396WAT      O70429   4.081   2.461   9.387
23396WAT     H170430   4.129   2.540   9.351
23396WAT     H270431   3.985   2.485   9.404
23397WAT      O70432   4.557   7.678   5.766
23397WAT     H170433   4.526   7.624   5.687
23397WAT     H270434   4.634   7.735   5.739
23398WAT      O70435   8.022   9.308   9.743
23398WAT     H170436   7.973   9.258   9.815
23398WAT     H270437   8.078   9.380   9.786
23399WAT      O70438   9.724   7.676   0.270
23399WAT     H170439   9.778   7.615   0.211
23399WAT     H270440   9.653   7.721   0.216
23400WAT      O70441   2.137   9.057   7.279
23400WAT     H170442   2.155   8.985   7.212
23400WAT     H270443   2.054   9.035   7.330
23401WAT      O70444   4.964   0.506   0.524
23401WAT     H170445   5.042   0.536   0.468
23401WAT     H270446   4.963   0.556   0.610
23402WAT      O70447   9.878   9.445   6.757
23402WAT     H170448   9.896   9.512   6.686
23402WAT     H270449   9.845   9.491   6.840
23403WAT      O70450   6.025   3.223   7.370
23403WAT     H170451   6.038   3.321   7.384
23403WAT     H270452   5.999   3.205   7.275
23404WAT      O70453   0.411   9.781   4.717
23404WAT     H170454   0.432   9.734   4.803
23404WAT     H270455   0.317   9.815   4.720
23405WAT      O70456   3.623   3.762   8.913
23405WAT     H170457   3.706   3.805   8.880
23405WAT     H270458   3.574   3.721   8.836
23406WAT      O70459   1.167   2.130   4.314
23406WAT     H170460   1.194   2.198   4.382
23406WAT     H270461   1.149   2.042   4.360
23407WAT      O70462   3.038   6.570   3.537
23407WAT     H170463   3.056   6.668   3.541
23407WAT     H270464   3.124   6.521   3.523
23408WAT      O70465   7.069   3.029   3.301
23408WAT     H170466   7.051   3.033   3.202
23408WAT     H270467   6.984   3.043   3.351
23409WAT      O70468   1.058   2.063   0.630
23409WAT     H170469   1.056   2.163   0.632
23409WAT     H270470   1.142   2.032   0.586
23410WAT      O70471   4.981   3.655   8.171
23410WAT     H170472   5.029   3.571   8.147
23410WAT     H270473   4.908   3.634   8.236
23411WAT      O70474   9.698   0.901   8.228
23411WAT     H170475   9.740   0.817   8.194
23411WAT     H270476   9.659   0.884   8.319
23412WAT      O70477   9.110   6.028   6.698
23412WAT     H170478   9.061   6.047   6.783
23412WAT     H270479   9.068   5.950   6.652
23413WAT      O70480   0.168   9.223   7.200
23413WAT     H170481   0.136   9.210   7.106
23413WAT     H270482   0.260   9.185   7.210
23414WAT      O70483   6.065   2.695   7.592
23414WAT     H170484   5.993   2.627   7.600
23414WAT     H270485   6.082   2.715   7.495
23415WAT      O70486   2.538   5.098   6.301
23415WAT     H170487   2.487   5.077   6.218
23415WAT     H270488   2.630   5.128   6.277
23416WAT      O70489   1.863   9.819   0.897
23416WAT     H170490   1.831   9.862   0.981
23416WAT     H270491   1.929   9.879   0.852
23417WAT      O70492   2.767   3.555   2.049
23417WAT     H170493   2.848   3.607   2.022
23417WAT     H270494   2.794   3.466   2.085
23418WAT      O70495   6.590   0.163   3.076
23418WAT     H170496   6.623   0.174   3.170
23418WAT     H270497   6.500   0.205   3.067
23419WAT      O70498   3.324   9.281   6.389
23419WAT     H170499   3.359   9.350   6.452
23419WAT     H270500   3.279   9.325   6.312
23420WAT      O70501   0.810   9.012   2.858
23420WAT     H170502   0.775   9.082   2.921
23420WAT     H270503   0.852   8.938   2.911
23421WAT      O70504   1.197   5.410   2.788
23421WAT     H170505   1.149   5.324   2.805
23421WAT     H270506   1.131   5.485   2.785
23422WAT      O70507   2.438   0.334   0.324
23422WAT     H170508   2.367   0.279   0.369
23422WAT     H270509   2.516   0.343   0.386
23423WAT      O70510   1.389   6.241   8.883
23423WAT     H170511   1.326   6.232   8.806
23423WAT     H270512   1.341   6.279   8.962
23424WAT      O70513   5.927   9.176   7.278
23424WAT     H170514   5.844   9.143   7.233
23424WAT     H270515   5.997   9.192   7.208
23425WAT      O70516   2.789   9.682   7.224
23425WAT     H170517   2.758   9.631   7.305
23425WAT     H270518   2.822   9.772   7.253
23426WAT      O70519   4.409   6.293   6.884
23426WAT     H170520   4.424   6.389   6.862
23426WAT     H270521   4.311   6.275   6.894
23427WAT      O70522   8.013   0.545   9.123
23427WAT     H170523   8.014   0.520   9.026
23427WAT     H270524   8.010   0.645   9.131
23428WAT      O70525   4.907   7.979   2.186
23428WAT     H170526   4.901   7.996   2.284
23428WAT     H270527   4.997   8.007   2.152
23429WAT      O70528   6.350   5.002   3.118
23429WAT     H170529   6.315   5.012   3.025
23429WAT     H270530   6.342   4.907   3.148
23430WAT      O70531   8.688   0.095   6.281
23430WAT     H170532   8.661   0.189   6.304
23430WAT     H270533   8.616   0.052   6.227
23431WAT      O70534   8.994   2.428   6.308
23431WAT     H170535   9.031   2.518   6.329
23431WAT     H270536   9.005   2.367   6.387
23432WAT      O70537   5.595   0.399   0.477
23432WAT     H170538   5.629   0.423   0.386
23432WAT     H270539   5.497   0.415   0.482
23433WAT      O70540   1.787   0.569   7.451
23433WAT     H170541   1.856   0.501   7.477
23433WAT     H270542   1.704   0.522   7.421
23434WAT      O70543   9.139   2.418   9.134
23434WAT     H170544   9.208   2.359   9.177
23434WAT     H270545   9.054   2.414   9.187
23435WAT      O70546   4.265   5.142   7.376
23435WAT     H170547   4.268   5.239   7.355
23435WAT     H270548   4.272   5.089   7.291
23436WAT      O70549   2.721   8.154   3.484
23436WAT     H170550   2.817   8.157   3.455
23436WAT     H270551   2.668   8.098   3.421
23437WAT      O70552   0.510   4.363   7.482
23437WAT     H170553   0.584   4.297   7.475
23437WAT     H270554   0.524   4.437   7.416
23438WAT      O70555   7.093   9.024   3.331
23438WAT     H170556   7.023   8.974   3.280
23438WAT     H270557   7.068   9.027   3.428
23439WAT      O70558   0.270   4.017   0.160
23439WAT     H170559   0.262   3.999   0.259
23439WAT     H270560   0.310   4.107   0.146
23440WAT      O70561   9.738   9.328   5.503
23440WAT     H170562   9.659   9.366   5.552
23440WAT     H270563   9.716   9.318   5.406
23441WAT      O70564   6.053   6.300   4.345
23441WAT     H170565   6.084   6.368   4.411
23441WAT     H270566   6.086   6.210   4.373
23442WAT      O70567   1.848   6.164   8.682
23442WAT     H170568   1.830   6.094   8.752
23442WAT     H270569   1.945   6.185   8.680
23443WAT      O70570   9.183   5.114   7.126
23443WAT     H170571   9.177   5.214   7.129
23443WAT     H270572   9.132   5.076   7.202
23444WAT      O70573   8.352   4.244   7.953
23444WAT     H170574   8.348   4.270   8.049
23444WAT     H270575   8.360   4.145   7.946
23445WAT      O70576   6.199   3.308   5.701
23445WAT     H170577   6.296   3.316   5.679
23445WAT     H270578   6.145   3.304   5.617
23446WAT      O70579   8.083   3.448   9.648
23446WAT     H170580   8.031   3.433   9.732
23446WAT     H270581   8.044   3.525   9.598
23447WAT      O70582   1.157   2.700   8.639
23447WAT     H170583   1.138   2.747   8.725
23447WAT     H270584   1.192   2.765   8.572
23448WAT      O70585   4.179   0.032   3.440
23448WAT     H170586   4.127   0.115   3.421
23448WAT     H270587   4.116  -0.045   3.452
23449WAT      O70588   7.096   4.129   4.556
23449WAT     H170589   7.085   4.173   4.645
23449WAT     H270590   7.006   4.114   4.515
23450WAT      O70591   6.252   1.235   2.305
23450WAT     H170592   6.251   1.165   2.235
23450WAT     H270593   6.192   1.209   2.380
23451WAT      O70594   2.357   6.246   6.024
23451WAT     H170595   2.315   6.172   5.970
23451WAT     H270596   2.412   6.206   6.097
23452WAT      O70597   0.216   0.681   5.591
23452WAT     H170598   0.128   0.641   5.569
23452WAT     H270599   0.261   0.627   5.663
23453WAT      O70600   6.031   5.966   6.840
23453WAT     H170601   5.985   6.044   6.798
23453WAT     H270602   5.969   5.887   6.839
23454WAT      O70603   2.909   2.733   4.463
23454WAT     H170604   2.833   2.757   4.403
23454WAT     H270605   2.994   2.733   4.410
23455WAT      O70606   8.444   6.579   7.708
23455WAT     H170607   8.414   6.672   7.685
23455WAT     H270608   8.454   6.525   7.624
23456WAT      O70609   9.285   1.835   7.541
23456WAT     H170610   9.368   1.794   7.580
23456WAT     H270611   9.294   1.935   7.542
23457WAT      O70612   9.675   1.016   6.288
23457WAT     H170613   9.739   0.948   6.324
23457WAT     H270614   9.678   1.098   6.344
23458WAT      O70615   1.377   0.909   2.090
23458WAT     H170616   1.459   0.866   2.051
23458WAT     H270617   1.402   0.996   2.132
23459WAT      O70618   5.840   9.336   7.675
23459WAT     H170619   5.870   9.353   7.581
23459WAT     H270620   5.824   9.238   7.688
23460WAT      O70621   3.606   9.795   0.955
23460WAT     H170622   3.674   9.761   1.019
23460WAT     H270623   3.571   9.883   0.986
23461WAT      O70624   6.967   8.885   6.710
23461WAT     H170625   6.870   8.878   6.688
23461WAT     H270626   7.016   8.808   6.669
23462WAT      O70627   1.306   1.978   5.060
23462WAT     H170628   1.273   1.974   4.966
23462WAT     H270629   1.331   2.072   5.083
23463WAT      O70630   9.029   3.523   9.678
23463WAT     H170631   9.004   3.465   9.756
23463WAT     H270632   9.005   3.618   9.699
23464WAT      O70633   1.553   4.140   9.034
23464WAT     H170634   1.585   4.214   8.974
23464WAT     H270635   1.531   4.060   8.980
23465WAT      O70636   0.949   1.009   8.569
23465WAT     H170637   1.036   1.032   8.527
23465WAT     H270638   0.881   0.991   8.498
23466WAT      O70639   0.680   5.457   4.698
23466WAT     H170640   0.735   5.427   4.775
23466WAT     H270641   0.695   5.395   4.620
23467WAT      O70642   8.824   0.103   5.160
23467WAT     H170643   8.813   0.181   5.220
23467WAT     H270644   8.773   0.118   5.075
23468WAT      O70645   4.126   6.512   1.493
23468WAT     H170646   4.176   6.592   1.526
23468WAT     H270647   4.189   6.436   1.481
23469WAT      O70648   2.431   9.506   1.475
23469WAT     H170649   2.390   9.416   1.490
23469WAT     H270650   2.459   9.514   1.379
23470WAT      O70651   9.007   5.484   8.489
23470WAT     H170652   9.060   5.459   8.408
23470WAT     H270653   8.934   5.418   8.502
23471WAT      O70654   1.232   0.386   8.655
23471WAT     H170655   1.242   0.288   8.639
23471WAT     H270656   1.135   0.410   8.662
23472WAT      O70657   5.748   8.902   8.568
23472WAT     H170658   5.706   8.814   8.545
23472WAT     H270659   5.843   8.887   8.596
23473WAT      O70660   5.393   9.220   1.302
23473WAT     H170661   5.458   9.195   1.375
23473WAT     H270662   5.423   9.180   1.216
23474WAT      O70663   6.343   4.091   7.187
23474WAT     H170664   6.345   4.039   7.272
23474WAT     H270665   6.346   4.189   7.209
23475WAT      O70666   4.865   0.719   8.281
23475WAT     H170667   4.847   0.621   8.292
23475WAT     H270668   4.962   0.738   8.301
23476WAT      O70669   8.442   8.774   7.665
23476WAT     H170670   8.418   8.859   7.713
23476WAT     H270671   8.376   8.703   7.688
23477WAT      O70672   6.488   2.265   1.637
23477WAT     H170673   6.552   2.218   1.699
23477WAT     H270674   6.395   2.250   1.669
23478WAT      O70675   1.174   1.197   0.715
23478WAT     H170676   1.110   1.235   0.648
23478WAT     H270677   1.155   1.235   0.805
23479WAT      O70678   4.471   1.397   5.294
23479WAT     H170679   4.518   1.309   5.289
23479WAT     H270680   4.446   1.426   5.202
23480WAT      O70681   9.539   7.576   9.795
23480WAT     H170682   9.622   7.613   9.753
23480WAT     H270683   9.466   7.571   9.726
23481WAT      O70684   4.514   6.480   0.239
23481WAT     H170685   4.612   6.496   0.252
23481WAT     H270686   4.493   6.474   0.142
23482WAT      O70687   5.841   5.889   5.471
23482WAT     H170688   5.832   5.799   5.514
23482WAT     H270689   5.801   5.959   5.531
23483WAT      O70690   0.769   0.904   6.085
23483WAT     H170691   0.775   0.899   6.185
23483WAT     H270692   0.692   0.849   6.054
23484WAT      O70693   8.487   2.526   6.285
23484WAT     H170694   8.556   2.557   6.349
23484WAT     H270695   8.406   2.496   6.335
23485WAT      O70696   4.037   3.891   0.802
23485WAT     H170697   3.955   3.924   0.849
23485WAT     H270698   4.117   3.902   0.862
23486WAT      O70699   8.295   1.052   9.036
23486WAT     H170700   8.302   1.019   9.130
23486WAT     H270701   8.330   1.146   9.031
23487WAT      O70702   1.343   3.719   3.014
23487WAT     H170703   1.332   3.622   2.992
23487WAT     H270704   1.258   3.754   3.054
23488WAT      O70705   8.130   9.555   5.551
23488WAT     H170706   8.102   9.592   5.463
23488WAT     H270707   8.210   9.496   5.539
23489WAT      O70708   3.440   9.170   4.879
23489WAT     H170709   3.386   9.253   4.865
23489WAT     H270710   3.523   9.192   4.930
23490WAT      O70711   0.398   6.949   1.615
23490WAT     H170712   0.482   6.957   1.561
23490WAT     H270713   0.323   6.995   1.568
23491WAT      O70714   8.230   5.010   1.259
23491WAT     H170715   8.323   5.039   1.285
23491WAT     H270716   8.166   5.035   1.332
23492WAT      O70717   6.921   2.036   6.456
23492WAT     H170718   6.985   2.093   6.405
23492WAT     H270719   6.866   1.982   6.393
23493WAT      O70720   9.336   1.081   6.105
23493WAT     H170721   9.273   1.074   6.028
23493WAT     H270722   9.418   1.026   6.086
23494WAT      O70723   2.235   0.524   4.834
23494WAT     H170724   2.258   0.578   4.915
23494WAT     H270725   2.228   0.585   4.754
23495WAT      O70726   2.615   6.456   1.992
23495WAT     H170727   2.582   6.362   1.990
23495WAT     H270728   2.563   6.511   1.927
23496WAT      O70729   2.854   6.000   7.375
23496WAT     H170730   2.782   5.983   7.443
23496WAT     H270731   2.891   5.913   7.343
23497WAT      O70732   2.943   4.173   4.502
23497WAT     H170733   2.885   4.093   4.517
23497WAT     H270734   2.919   4.216   4.415
23498WAT      O70735   9.135   6.921   8.003
23498WAT     H170736   9.220   6.890   7.961
23498WAT     H270737   9.075   6.843   8.018
23499WAT      O70738   9.425   2.844   5.299
23499WAT     H170739   9.487   2.906   5.251
23499WAT     H270740   9.476   2.764   5.332
23500WAT      O70741   2.772   8.040   0.307
23500WAT     H170742   2.779   7.983   0.389
23500WAT     H270743   2.838   8.114   0.311
23501WAT      O70744   5.746   8.756   7.342
23501WAT     H170745   5.710   8.705   7.420
23501WAT     H270746   5.676   8.820   7.309
23502WAT      O70747   7.048   0.134   0.267
23502WAT     H170748   7.045   0.173   0.358
23502WAT     H270749   7.142   0.135   0.232
23503WAT      O70750   7.614   4.951   6.966
23503WAT     H170751   7.540   5.012   6.994
23503WAT     H270752   7.647   4.901   7.045
23504WAT      O70753   6.850   5.550   5.002
23504WAT     H170754   6.848   5.572   4.905
23504WAT     H270755   6.783   5.606   5.051
23505WAT      O70756   3.496   1.022   4.206
23505WAT     H170757   3.569   1.065   4.259
23505WAT     H270758   3.534   0.978   4.125
23506WAT      O70759   0.753   0.085   0.548
23506WAT     H170760   0.731   0.182   0.562
23506WAT     H270761   0.852   0.072   0.559
23507WAT      O70762   2.380   0.794   2.943
23507WAT     H170763   2.383   0.891   2.964
23507WAT     H270764   2.415   0.742   3.021
23508WAT      O70765   3.854   8.329   2.467
23508WAT     H170766   3.764   8.288   2.455
23508WAT     H270767   3.925   8.263   2.444
23509WAT      O70768   7.120   5.624   6.011
23509WAT     H170769   7.104   5.721   6.030
23509WAT     H270770   7.096   5.604   5.916
23510WAT      O70771   1.177   6.609   1.387
23510WAT     H170772   1.218   6.623   1.477
23510WAT     H270773   1.093   6.663   1.379
23511WAT      O70774   1.545   3.866   4.352
23511WAT     H170775   1.575   3.960   4.365
23511WAT     H270776   1.614   3.816   4.299
23512WAT      O70777   0.817   6.117   6.063
23512WAT     H170778   0.789   6.159   6.150
23512WAT     H270779   0.899   6.063   6.078
23513WAT      O70780   0.026   7.025   6.326
23513WAT     H170781   0.094   6.955   6.350
23513WAT     H270782  -0.058   7.010   6.379
23514WAT      O70783   3.375   3.495   8.971
23514WAT     H170784   3.335   3.405   8.952
23514WAT     H270785   3.405   3.536   8.885
23515WAT      O70786   7.470   4.582   6.279
23515WAT     H170787   7.532   4.637   6.223
23515WAT     H270788   7.464   4.621   6.370
23516WAT      O70789   0.711   3.436   3.713
23516WAT     H170790   0.709   3.336   3.715
23516WAT     H270791   0.618   3.471   3.722
23517WAT      O70792   4.739   9.831   4.386
23517WAT     H170793   4.734   9.880   4.473
23517WAT     H270794   4.660   9.770   4.377
23518WAT      O70795   1.478   7.759   7.048
23518WAT     H170796   1.509   7.832   6.987
23518WAT     H270797   1.549   7.741   7.116
23519WAT      O70798   2.683   6.496   8.097
23519WAT     H170799   2.716   6.500   8.003
23519WAT     H270800   2.743   6.550   8.156
23520WAT      O70801   1.111   1.677   1.040
23520WAT     H170802   1.025   1.627   1.035
23520WAT     H270803   1.163   1.664   0.955
23521WAT      O70804   9.827   2.523   1.388
23521WAT     H170805   9.754   2.575   1.343
23521WAT     H270806   9.914   2.568   1.373
23522WAT      O70807   0.905   2.738   7.376
23522WAT     H170808   0.858   2.824   7.357
23522WAT     H270809   0.945   2.741   7.468
23523WAT      O70810   0.186   6.409   7.063
23523WAT     H170811   0.216   6.316   7.082
23523WAT     H270812   0.259   6.459   7.016
23524WAT      O70813   5.250   2.708   2.364
23524WAT     H170814   5.250   2.617   2.322
23524WAT     H270815   5.273   2.776   2.294
23525WAT      O70816   2.125   6.441   0.695
23525WAT     H170817   2.075   6.515   0.741
23525WAT     H270818   2.062   6.367   0.674
23526WAT      O70819   2.845   9.679   6.688
23526WAT     H170820   2.776   9.678   6.616
23526WAT     H270821   2.802   9.701   6.775
23527WAT      O70822   3.508   7.100   1.608
23527WAT     H170823   3.495   7.196   1.634
23527WAT     H270824   3.463   7.041   1.674
23528WAT      O70825   6.373   6.342   3.472
23528WAT     H170826   6.459   6.330   3.421
23528WAT     H270827   6.316   6.410   3.426
23529WAT      O70828   5.292   3.801   2.232
23529WAT     H170829   5.284   3.893   2.193
23529WAT     H270830   5.209   3.749   2.213
23530WAT      O70831   0.055   2.319   1.569
23530WAT     H170832  -0.004   2.377   1.513
23530WAT     H270833   0.004   2.239   1.601
23531WAT      O70834   5.742   1.053   5.715
23531WAT     H170835   5.750   1.107   5.798
23531WAT     H270836   5.648   1.059   5.681
23532WAT      O70837   7.263   3.554   6.862
23532WAT     H170838   7.301   3.588   6.948
23532WAT     H270839   7.308   3.469   6.837
23533WAT      O70840   7.188   1.539   2.631
23533WAT     H170841   7.135   1.529   2.716
23533WAT     H270842   7.285   1.539   2.653
23534WAT      O70843   1.195   4.600   7.813
23534WAT     H170844   1.292   4.595   7.791
23534WAT     H270845   1.169   4.522   7.869
23535WAT      O70846   0.087   2.112   0.118
23535WAT     H170847   0.018   2.132   0.187
23535WAT     H270848   0.109   2.195   0.067
23536WAT      O70849   2.025   6.003   3.971
23536WAT     H170850   2.069   6.046   3.892
23536WAT     H270851   1.976   6.072   4.023
23537WAT      O70852   4.695   6.346   2.557
23537WAT     H170853   4.734   6.296   2.634
23537WAT     H270854   4.755   6.422   2.533
23538WAT      O70855   3.772   6.262   4.168
23538WAT     H170856   3.769   6.186   4.103
23538WAT     H270857   3.791   6.226   4.260
23539WAT      O70858   8.380   3.928   6.178
23539WAT     H170859   8.433   3.962   6.255
23539WAT     H270860   8.283   3.923   6.203
23540WAT      O70861   0.250   8.370   7.838
23540WAT     H170862   0.189   8.293   7.856
23540WAT     H270863   0.289   8.361   7.746
23541WAT      O70864   1.507   6.913   0.656
23541WAT     H170865   1.496   6.985   0.725
23541WAT     H270866   1.567   6.841   0.692
23542WAT      O70867   4.225   9.493   2.827
23542WAT     H170868   4.149   9.493   2.762
23542WAT     H270869   4.224   9.577   2.881
23543WAT      O70870   4.212   7.763   4.989
23543WAT     H170871   4.214   7.665   4.967
23543WAT     H270872   4.172   7.776   5.080
23544WAT      O70873   5.082   8.212   5.010
23544WAT     H170874   5.070   8.174   5.102
23544WAT     H270875   5.001   8.192   4.955
23545WAT      O70876   8.293   9.726   1.380
23545WAT     H170877   8.299   9.651   1.445
23545WAT     H270878   8.212   9.782   1.400
23546WAT      O70879   0.367   4.036   9.248
23546WAT     H170880   0.344   4.038   9.151
23546WAT     H270881   0.309   3.969   9.295
23547WAT      O70882   3.578   7.728   6.319
23547WAT     H170883   3.638   7.787   6.372
23547WAT     H270884   3.632   7.658   6.272
23548WAT      O70885   2.640   7.018   4.402
23548WAT     H170886   2.682   6.943   4.352
23548WAT     H270887   2.541   7.017   4.387
23549WAT      O70888   3.593   1.031   4.681
23549WAT     H170889   3.636   0.949   4.720
23549WAT     H270890   3.499   1.038   4.716
23550WAT      O70891   3.878   6.083   2.076
23550WAT     H170892   3.961   6.117   2.032
23550WAT     H270893   3.865   5.986   2.053
23551WAT      O70894   9.784   6.848   0.017
23551WAT     H170895   9.713   6.917   0.005
23551WAT     H270896   9.850   6.854  -0.058
23552WAT      O70897   0.888   3.860   7.471
23552WAT     H170898   0.960   3.849   7.402
23552WAT     H270899   0.928   3.901   7.553
23553WAT      O70900   4.043   3.748   9.588
23553WAT     H170901   4.034   3.674   9.522
23553WAT     H270902   4.063   3.710   9.678
23554WAT      O70903   9.489   9.421   5.620
23554WAT     H170904   9.392   9.396   5.625
23554WAT     H270905   9.514   9.471   5.703
23555WAT      O70906   1.779   7.154   5.006
23555WAT     H170907   1.837   7.235   5.002
23555WAT     H270908   1.825   7.078   4.960
23556WAT      O70909   9.233   9.308   0.548
23556WAT     H170910   9.282   9.237   0.498
23556WAT     H270911   9.134   9.299   0.531
23557WAT      O70912   9.336   9.476   1.963
23557WAT     H170913   9.326   9.572   1.988
23557WAT     H270914   9.342   9.420   2.046
23558WAT      O70915   6.573   9.126   0.979
23558WAT     H170916   6.625   9.205   1.012
23558WAT     H270917   6.542   9.143   0.886
23559WAT      O70918   8.606   6.814   2.212
23559WAT     H170919   8.576   6.816   2.308
23559WAT     H270920   8.528   6.795   2.153
23560WAT      O70921   6.274   5.106   0.701
23560WAT     H170922   6.321   5.136   0.783
23560WAT     H270923   6.276   5.006   0.696
23561WAT      O70924   5.358   8.016   3.915
23561WAT     H170925   5.284   8.026   3.981
23561WAT     H270926   5.430   7.958   3.954
23562WAT      O70927   4.297   7.566   9.361
23562WAT     H170928   4.372   7.546   9.423
23562WAT     H270929   4.221   7.608   9.411
23563WAT      O70930   1.902   8.655   5.915
23563WAT     H170931   1.980   8.687   5.969
23563WAT     H270932   1.861   8.575   5.958
23564WAT      O70933   4.090   5.635   1.042
23564WAT     H170934   4.063   5.539   1.047
23564WAT     H270935   4.122   5.656   0.950
23565WAT      O70936   5.027   9.588   2.127
23565WAT     H170937   5.123   9.573   2.147
23565WAT     H270938   4.971   9.562   2.205
23566WAT      O70939   6.124   8.181   2.185
23566WAT     H170940   6.140   8.168   2.283
23566WAT     H270941   6.061   8.257   2.172
23567WAT      O70942   6.925   5.146   5.948
23567WAT     H170943   6.882   5.157   6.038
23567WAT     H270944   7.024   5.139   5.959
23568WAT      O70945   7.905   1.817   7.310
23568WAT     H170946   7.826   1.756   7.312
23568WAT     H270947   7.973   1.785   7.375
23569WAT      O70948   8.943   3.391   5.082
23569WAT     H170949   8.977   3.464   5.023
23569WAT     H270950   9.020   3.347   5.128
23570WAT      O70951   9.407   6.103   6.662
23570WAT     H170952   9.457   6.019   6.682
23570WAT     H270953   9.309   6.086   6.672
23571WAT      O70954   4.204   2.848   4.576
23571WAT     H170955   4.136   2.921   4.570
23571WAT     H270956   4.279   2.877   4.634
23572WAT      O70957   2.518   8.913   1.427
23572WAT     H170958   2.582   8.846   1.390
23572WAT     H270959   2.559   8.958   1.506
23573WAT      O70960   2.377   9.745   8.200
23573WAT     H170961   2.307   9.746   8.128
23573WAT     H270962   2.446   9.814   8.180
23574WAT      O70963   6.324   8.987   2.619
23574WAT     H170964   6.366   8.943   2.539
23574WAT     H270965   6.395   9.012   2.685
23575WAT      O70966   2.873   4.339   2.674
23575WAT     H170967   2.878   4.251   2.626
23575WAT     H270968   2.845   4.323   2.769
23576WAT      O70969   2.286   8.309   4.937
23576WAT     H170970   2.365   8.300   4.997
23576WAT     H270971   2.291   8.242   4.864
23577WAT      O70972   9.250   9.527   0.364
23577WAT     H170973   9.255   9.448   0.426
23577WAT     H270974   9.235   9.610   0.417
23578WAT      O70975   3.246   6.381   6.625
23578WAT     H170976   3.171   6.447   6.614
23578WAT     H270977   3.333   6.430   6.626
23579WAT      O70978   9.595   8.546   5.348
23579WAT     H170979   9.578   8.618   5.415
23579WAT     H270980   9.518   8.483   5.345
23580WAT      O70981   9.666   8.988   7.458
23580WAT     H170982   9.663   8.933   7.541
23580WAT     H270983   9.618   9.075   7.474
23581WAT      O70984   2.564   8.993   2.346
23581WAT     H170985   2.551   8.997   2.247
23581WAT     H270986   2.484   8.950   2.388
23582WAT      O70987   3.067   1.884   8.574
23582WAT     H170988   3.051   1.787   8.591
23582WAT     H270989   3.145   1.915   8.629
23583WAT      O70990   9.646   6.155   9.694
23583WAT     H170991   9.566   6.212   9.709
23583WAT     H270992   9.716   6.207   9.646
23584WAT      O70993   1.698   6.714   8.368
23584WAT     H170994   1.721   6.685   8.461
23584WAT     H270995   1.599   6.725   8.360
23585WAT      O70996   7.499   9.533   1.564
23585WAT     H170997   7.411   9.567   1.596
23585WAT     H270998   7.528   9.457   1.622
23586WAT      O70999   1.216   9.696   9.593
23586WAT     H171000   1.210   9.627   9.666
23586WAT     H271001   1.151   9.673   9.520
23587WAT      O71002   1.134   5.787   4.610
23587WAT     H171003   1.179   5.836   4.686
23587WAT     H271004   1.097   5.701   4.644
23588WAT      O71005   6.349   9.018   5.939
23588WAT     H171006   6.273   9.082   5.937
23588WAT     H271007   6.435   9.068   5.944
23589WAT      O71008   3.516   5.265   1.410
23589WAT     H171009   3.513   5.168   1.385
23589WAT     H271010   3.608   5.288   1.443
23590WAT      O71011   5.906   5.094   6.359
23590WAT     H171012   5.927   5.190   6.375
23590WAT     H271013   5.876   5.081   6.265
23591WAT      O71014   1.548   8.813   5.242
23591WAT     H171015   1.504   8.739   5.190
23591WAT     H271016   1.641   8.825   5.209
23592WAT      O71017   5.627   8.195   3.128
23592WAT     H171018   5.680   8.257   3.186
23592WAT     H271019   5.541   8.172   3.174
23593WAT      O71020   3.019   7.991   8.472
23593WAT     H171021   3.067   8.037   8.547
23593WAT     H271022   3.047   7.895   8.468
23594WAT      O71023   9.096   0.865   3.386
23594WAT     H171024   9.005   0.845   3.351
23594WAT     H271025   9.100   0.961   3.415
23595WAT      O71026   1.970   3.502   4.244
23595WAT     H171027   1.872   3.522   4.253
23595WAT     H271028   1.986   3.452   4.159
23596WAT      O71029   7.578   7.498   4.042
23596WAT     H171030   7.583   7.562   3.966
23596WAT     H271031   7.656   7.437   4.040
23597WAT      O71032   7.129   2.864   7.970
23597WAT     H171033   7.122   2.786   7.908
23597WAT     H271034   7.214   2.857   8.022
23598WAT      O71035   7.500   8.820   5.314
23598WAT     H171036   7.513   8.790   5.219
23598WAT     H271037   7.469   8.915   5.314
23599WAT      O71038   4.553   8.417   8.271
23599WAT     H171039   4.463   8.453   8.247
23599WAT     H271040   4.622   8.488   8.256
23600WAT      O71041   7.779   1.211   7.953
23600WAT     H171042   7.857   1.225   7.892
23600WAT     H271043   7.811   1.201   8.047
23601WAT      O71044   0.165   7.176   0.848
23601WAT     H171045   0.219   7.260   0.847
23601WAT     H271046   0.138   7.154   0.941
23602WAT      O71047   5.200   4.926   1.307
23602WAT     H171048   5.212   4.842   1.360
23602WAT     H271049   5.148   4.992   1.361
23603WAT      O71050   9.444   1.954   6.899
23603WAT     H171051   9.430   2.045   6.860
23603WAT     H271052   9.375   1.938   6.970
23604WAT      O71053   6.715   9.807   4.160
23604WAT     H171054   6.743   9.890   4.112
23604WAT     H271055   6.795   9.749   4.175
23605WAT      O71056   1.531   5.409   0.532
23605WAT     H171057   1.465   5.477   0.564
23605WAT     H271058   1.617   5.455   0.508
23606WAT      O71059   5.121   5.844   1.085
23606WAT     H171060   5.136   5.748   1.062
23606WAT     H271061   5.195   5.899   1.047
23607WAT      O71062   7.708   2.003   8.638
23607WAT     H171063   7.773   1.958   8.698
23607WAT     H271064   7.757   2.056   8.569
23608WAT      O71065   0.928   7.670   7.547
23608WAT     H171066   0.931   7.675   7.647
23608WAT     H271067   0.895   7.579   7.520
23609WAT      O71068   6.320   0.683   1.833
23609WAT     H171069   6.332   0.584   1.847
23609WAT     H271070   6.320   0.703   1.735
23610WAT      O71071   9.678   6.443   8.444
23610WAT     H171072   9.731   6.493   8.375
23610WAT     H271073   9.610   6.505   8.484
23611WAT      O71074   5.955   2.873   0.133
23611WAT     H171075   5.918   2.799   0.077
23611WAT     H271076   6.046   2.848   0.166
23612WAT      O71077   6.068   5.242   1.888
23612WAT     H171078   6.137   5.171   1.870
23612WAT     H271079   6.013   5.215   1.966
23613WAT      O71080   5.087   6.380   2.368
23613WAT     H171081   5.036   6.457   2.408
23613WAT     H271082   5.096   6.393   2.270
23614WAT      O71083   1.598   9.243   0.382
23614WAT     H171084   1.606   9.342   0.398
23614WAT     H271085   1.687   9.207   0.352
23615WAT      O71086   3.254   7.266   1.413
23615WAT     H171087   3.246   7.167   1.421
23615WAT     H271088   3.324   7.299   1.477
23616WAT      O71089   5.551   6.453   5.744
23616WAT     H171090   5.509   6.484   5.830
23616WAT     H271091   5.530   6.357   5.730
23617WAT      O71092   4.283   3.164   0.686
23617WAT     H171093   4.294   3.217   0.602
23617WAT     H271094   4.202   3.196   0.735
23618WAT      O71095   6.077   3.400   6.854
23618WAT     H171096   6.155   3.463   6.853
23618WAT     H271097   6.106   3.312   6.893
23619WAT      O71098   6.073   5.392   7.898
23619WAT     H171099   6.098   5.448   7.976
23619WAT     H271100   6.148   5.329   7.876
23620WAT      O71101   9.441   7.239   7.497
23620WAT     H171102   9.351   7.208   7.466
23620WAT     H271103   9.504   7.162   7.499
23621WAT      O71104   1.028   6.605   3.161
23621WAT     H171105   0.951   6.620   3.222
23621WAT     H271106   1.114   6.625   3.209
23622WAT      O71107   2.561   3.944   6.570
23622WAT     H171108   2.658   3.922   6.574
23622WAT     H271109   2.509   3.878   6.625
23623WAT      O71110   6.945   0.884   2.796
23623WAT     H171111   6.967   0.918   2.887
23623WAT     H271112   7.008   0.810   2.772
23624WAT      O71113   5.789   3.657   4.530
23624WAT     H171114   5.821   3.707   4.450
23624WAT     H271115   5.791   3.717   4.610
23625WAT      O71116   5.279   7.850   4.654
23625WAT     H171117   5.315   7.888   4.570
23625WAT     H271118   5.352   7.847   4.723
23626WAT      O71119   5.572   9.802   8.523
23626WAT     H171120   5.622   9.849   8.450
23626WAT     H271121   5.595   9.843   8.611
23627WAT      O71122   5.565   3.435   9.853
23627WAT     H171123   5.617   3.349   9.855
23627WAT     H271124   5.472   3.418   9.885
23628WAT      O71125   6.693   8.045   6.639
23628WAT     H171126   6.599   8.019   6.663
23628WAT     H271127   6.751   8.036   6.720
23629WAT      O71128   3.561   8.359   4.918
23629WAT     H171129   3.648   8.315   4.939
23629WAT     H271130   3.486   8.301   4.948
23630WAT      O71131   9.767   4.185   7.142
23630WAT     H171132   9.799   4.175   7.236
23630WAT     H271133   9.838   4.154   7.079
23631WAT      O71134   5.174   9.382   1.345
23631WAT     H171135   5.258   9.327   1.349
23631WAT     H271136   5.150   9.412   1.437
23632WAT      O71137   3.170   9.402   1.949
23632WAT     H171138   3.161   9.395   1.849
23632WAT     H271139   3.232   9.476   1.971
23633WAT      O71140   4.653   1.726   7.228
23633WAT     H171141   4.578   1.745   7.164
23633WAT     H271142   4.643   1.634   7.265
23634WAT      O71143   2.817   7.699   8.536
23634WAT     H171144   2.802   7.716   8.634
23634WAT     H271145   2.730   7.677   8.493
23635WAT      O71146   7.949   7.834   2.725
23635WAT     H171147   7.898   7.917   2.703
23635WAT     H271148   7.953   7.774   2.645
23636WAT      O71149   5.498   7.508   3.719
23636WAT     H171150   5.569   7.453   3.675
23636WAT     H271151   5.523   7.605   3.714
23637WAT      O71152   8.362   1.669   0.613
23637WAT     H171153   8.445   1.615   0.608
23637WAT     H271154   8.283   1.608   0.626
23638WAT      O71155   6.168   5.907   8.927
23638WAT     H171156   6.194   5.959   9.008
23638WAT     H271157   6.250   5.877   8.878
23639WAT      O71158   6.948   3.916   3.427
23639WAT     H171159   6.873   3.850   3.431
23639WAT     H271160   6.994   3.919   3.516
23640WAT      O71161   2.456   0.270   4.071
23640WAT     H171162   2.422   0.361   4.096
23640WAT     H271163   2.402   0.200   4.118
23641WAT      O71164   2.534   7.432   0.725
23641WAT     H171165   2.459   7.379   0.766
23641WAT     H271166   2.590   7.372   0.668
23642WAT      O71167   7.313   2.367   3.529
23642WAT     H171168   7.409   2.393   3.528
23642WAT     H271169   7.269   2.404   3.611
23643WAT      O71170   3.540   6.186   1.658
23643WAT     H171171   3.544   6.116   1.587
23643WAT     H271172   3.448   6.187   1.698
23644WAT      O71173   5.389   5.241   1.072
23644WAT     H171174   5.397   5.157   1.125
23644WAT     H271175   5.407   5.222   0.975
23645WAT      O71176   3.691   3.118   2.209
23645WAT     H171177   3.657   3.191   2.267
23645WAT     H271178   3.667   3.136   2.114
23646WAT      O71179   6.788   9.070   7.520
23646WAT     H171180   6.853   9.079   7.596
23646WAT     H271181   6.710   9.131   7.536
23647WAT      O71182   4.029   4.109   3.497
23647WAT     H171183   4.059   4.205   3.500
23647WAT     H271184   3.945   4.099   3.552
23648WAT      O71185   1.366   9.708   6.752
23648WAT     H171186   1.460   9.739   6.748
23648WAT     H271187   1.308   9.766   6.695
23649WAT      O71188   8.419   1.704   1.472
23649WAT     H171189   8.416   1.787   1.528
23649WAT     H271190   8.488   1.715   1.401
23650WAT      O71191   2.304   3.593   4.572
23650WAT     H171192   2.302   3.534   4.492
23650WAT     H271193   2.270   3.543   4.652
23651WAT      O71194   3.101   1.589   0.757
23651WAT     H171195   3.154   1.664   0.719
23651WAT     H271196   3.154   1.544   0.829
23652WAT      O71197   9.859   9.714   3.586
23652WAT     H171198   9.932   9.646   3.597
23652WAT     H271199   9.803   9.690   3.507
23653WAT      O71200   4.259   2.705   9.667
23653WAT     H171201   4.280   2.615   9.628
23653WAT     H271202   4.191   2.751   9.609
23654WAT      O71203   5.309   7.053   4.122
23654WAT     H171204   5.282   7.078   4.216
23654WAT     H271205   5.408   7.044   4.118
23655WAT      O71206   1.426   3.050   1.977
23655WAT     H171207   1.524   3.034   1.968
23655WAT     H271208   1.383   2.969   2.019
23656WAT      O71209   1.140   1.288   0.973
23656WAT     H171210   1.068   1.297   1.041
23656WAT     H271211   1.161   1.379   0.935
23657WAT      O71212   4.328   3.509   7.500
23657WAT     H171213   4.426   3.490   7.494
23657WAT     H271214   4.295   3.488   7.592
23658WAT      O71215   4.434   0.872   8.984
23658WAT     H171216   4.420   0.961   9.026
23658WAT     H271217   4.347   0.822   8.982
23659WAT      O71218   0.835   9.417   3.256
23659WAT     H171219   0.739   9.412   3.228
23659WAT     H271220   0.841   9.404   3.356
23660WAT      O71221   0.764   0.059   3.082
23660WAT     H171222   0.828  -0.017   3.075
23660WAT     H271223   0.715   0.070   2.995
23661WAT      O71224   3.922   2.875   5.840
23661WAT     H171225   3.929   2.840   5.746
23661WAT     H271226   3.826   2.891   5.862
23662WAT      O71227   3.856   6.759   0.422
23662WAT     H171228   3.867   6.858   0.430
23662WAT     H271229   3.759   6.736   0.427
23663WAT      O71230   9.426   4.612   1.579
23663WAT     H171231   9.400   4.516   1.587
23663WAT     H271232   9.408   4.645   1.486
23664WAT      O71233   5.387   5.421   7.430
23664WAT     H171234   5.407   5.484   7.505
23664WAT     H271235   5.303   5.370   7.450
23665WAT      O71236   8.808   0.802   8.120
23665WAT     H171237   8.839   0.725   8.175
23665WAT     H271238   8.884   0.834   8.063
23666WAT      O71239   8.501   2.885   7.965
23666WAT     H171240   8.464   2.883   7.872
23666WAT     H271241   8.520   2.792   7.995
23667WAT      O71242   4.131   2.871   3.715
23667WAT     H171243   4.049   2.846   3.663
23667WAT     H271244   4.151   2.800   3.783
23668WAT      O71245   0.300   2.341   0.525
23668WAT     H171246   0.236   2.415   0.546
23668WAT     H271247   0.358   2.324   0.605
23669WAT      O71248   5.300   2.620   1.317
23669WAT     H171249   5.288   2.711   1.277
23669WAT     H271250   5.347   2.560   1.252
23670WAT      O71251   0.224   7.525   8.464
23670WAT     H171252   0.139   7.474   8.447
23670WAT     H271253   0.284   7.518   8.385
23671WAT      O71254   7.104   2.951   2.600
23671WAT     H171255   7.203   2.940   2.598
23671WAT     H271256   7.061   2.878   2.548
23672WAT      O71257   2.243   2.032   7.561
23672WAT     H171258   2.230   1.950   7.505
23672WAT     H271259   2.154   2.065   7.593
23673WAT      O71260   0.186   0.049   8.223
23673WAT     H171261   0.092   0.049   8.189
23673WAT     H271262   0.225  -0.042   8.216
23674WAT      O71263   8.141   7.050   9.070
23674WAT     H171264   8.076   6.989   9.027
23674WAT     H271265   8.158   7.020   9.164
23675WAT      O71266   3.685   3.766   9.834
23675WAT     H171267   3.697   3.793   9.929
23675WAT     H271268   3.735   3.830   9.775
23676WAT      O71269   1.584   0.263   9.762
23676WAT     H171270   1.485   0.267   9.779
23676WAT     H271271   1.612   0.167   9.755
23677WAT      O71272   0.564   2.516   6.462
23677WAT     H171273   0.595   2.547   6.552
23677WAT     H271274   0.626   2.550   6.391
23678WAT      O71275   0.391   7.985   8.996
23678WAT     H171276   0.430   7.917   8.934
23678WAT     H271277   0.317   7.944   9.049
23679WAT      O71278   8.185   7.019   1.388
23679WAT     H171279   8.215   7.036   1.482
23679WAT     H271280   8.203   6.923   1.365
23680WAT      O71281   2.944   2.331   5.063
23680WAT     H171282   2.935   2.237   5.096
23680WAT     H271283   2.917   2.394   5.136
23681WAT      O71284   1.148   9.751   2.922
23681WAT     H171285   1.205   9.817   2.971
23681WAT     H271286   1.192   9.661   2.924
23682WAT      O71287   3.065   3.145   8.587
23682WAT     H171288   2.987   3.165   8.647
23682WAT     H271289   3.070   3.046   8.572
23683WAT      O71290   3.652   6.566   8.639
23683WAT     H171291   3.673   6.603   8.548
23683WAT     H271292   3.677   6.470   8.643
23684WAT      O71293   8.012   0.947   2.630
23684WAT     H171294   8.001   0.853   2.662
23684WAT     H271295   7.969   1.009   2.695
23685WAT      O71296   4.127   8.313   4.381
23685WAT     H171297   4.044   8.341   4.332
23685WAT     H271298   4.207   8.338   4.328
23686WAT      O71299   0.355   1.344   1.179
23686WAT     H171300   0.392   1.252   1.194
23686WAT     H271301   0.289   1.365   1.251
23687WAT      O71302   6.330   3.103   6.760
23687WAT     H171303   6.403   3.038   6.784
23687WAT     H271304   6.269   3.114   6.838
23688WAT      O71305   4.457   5.379   0.773
23688WAT     H171306   4.464   5.440   0.851
23688WAT     H271307   4.361   5.368   0.747
23689WAT      O71308   8.820   8.437   7.615
23689WAT     H171309   8.845   8.341   7.630
23689WAT     H271310   8.721   8.446   7.619
23690WAT      O71311   6.986   2.160   5.758
23690WAT     H171312   6.936   2.097   5.699
23690WAT     H271313   7.083   2.136   5.760
23691WAT      O71314   9.787   2.916   7.216
23691WAT     H171315   9.845   2.910   7.135
23691WAT     H271316   9.845   2.932   7.296
23692WAT      O71317   3.061   1.187   9.149
23692WAT     H171318   3.143   1.171   9.202
23692WAT     H271319   3.054   1.119   9.076
23693WAT      O71320   6.577   5.496   4.566
23693WAT     H171321   6.617   5.424   4.622
23693WAT     H271322   6.503   5.457   4.510
23694WAT      O71323   5.113   0.327   1.870
23694WAT     H171324   5.105   0.227   1.870
23694WAT     H271325   5.094   0.362   1.962
23695WAT      O71326   2.916   1.049   7.514
23695WAT     H171327   2.837   1.011   7.465
23695WAT     H271328   2.889   1.069   7.609
23696WAT      O71329   4.314   2.539   6.709
23696WAT     H171330   4.408   2.549   6.741
23696WAT     H271331   4.315   2.496   6.618
23697WAT      O71332   4.348   6.365   6.150
23697WAT     H171333   4.254   6.331   6.156
23697WAT     H271334   4.386   6.374   6.242
23698WAT      O71335   8.510   1.177   3.546
23698WAT     H171336   8.528   1.090   3.499
23698WAT     H271337   8.421   1.212   3.517
23699WAT      O71338   2.001   6.641   0.807
23699WAT     H171339   1.980   6.737   0.787
23699WAT     H271340   2.002   6.628   0.906
23700WAT      O71341   1.124   0.855   7.699
23700WAT     H171342   1.112   0.790   7.624
23700WAT     H271343   1.039   0.905   7.715
23701WAT      O71344   0.978   2.838   6.979
23701WAT     H171345   0.995   2.928   7.017
23701WAT     H271346   1.039   2.771   7.022
23702WAT      O71347   7.943   9.514   4.856
23702WAT     H171348   7.858   9.567   4.855
23702WAT     H271349   7.922   9.417   4.840
23703WAT      O71350   6.448   7.524   8.472
23703WAT     H171351   6.370   7.461   8.480
23703WAT     H271352   6.533   7.472   8.468
23704WAT      O71353   5.398   4.221   0.802
23704WAT     H171354   5.453   4.173   0.871
23704WAT     H271355   5.421   4.318   0.803
23705WAT      O71356   8.636   7.264   6.855
23705WAT     H171357   8.610   7.221   6.769
23705WAT     H271358   8.590   7.217   6.931
23706WAT      O71359   9.683   3.004   6.011
23706WAT     H171360   9.680   3.017   6.111
23706WAT     H271361   9.777   3.014   5.979
23707WAT      O71362   1.743   5.966   0.696
23707WAT     H171363   1.693   5.886   0.730
23707WAT     H271364   1.692   6.008   0.621
23708WAT      O71365   2.696   3.734   6.335
23708WAT     H171366   2.660   3.688   6.255
23708WAT     H271367   2.699   3.833   6.318
23709WAT      O71368   8.522   3.026   6.602
23709WAT     H171369   8.432   3.013   6.561
23709WAT     H271370   8.565   3.108   6.564
23710WAT      O71371   2.708   4.000   2.795
23710WAT     H171372   2.769   3.950   2.857
23710WAT     H271373   2.726   4.098   2.802
23711WAT      O71374   1.188   1.525   3.649
23711WAT     H171375   1.273   1.573   3.628
23711WAT     H271376   1.153   1.481   3.567
23712WAT      O71377   7.547   2.260   7.896
23712WAT     H171378   7.482   2.257   7.820
23712WAT     H271379   7.546   2.352   7.936
23713WAT      O71380   8.764   3.943   1.140
23713WAT     H171381   8.812   4.027   1.165
23713WAT     H271382   8.742   3.891   1.223
23714WAT      O71383   9.228   1.389   4.215
23714WAT     H171384   9.241   1.318   4.284
23714WAT     H271385   9.141   1.374   4.168
23715WAT      O71386   8.153   6.338   0.831
23715WAT     H171387   8.090   6.378   0.765
23715WAT     H271388   8.210   6.270   0.784
23716WAT      O71389   9.036   4.379   1.232
23716WAT     H171390   8.960   4.400   1.170
23716WAT     H271391   9.121   4.376   1.180
23717WAT      O71392   8.942   7.471   6.023
23717WAT     H171393   8.893   7.448   5.939
23717WAT     H271394   8.910   7.559   6.057
23718WAT      O71395   7.125   4.609   3.575
23718WAT     H171396   7.159   4.690   3.527
23718WAT     H271397   7.037   4.631   3.619
23719WAT      O71398   8.360   2.777   1.614
23719WAT     H171399   8.314   2.859   1.648
23719WAT     H271400   8.429   2.804   1.546
23720WAT      O71401   4.469   0.126   2.009
23720WAT     H171402   4.415   0.106   1.927
23720WAT     H271403   4.528   0.048   2.029
23721WAT      O71404   7.858   2.906   9.414
23721WAT     H171405   7.868   2.832   9.481
23721WAT     H271406   7.907   2.883   9.330
23722WAT      O71407   7.507   7.255   1.813
23722WAT     H171408   7.532   7.225   1.721
23722WAT     H271409   7.584   7.240   1.875
23723WAT      O71410   5.193   8.226   6.572
23723WAT     H171411   5.144   8.305   6.609
23723WAT     H271412   5.284   8.253   6.542
23724WAT      O71413   1.259   7.560   3.792
23724WAT     H171414   1.305   7.619   3.726
23724WAT     H271415   1.175   7.524   3.752
23725WAT      O71416   8.917   7.108   3.161
23725WAT     H171417   8.907   7.010   3.177
23725WAT     H271418   8.983   7.123   3.088
23726WAT      O71419   9.771   8.394   4.361
23726WAT     H171420   9.858   8.359   4.394
23726WAT     H271421   9.788   8.474   4.302
23727WAT      O71422   1.336   7.841   3.149
23727WAT     H171423   1.380   7.854   3.060
23727WAT     H271424   1.250   7.791   3.137
23728WAT      O71425   3.375   4.392   7.301
23728WAT     H171426   3.383   4.472   7.360
23728WAT     H271427   3.312   4.411   7.226
23729WAT      O71428   0.675   6.506   8.224
23729WAT     H171429   0.584   6.539   8.200
23729WAT     H271430   0.737   6.518   8.146
23730WAT      O71431   7.061   9.023   2.797
23730WAT     H171432   7.065   9.042   2.895
23730WAT     H271433   7.043   8.925   2.783
23731WAT      O71434   2.659   4.506   8.032
23731WAT     H171435   2.720   4.585   8.028
23731WAT     H271436   2.566   4.536   8.052
23732WAT      O71437   6.145   1.222   5.439
23732WAT     H171438   6.181   1.136   5.402
23732WAT     H271439   6.054   1.207   5.477
23733WAT      O71440   2.641   6.633   1.059
23733WAT     H171441   2.674   6.539   1.073
23733WAT     H271442   2.544   6.631   1.038
23734WAT      O71443   8.770   8.118   2.936
23734WAT     H171444   8.753   8.177   2.856
23734WAT     H271445   8.682   8.082   2.969
23735WAT      O71446   6.712   3.366   8.365
23735WAT     H171447   6.786   3.322   8.315
23735WAT     H271448   6.649   3.408   8.300
23736WAT      O71449   5.465   5.630   3.432
23736WAT     H171450   5.418   5.560   3.378
23736WAT     H271451   5.564   5.624   3.416
23737WAT      O71452   1.603   0.247   3.132
23737WAT     H171453   1.612   0.149   3.113
23737WAT     H271454   1.537   0.260   3.206
23738WAT      O71455   8.193   4.737   1.837
23738WAT     H171456   8.189   4.763   1.740
23738WAT     H271457   8.171   4.816   1.893
23739WAT      O71458   2.138   9.468   6.245
23739WAT     H171459   2.083   9.489   6.164
23739WAT     H271460   2.206   9.398   6.221
23740WAT      O71461   3.662   9.679   6.877
23740WAT     H171462   3.642   9.683   6.975
23740WAT     H271463   3.729   9.607   6.860
23741WAT      O71464   1.557   8.516   4.845
23741WAT     H171465   1.549   8.425   4.885
23741WAT     H271466   1.503   8.521   4.761
23742WAT      O71467   2.738   4.577   6.602
23742WAT     H171468   2.826   4.529   6.601
23742WAT     H271469   2.752   4.673   6.626
23743WAT      O71470   2.582   5.393   2.049
23743WAT     H171471   2.619   5.437   2.130
23743WAT     H271472   2.657   5.362   1.990
23744WAT      O71473   6.744   0.365   9.054
23744WAT     H171474   6.819   0.302   9.072
23744WAT     H271475   6.722   0.415   9.137
23745WAT      O71476   8.658   9.676   5.370
23745WAT     H171477   8.582   9.612   5.371
23745WAT     H271478   8.622   9.770   5.371
23746WAT      O71479   9.388   2.106   7.618
23746WAT     H171480   9.486   2.113   7.600
23746WAT     H271481   9.363   2.167   7.693
23747WAT      O71482   4.630   1.193   3.717
23747WAT     H171483   4.562   1.263   3.696
23747WAT     H271484   4.584   1.114   3.759
23748WAT      O71485   7.274   4.264   9.412
23748WAT     H171486   7.183   4.263   9.371
23748WAT     H271487   7.337   4.311   9.350
23749WAT      O71488   7.572   2.433   3.557
23749WAT     H171489   7.611   2.504   3.498
23749WAT     H271490   7.625   2.349   3.547
23750WAT      O71491   8.883   5.774   6.479
23750WAT     H171492   8.965   5.792   6.426
23750WAT     H271493   8.871   5.846   6.548
23751WAT      O71494   7.706   7.130   2.670
23751WAT     H171495   7.760   7.045   2.668
23751WAT     H271496   7.610   7.108   2.657
23752WAT      O71497   4.767   5.643   7.347
23752WAT     H171498   4.776   5.737   7.380
23752WAT     H271499   4.699   5.640   7.273
23753WAT      O71500   6.096   4.767   8.344
23753WAT     H171501   6.167   4.782   8.276
23753WAT     H271502   6.077   4.853   8.391
23754WAT      O71503   3.798   0.191   2.875
23754WAT     H171504   3.761   0.194   2.967
23754WAT     H271505   3.725   0.171   2.810
23755WAT      O71506   9.493   0.200   6.577
23755WAT     H171507   9.490   0.153   6.665
23755WAT     H271508   9.420   0.164   6.518
23756WAT      O71509   6.193   1.383   4.464
23756WAT     H171510   6.170   1.349   4.374
23756WAT     H271511   6.136   1.463   4.485
23757WAT      O71512   1.550   9.074   5.424
23757WAT     H171513   1.613   9.054   5.349
23757WAT     H271514   1.511   9.165   5.412
23758WAT      O71515   8.141   3.744   6.447
23758WAT     H171516   8.099   3.726   6.358
23758WAT     H271517   8.135   3.841   6.468
23759WAT      O71518   7.243   3.351   8.848
23759WAT     H171519   7.254   3.331   8.945
23759WAT     H271520   7.290   3.436   8.826
23760WAT      O71521   7.808   1.003   3.834
23760WAT     H171522   7.785   0.907   3.819
23760WAT     H271523   7.887   1.028   3.778
23761WAT      O71524   0.736   0.799   3.596
23761WAT     H171525   0.663   0.829   3.535
23761WAT     H271526   0.770   0.878   3.648
23762WAT      O71527   8.294   1.298   3.177
23762WAT     H171528   8.341   1.386   3.186
23762WAT     H271529   8.362   1.226   3.160
23763WAT      O71530   4.488   5.658   8.350
23763WAT     H171531   4.528   5.572   8.321
23763WAT     H271532   4.432   5.696   8.276
23764WAT      O71533   8.698   4.629   3.309
23764WAT     H171534   8.607   4.589   3.302
23764WAT     H271535   8.754   4.599   3.232
23765WAT      O71536   9.749   5.192   3.081
23765WAT     H171537   9.738   5.247   3.164
23765WAT     H271538   9.833   5.138   3.088
23766WAT      O71539   5.317   9.375   6.115
23766WAT     H171540   5.344   9.331   6.201
23766WAT     H271541   5.391   9.434   6.084
23767WAT      O71542   1.556   8.076   5.534
23767WAT     H171543   1.653   8.079   5.556
23767WAT     H271544   1.508   8.148   5.584
23768WAT      O71545   2.374   0.280   4.995
23768WAT     H171546   2.387   0.221   4.915
23768WAT     H271547   2.329   0.365   4.966
23769WAT      O71548   0.719   5.114   7.922
23769WAT     H171549   0.786   5.045   7.895
23769WAT     H271550   0.676   5.152   7.840
23770WAT      O71551   6.805   0.151   8.352
23770WAT     H171552   6.821   0.105   8.264
23770WAT     H271553   6.861   0.233   8.357
23771WAT      O71554   0.758   2.525   5.570
23771WAT     H171555   0.708   2.476   5.641
23771WAT     H271556   0.854   2.536   5.598
23772WAT      O71557   5.206   5.656   0.672
23772WAT     H171558   5.145   5.659   0.592
23772WAT     H271559   5.258   5.741   0.677
23773WAT      O71560   8.307   2.681   9.850
23773WAT     H171561   8.399   2.642   9.844
23773WAT     H271562   8.248   2.620   9.905
23774WAT      O71563   7.669   1.100   2.412
23774WAT     H171564   7.570   1.089   2.405
23774WAT     H271565   7.701   1.053   2.494
23775WAT      O71566   4.254   3.803   9.371
23775WAT     H171567   4.190   3.772   9.441
23775WAT     H271568   4.259   3.735   9.298
23776WAT      O71569   3.958   1.878   4.696
23776WAT     H171570   3.973   1.940   4.619
23776WAT     H271571   4.030   1.892   4.764
23777WAT      O71572   2.172   4.414   9.505
23777WAT     H171573   2.169   4.510   9.477
23777WAT     H271574   2.084   4.371   9.483
23778WAT      O71575   2.142   3.278   3.613
23778WAT     H171576   2.097   3.192   3.635
23778WAT     H271577   2.098   3.320   3.534
23779WAT      O71578   9.466   6.183   6.416
23779WAT     H171579   9.434   6.153   6.506
23779WAT     H271580   9.543   6.126   6.388
23780WAT      O71581   4.697   4.745   7.169
23780WAT     H171582   4.713   4.781   7.077
23780WAT     H271583   4.783   4.741   7.219
23781WAT      O71584   3.780   2.373   1.181
23781WAT     H171585   3.852   2.375   1.112
23781WAT     H271586   3.690   2.367   1.137
23782WAT      O71587   0.206   3.627   3.477
23782WAT     H171588   0.176   3.538   3.443
23782WAT     H271589   0.238   3.683   3.400
23783WAT      O71590   2.482   0.579   3.592
23783WAT     H171591   2.568   0.548   3.633
23783WAT     H271592   2.429   0.500   3.563
23784WAT      O71593   1.169   3.823   9.411
23784WAT     H171594   1.190   3.882   9.489
23784WAT     H271595   1.204   3.864   9.327
23785WAT      O71596   6.548   5.913   4.403
23785WAT     H171597   6.486   5.849   4.358
23785WAT     H271598   6.631   5.865   4.431
23786WAT      O71599   4.461   6.923   4.704
23786WAT     H171600   4.363   6.931   4.725
23786WAT     H271601   4.476   6.947   4.608
23787WAT      O71602   3.324   0.304   3.589
23787WAT     H171603   3.328   0.293   3.688
23787WAT     H271604   3.244   0.257   3.552
23788WAT      O71605   4.937   2.059   9.347
23788WAT     H171606   4.900   2.133   9.291
23788WAT     H271607   4.885   2.054   9.432
23789WAT      O71608   7.623   2.298   5.186
23789WAT     H171609   7.605   2.390   5.153
23789WAT     H271610   7.568   2.279   5.268
23790WAT      O71611   0.310   8.131   3.140
23790WAT     H171612   0.389   8.127   3.078
23790WAT     H271613   0.230   8.162   3.089
23791WAT      O71614   4.695   3.323   6.575
23791WAT     H171615   4.598   3.316   6.552
23791WAT     H271616   4.713   3.276   6.661
23792WAT      O71617   1.418   4.812   4.257
23792WAT     H171618   1.381   4.878   4.322
23792WAT     H271619   1.505   4.846   4.221
23793WAT      O71620   0.548   2.017   9.405
23793WAT     H171621   0.617   1.989   9.339
23793WAT     H271622   0.555   2.116   9.420
23794WAT      O71623   3.103   6.918   9.536
23794WAT     H171624   3.050   6.951   9.458
23794WAT     H271625   3.100   6.986   9.609
23795WAT      O71626   6.397   4.443   3.389
23795WAT     H171627   6.493   4.421   3.372
23795WAT     H271628   6.350   4.457   3.302
23796WAT      O71629   2.623   8.131   1.595
23796WAT     H171630   2.528   8.143   1.568
23796WAT     H271631   2.631   8.055   1.659
23797WAT      O71632   5.410   8.058   7.591
23797WAT     H171633   5.316   8.040   7.562
23797WAT     H271634   5.431   8.005   7.673
23798WAT      O71635   0.513   1.322   4.479
23798WAT     H171636   0.520   1.406   4.425
23798WAT     H271637   0.570   1.331   4.561
23799WAT      O71638   2.768   1.271   8.894
23799WAT     H171639   2.673   1.304   8.901
23799WAT     H271640   2.801   1.245   8.984
23800WAT      O71641   5.429   0.771   6.759
23800WAT     H171642   5.525   0.775   6.786
23800WAT     H271643   5.372   0.802   6.835
23801WAT      O71644   2.590   6.119   4.683
23801WAT     H171645   2.657   6.164   4.742
23801WAT     H271646   2.573   6.175   4.602
23802WAT      O71647   4.351   4.214   3.905
23802WAT     H171648   4.346   4.260   3.993
23802WAT     H271649   4.305   4.126   3.910
23803WAT      O71650   3.821   7.611   1.238
23803WAT     H171651   3.857   7.702   1.257
23803WAT     H271652   3.726   7.618   1.207
23804WAT      O71653   5.231   5.707   2.957
23804WAT     H171654   5.147   5.655   2.971
23804WAT     H271655   5.248   5.765   3.037
23805WAT      O71656   3.365   9.752   7.657
23805WAT     H171657   3.276   9.789   7.682
23805WAT     H271658   3.354   9.667   7.606
23806WAT      O71659   4.839   8.939   1.729
23806WAT     H171660   4.790   8.871   1.674
23806WAT     H271661   4.937   8.928   1.715
23807WAT      O71662   9.058   4.342   1.494
23807WAT     H171663   9.033   4.434   1.523
23807WAT     H271664   9.059   4.337   1.394
23808WAT      O71665   0.668   4.872   4.372
23808WAT     H171666   0.750   4.929   4.365
23808WAT     H271667   0.586   4.928   4.362
23809WAT      O71668   9.187   3.524   8.553
23809WAT     H171669   9.120   3.572   8.609
23809WAT     H271670   9.167   3.426   8.555
23810WAT      O71671   4.850   2.835   8.292
23810WAT     H171672   4.874   2.891   8.371
23810WAT     H271673   4.929   2.827   8.232
23811WAT      O71674   6.089   6.833   2.601
23811WAT     H171675   5.998   6.800   2.575
23811WAT     H271676   6.082   6.883   2.687
23812WAT      O71677   1.945   6.251   4.096
23812WAT     H171678   2.018   6.301   4.142
23812WAT     H271679   1.873   6.228   4.162
23813WAT      O71680   2.375   4.923   7.426
23813WAT     H171681   2.344   4.858   7.357
23813WAT     H271682   2.334   5.013   7.408
23814WAT      O71683   8.922   1.368   8.496
23814WAT     H171684   8.973   1.292   8.455
23814WAT     H271685   8.986   1.440   8.523
23815WAT      O71686   5.603   3.500   5.253
23815WAT     H171687   5.567   3.561   5.324
23815WAT     H271688   5.646   3.555   5.181
23816WAT      O71689   5.800   6.241   4.338
23816WAT     H171690   5.895   6.274   4.340
23816WAT     H271691   5.796   6.149   4.377
23817WAT      O71692   0.896   6.036   0.748
23817WAT     H171693   0.813   6.087   0.725
23817WAT     H271694   0.874   5.965   0.814
23818WAT      O71695   3.485   1.991   1.387
23818WAT     H171696   3.561   2.056   1.394
23818WAT     H271697   3.520   1.900   1.369
23819WAT      O71698   6.448   2.854   6.296
23819WAT     H171699   6.363   2.839   6.245
23819WAT     H271700   6.458   2.951   6.317
23820WAT      O71701   6.539   6.849   0.585
23820WAT     H171702   6.533   6.949   0.590
23820WAT     H271703   6.630   6.822   0.554
23821WAT      O71704   2.289   4.785   7.205
23821WAT     H171705   2.276   4.744   7.114
23821WAT     H271706   2.220   4.857   7.219
23822WAT      O71707   5.686   4.677   8.003
23822WAT     H171708   5.733   4.665   7.915
23822WAT     H271709   5.709   4.601   8.064
23823WAT      O71710   2.084   7.790   1.548
23823WAT     H171711   2.046   7.742   1.469
23823WAT     H271712   2.086   7.728   1.627
23824WAT      O71713   6.369   2.557   3.475
23824WAT     H171714   6.276   2.532   3.500
23824WAT     H271715   6.415   2.478   3.435
23825WAT      O71716   0.026   1.409   6.528
23825WAT     H171717  -0.007   1.440   6.617
23825WAT     H271718   0.100   1.343   6.541
23826WAT      O71719   3.096   8.492   6.530
23826WAT     H171720   3.128   8.544   6.609
23826WAT     H271721   3.128   8.536   6.446
23827WAT      O71722   3.967   5.611   8.854
23827WAT     H171723   4.060   5.647   8.840
23827WAT     H271724   3.901   5.670   8.806
23828WAT      O71725   7.607   6.246   4.170
23828WAT     H171726   7.614   6.150   4.196
23828WAT     H271727   7.686   6.296   4.204
23829WAT      O71728   9.709   0.693   0.828
23829WAT     H171729   9.643   0.718   0.899
23829WAT     H271730   9.793   0.745   0.840
23830WAT      O71731   0.985   3.636   1.780
23830WAT     H171732   1.024   3.559   1.830
23830WAT     H271733   1.059   3.696   1.750
23831WAT      O71734   4.826   9.287   6.083
23831WAT     H171735   4.756   9.296   6.155
23831WAT     H271736   4.866   9.195   6.087
23832WAT      O71737   4.337   9.739   5.222
23832WAT     H171738   4.293   9.829   5.227
23832WAT     H271739   4.320   9.698   5.133
23833WAT      O71740   3.427   5.518   4.531
23833WAT     H171741   3.498   5.461   4.572
23833WAT     H271742   3.395   5.476   4.446
23834WAT      O71743   4.507   6.250   1.771
23834WAT     H171744   4.544   6.339   1.799
23834WAT     H271745   4.566   6.210   1.701
23835WAT      O71746   1.287   9.821   7.013
23835WAT     H171747   1.370   9.802   7.065
23835WAT     H271748   1.299   9.791   6.918
23836WAT      O71749   1.979   0.246   0.885
23836WAT     H171750   1.981   0.335   0.931
23836WAT     H271751   2.054   0.189   0.919
23837WAT      O71752   2.941   7.802   1.305
23837WAT     H171753   2.889   7.873   1.352
23837WAT     H271754   2.922   7.806   1.207
23838WAT      O71755   4.591   8.563   8.941
23838WAT     H171756   4.540   8.648   8.933
23838WAT     H271757   4.532   8.485   8.920
23839WAT      O71758   2.917   3.910   3.172
23839WAT     H171759   2.859   3.991   3.164
23839WAT     H271760   2.940   3.877   3.080
23840WAT      O71761   7.426   4.336   1.681
23840WAT     H171762   7.442   4.367   1.775
23840WAT     H271763   7.512   4.299   1.644
23841WAT      O71764   9.682   6.172   9.141
23841WAT     H171765   9.722   6.263   9.125
23841WAT     H271766   9.731   6.105   9.086
23842WAT      O71767   7.938   0.183   8.387
23842WAT     H171768   7.959   0.121   8.462
23842WAT     H271769   7.870   0.142   8.327
23843WAT      O71770   5.118   1.525   2.287
23843WAT     H171771   5.129   1.585   2.366
23843WAT     H271772   5.206   1.481   2.266
23844WAT      O71773   5.239   7.783   2.696
23844WAT     H171774   5.153   7.737   2.673
23844WAT     H271775   5.309   7.714   2.715
23845WAT      O71776   3.787   4.411   5.992
23845WAT     H171777   3.725   4.333   5.980
23845WAT     H271778   3.753   4.470   6.065
23846WAT      O71779   5.292   7.647   4.999
23846WAT     H171780   5.196   7.645   5.026
23846WAT     H271781   5.325   7.741   5.001
23847WAT      O71782   0.506   0.290   6.614
23847WAT     H171783   0.553   0.347   6.547
23847WAT     H271784   0.407   0.309   6.609
23848WAT      O71785   8.972   5.307   6.432
23848WAT     H171786   9.000   5.340   6.341
23848WAT     H271787   9.054   5.286   6.485
23849WAT      O71788   2.854   0.265   0.193
23849WAT     H171789   2.941   0.250   0.240
23849WAT     H271790   2.779   0.257   0.259
23850WAT      O71791   7.477   0.671   6.502
23850WAT     H171792   7.410   0.714   6.440
23850WAT     H271793   7.537   0.742   6.539
23851WAT      O71794   1.993   2.216   4.384
23851WAT     H171795   2.063   2.181   4.447
23851WAT     H271796   1.938   2.139   4.352
23852WAT      O71797   7.472   2.956   3.656
23852WAT     H171798   7.533   2.923   3.728
23852WAT     H271799   7.482   3.055   3.647
23853WAT      O71800   2.545   0.452   1.146
23853WAT     H171801   2.480   0.417   1.080
23853WAT     H271802   2.583   0.376   1.199
23854WAT      O71803   9.438   8.944   0.849
23854WAT     H171804   9.460   8.966   0.754
23854WAT     H271805   9.462   9.021   0.908
23855WAT      O71806   3.439   5.937   8.055
23855WAT     H171807   3.394   6.017   8.094
23855WAT     H271808   3.434   5.942   7.955
23856WAT      O71809   9.201   8.290   1.175
23856WAT     H171810   9.237   8.360   1.113
23856WAT     H271811   9.256   8.288   1.259
23857WAT      O71812   8.338   3.901   1.273
23857WAT     H171813   8.239   3.906   1.258
23857WAT     H271814   8.375   3.993   1.283
23858WAT      O71815   3.715   5.398   8.281
23858WAT     H171816   3.780   5.441   8.218
23858WAT     H271817   3.750   5.406   8.375
23859WAT      O71818   1.773   8.273   6.459
23859WAT     H171819   1.707   8.346   6.440
23859WAT     H271820   1.765   8.246   6.555
23860WAT      O71821   2.618   7.935   7.130
23860WAT     H171822   2.555   7.975   7.197
23860WAT     H271823   2.581   7.947   7.038
23861WAT      O71824   6.905   7.274   6.788
23861WAT     H171825   6.939   7.348   6.731
23861WAT     H271826   6.975   7.247   6.854
23862WAT      O71827   7.155   0.816   0.115
23862WAT     H171828   7.118   0.899   0.156
23862WAT     H271829   7.088   0.742   0.123
23863WAT      O71830   0.496   2.237   5.540
23863WAT     H171831   0.474   2.323   5.493
23863WAT     H271832   0.496   2.162   5.473
23864WAT      O71833   2.221   5.982   1.544
23864WAT     H171834   2.134   5.964   1.497
23864WAT     H271835   2.296   5.945   1.490
23865WAT      O71836   8.447   3.106   6.869
23865WAT     H171837   8.469   3.093   6.773
23865WAT     H271838   8.527   3.143   6.917
23866WAT      O71839   0.029   6.331   4.171
23866WAT     H171840  -0.061   6.288   4.178
23866WAT     H271841   0.047   6.383   4.254
23867WAT      O71842   5.916   6.334   9.019
23867WAT     H171843   5.950   6.339   9.113
23867WAT     H271844   5.830   6.282   9.018
23868WAT      O71845   4.298   3.735   3.739
23868WAT     H171846   4.315   3.776   3.829
23868WAT     H271847   4.379   3.746   3.681
23869WAT      O71848   0.473   1.914   4.742
23869WAT     H171849   0.533   1.991   4.763
23869WAT     H271850   0.527   1.840   4.701
23870WAT      O71851   6.193   4.995   1.981
23870WAT     H171852   6.237   4.915   1.939
23870WAT     H271853   6.109   4.965   2.028
23871WAT      O71854   9.726   7.309   5.685
23871WAT     H171855   9.729   7.226   5.741
23871WAT     H271856   9.754   7.287   5.591
23872WAT      O71857   1.735   5.237   2.204
23872WAT     H171858   1.665   5.167   2.192
23872WAT     H271859   1.813   5.216   2.146
23873WAT      O71860   6.446   6.620   4.349
23873WAT     H171861   6.458   6.528   4.312
23873WAT     H271862   6.533   6.670   4.344
23874WAT      O71863   3.688   7.198   9.125
23874WAT     H171864   3.612   7.189   9.190
23874WAT     H271865   3.651   7.206   9.033
23875WAT      O71866   9.613   8.879   3.041
23875WAT     H171867   9.653   8.814   3.106
23875WAT     H271868   9.623   8.843   2.948
23876WAT      O71869   6.556   4.745   8.441
23876WAT     H171870   6.548   4.818   8.374
23876WAT     H271871   6.639   4.692   8.425
23877WAT      O71872   1.162   7.221   4.300
23877WAT     H171873   1.141   7.151   4.231
23877WAT     H271874   1.146   7.312   4.262
23878WAT      O71875   7.832   2.616   8.339
23878WAT     H171876   7.785   2.540   8.385
23878WAT     H271877   7.921   2.631   8.381
23879WAT      O71878   4.555   5.536   3.354
23879WAT     H171879   4.455   5.541   3.355
23879WAT     H271880   4.584   5.441   3.351
23880WAT      O71881   3.330   0.184   5.662
23880WAT     H171882   3.419   0.175   5.707
23880WAT     H271883   3.298   0.093   5.634
23881WAT      O71884   7.036   4.888   8.584
23881WAT     H171885   6.969   4.902   8.657
23881WAT     H271886   7.062   4.792   8.580
23882WAT      O71887   4.892   2.070   1.203
23882WAT     H171888   4.974   2.104   1.156
23882WAT     H271889   4.919   2.011   1.279
23883WAT      O71890   5.162   1.199   6.685
23883WAT     H171891   5.229   1.160   6.748
23883WAT     H271892   5.209   1.252   6.615
23884WAT      O71893   0.627   4.452   2.309
23884WAT     H171894   0.552   4.505   2.270
23884WAT     H271895   0.590   4.374   2.360
23885WAT      O71896   8.284   7.013   5.323
23885WAT     H171897   8.364   7.028   5.266
23885WAT     H271898   8.312   7.006   5.419
23886WAT      O71899   2.239   5.012   5.483
23886WAT     H171900   2.274   4.939   5.424
23886WAT     H271901   2.315   5.055   5.532
23887WAT      O71902   1.620   6.677   4.956
23887WAT     H171903   1.701   6.714   4.911
23887WAT     H271904   1.595   6.590   4.915
23888WAT      O71905   6.430   3.490   7.524
23888WAT     H171906   6.362   3.451   7.586
23888WAT     H271907   6.513   3.512   7.576
23889WAT      O71908   1.514   0.862   0.325
23889WAT     H171909   1.561   0.775   0.308
23889WAT     H271910   1.532   0.925   0.249
23890WAT      O71911   2.139   9.603   5.543
23890WAT     H171912   2.158   9.699   5.521
23890WAT     H271913   2.134   9.550   5.459
23891WAT      O71914   2.838   1.673   3.923
23891WAT     H171915   2.908   1.602   3.929
23891WAT     H271916   2.859   1.734   3.846
23892WAT      O71917   1.495   9.502   0.689
23892WAT     H171918   1.400   9.470   0.691
23892WAT     H271919   1.548   9.452   0.758
23893WAT      O71920   0.744   3.596   8.684
23893WAT     H171921   0.705   3.688   8.689
23893WAT     H271922   0.790   3.575   8.770
23894WAT      O71923   2.137   3.769   5.427
23894WAT     H171924   2.184   3.857   5.432
23894WAT     H271925   2.046   3.782   5.386
23895WAT      O71926   9.172   0.589   9.597
23895WAT     H171927   9.122   0.575   9.512
23895WAT     H271928   9.270   0.591   9.578
23896WAT      O71929   2.273   2.350   2.523
23896WAT     H171930   2.205   2.277   2.515
23896WAT     H271931   2.295   2.364   2.619
23897WAT      O71932   9.663   1.936   2.620
23897WAT     H171933   9.563   1.940   2.624
23897WAT     H271934   9.699   2.027   2.601
23898WAT      O71935   4.129   7.690   7.174
23898WAT     H171936   4.207   7.689   7.236
23898WAT     H271937   4.161   7.692   7.080
23899WAT      O71938   8.097   3.554   5.075
23899WAT     H171939   8.030   3.483   5.050
23899WAT     H271940   8.086   3.633   5.015
23900WAT      O71941   3.461   5.512   5.132
23900WAT     H171942   3.504   5.421   5.129
23900WAT     H271943   3.531   5.581   5.151
23901WAT      O71944   7.414   6.839   4.969
23901WAT     H171945   7.450   6.851   5.062
23901WAT     H271946   7.490   6.821   4.906
23902WAT      O71947   1.801   5.021   0.568
23902WAT     H171948   1.830   5.011   0.473
23902WAT     H271949   1.751   4.939   0.597
23903WAT      O71950   5.892   7.028   0.745
23903WAT     H171951   5.978   7.065   0.710
23903WAT     H271952   5.871   7.070   0.833
23904WAT      O71953   3.609   0.855   4.023
23904WAT     H171954   3.558   0.769   4.017
23904WAT     H271955   3.705   0.835   4.045
23905WAT      O71956   2.605   3.164   0.335
23905WAT     H171957   2.507   3.180   0.319
23905WAT     H271958   2.658   3.239   0.296
23906WAT      O71959   6.506   8.169   0.998
23906WAT     H171960   6.603   8.165   0.973
23906WAT     H271961   6.471   8.076   1.009
23907WAT      O71962   5.051   7.753   3.200
23907WAT     H171963   5.063   7.844   3.159
23907WAT     H271964   5.107   7.747   3.283
23908WAT      O71965   3.760   2.356   9.633
23908WAT     H171966   3.732   2.260   9.640
23908WAT     H271967   3.766   2.382   9.537
23909WAT      O71968   0.642   2.358   7.505
23909WAT     H171969   0.669   2.390   7.415
23909WAT     H271970   0.668   2.425   7.574
23910WAT      O71971   5.458   1.024   0.866
23910WAT     H171972   5.452   1.010   0.767
23910WAT     H271973   5.499   1.113   0.886
23911WAT      O71974   2.822   2.432   5.303
23911WAT     H171975   2.727   2.402   5.313
23911WAT     H271976   2.833   2.524   5.340
23912WAT      O71977   8.390   2.000   2.150
23912WAT     H171978   8.343   2.077   2.195
23912WAT     H271979   8.421   1.935   2.219
23913WAT      O71980   8.643   4.281   4.521
23913WAT     H171981   8.719   4.300   4.460
23913WAT     H271982   8.591   4.364   4.537
23914WAT      O71983   7.907   3.324   6.405
23914WAT     H171984   7.884   3.298   6.498
23914WAT     H271985   7.823   3.331   6.351
23915WAT      O71986   5.310   9.525   6.437
23915WAT     H171987   5.323   9.426   6.443
23915WAT     H271988   5.219   9.546   6.402
23916WAT      O71989   3.279   3.506   8.649
23916WAT     H171990   3.186   3.511   8.686
23916WAT     H271991   3.276   3.462   8.559
23917WAT      O71992   5.359   3.382   5.627
23917WAT     H171993   5.288   3.449   5.647
23917WAT     H271994   5.393   3.342   5.712
23918WAT      O71995   4.361   4.307   5.839
23918WAT     H171996   4.458   4.330   5.826
23918WAT     H271997   4.309   4.335   5.759
23919WAT      O71998   2.027   1.120   7.505
23919WAT     H171999   2.034   1.042   7.567
23919WAT     H272000   2.070   1.200   7.546
23920WAT      O72001   2.928   6.042   4.575
23920WAT     H172002   2.973   5.998   4.653
23920WAT     H272003   2.864   6.112   4.607
23921WAT      O72004   0.345   1.787   4.947
23921WAT     H172005   0.353   1.831   4.857
23921WAT     H272006   0.270   1.829   4.998
23922WAT      O72007   3.059   7.705   0.809
23922WAT     H172008   3.011   7.627   0.769
23922WAT     H272009   3.156   7.682   0.820
23923WAT      O72010   2.269   9.386   4.984
23923WAT     H172011   2.300   9.481   4.982
23923WAT     H272012   2.333   9.329   4.932
23924WAT      O72013   0.222   4.062   6.031
23924WAT     H172014   0.276   4.073   5.947
23924WAT     H272015   0.249   3.978   6.078
23925WAT      O72016   4.752   6.049   6.328
23925WAT     H172017   4.680   6.110   6.363
23925WAT     H272018   4.817   6.029   6.401
23926WAT      O72019   7.255   9.749   3.177
23926WAT     H172020   7.236   9.758   3.079
23926WAT     H272021   7.341   9.795   3.198
23927WAT      O72022   2.039   7.789   2.973
23927WAT     H172023   2.083   7.872   2.938
23927WAT     H272024   1.978   7.813   3.049
23928WAT      O72025   6.640   7.420   9.802
23928WAT     H172026   6.635   7.451   9.898
23928WAT     H272027   6.616   7.496   9.742
23929WAT      O72028   2.203   7.796   9.430
23929WAT     H172029   2.201   7.795   9.330
23929WAT     H272030   2.277   7.854   9.462
23930WAT      O72031   9.366   2.911   2.414
23930WAT     H172032   9.384   3.008   2.427
23930WAT     H272033   9.396   2.883   2.323
23931WAT      O72034   8.829   7.816   4.487
23931WAT     H172035   8.788   7.859   4.407
23931WAT     H272036   8.864   7.886   4.549
23932WAT      O72037   3.265   8.572   5.596
23932WAT     H172038   3.299   8.484   5.562
23932WAT     H272039   3.254   8.635   5.520
23933WAT      O72040   4.682   3.296   0.606
23933WAT     H172041   4.619   3.353   0.553
23933WAT     H272042   4.764   3.350   0.629
23934WAT      O72043   6.945   0.753   8.771
23934WAT     H172044   7.018   0.772   8.706
23934WAT     H272045   6.984   0.712   8.854
23935WAT      O72046   1.322   3.051   5.068
23935WAT     H172047   1.353   3.104   5.146
23935WAT     H272048   1.236   3.005   5.091
23936WAT      O72049   5.497   3.983   3.896
23936WAT     H172050   5.575   3.973   3.958
23936WAT     H272051   5.496   4.075   3.858
23937WAT      O72052   9.114   5.909   3.648
23937WAT     H172053   9.175   5.846   3.600
23937WAT     H272054   9.097   5.989   3.592
23938WAT      O72055   9.361   4.738   0.993
23938WAT     H172056   9.297   4.675   0.949
23938WAT     H272057   9.450   4.732   0.947
23939WAT      O72058   5.630   4.133   7.791
23939WAT     H172059   5.585   4.078   7.720
23939WAT     H272060   5.617   4.230   7.770
23940WAT      O72061   9.014   2.282   4.445
23940WAT     H172062   8.986   2.320   4.532
23940WAT     H272063   8.957   2.320   4.372
23941WAT      O72064   5.664   6.769   0.077
23941WAT     H172065   5.763   6.774   0.064
23941WAT     H272066   5.632   6.676   0.057
23942WAT      O72067   1.154   2.113   1.632
23942WAT     H172068   1.161   2.209   1.606
23942WAT     H272069   1.058   2.084   1.628
23943WAT      O72070   1.714   2.026   2.073
23943WAT     H172071   1.717   1.929   2.098
23943WAT     H272072   1.804   2.055   2.041
23944WAT      O72073   9.315   6.583   2.990
23944WAT     H172074   9.294   6.588   3.088
23944WAT     H272075   9.260   6.650   2.941
23945WAT      O72076   1.968   5.767   5.343
23945WAT     H172077   2.052   5.789   5.393
23945WAT     H272078   1.889   5.790   5.398
23946WAT      O72079   4.580   2.615   8.919
23946WAT     H172080   4.600   2.562   8.836
23946WAT     H272081   4.663   2.662   8.949
23947WAT      O72082   4.996   1.895   4.968
23947WAT     H172083   4.950   1.981   4.944
23947WAT     H272084   5.035   1.853   4.886
23948WAT      O72085   4.544   4.413   2.937
23948WAT     H172086   4.488   4.462   3.004
23948WAT     H272087   4.532   4.454   2.847
23949WAT      O72088   2.258   8.883   8.987
23949WAT     H172089   2.295   8.790   8.986
23949WAT     H272090   2.213   8.902   8.900
23950WAT      O72091   8.960   2.081   6.626
23950WAT     H172092   9.017   2.032   6.560
23950WAT     H272093   8.868   2.091   6.588
23951WAT      O72094   3.765   4.996   2.884
23951WAT     H172095   3.852   5.012   2.838
23951WAT     H272096   3.750   5.068   2.952
23952WAT      O72097   7.644   9.540   1.108
23952WAT     H172098   7.556   9.533   1.155
23952WAT     H272099   7.716   9.555   1.175
23953WAT      O72100   6.132   4.577   7.199
23953WAT     H172101   6.176   4.633   7.129
23953WAT     H272102   6.149   4.617   7.289
23954WAT      O72103   3.479   1.754   8.638
23954WAT     H172104   3.393   1.717   8.672
23954WAT     H272105   3.465   1.799   8.550
23955WAT      O72106   4.045   4.535   3.841
23955WAT     H172107   4.079   4.628   3.853
23955WAT     H272108   4.112   4.481   3.791
23956WAT      O72109   6.524   2.793   4.753
23956WAT     H172110   6.431   2.800   4.716
23956WAT     H272111   6.567   2.884   4.753
23957WAT      O72112   9.731   3.827   7.319
23957WAT     H172113   9.809   3.778   7.280
23957WAT     H272114   9.676   3.866   7.245
23958WAT      O72115   7.432   1.589   6.894
23958WAT     H172116   7.503   1.552   6.835
23958WAT     H272117   7.404   1.520   6.960
23959WAT      O72118   0.658   1.850   7.025
23959WAT     H172119   0.586   1.816   7.085
23959WAT     H272120   0.700   1.931   7.066
23960WAT      O72121   7.302   3.376   6.325
23960WAT     H172122   7.360   3.456   6.309
23960WAT     H272123   7.267   3.378   6.419
23961WAT      O72124   8.475   7.464   3.331
23961WAT     H172125   8.460   7.408   3.250
23961WAT     H272126   8.464   7.407   3.413
23962WAT      O72127   4.761   6.183   3.101
23962WAT     H172128   4.712   6.188   3.013
23962WAT     H272129   4.726   6.253   3.163
23963WAT      O72130   9.160   8.059   5.139
23963WAT     H172131   9.071   8.015   5.124
23963WAT     H272132   9.233   7.993   5.122
23964WAT      O72133   7.647   4.909   8.062
23964WAT     H172134   7.742   4.924   8.088
23964WAT     H272135   7.594   4.882   8.143
23965WAT      O72136   5.436   7.818   3.020
23965WAT     H172137   5.487   7.831   2.935
23965WAT     H272138   5.350   7.869   3.015
23966WAT      O72139   6.804   9.093   4.419
23966WAT     H172140   6.861   9.069   4.498
23966WAT     H272141   6.839   9.045   4.338
23967WAT      O72142   5.103   9.235   2.294
23967WAT     H172143   5.068   9.268   2.382
23967WAT     H272144   5.033   9.179   2.249
23968WAT      O72145   1.597   0.577   8.434
23968WAT     H172146   1.504   0.599   8.465
23968WAT     H272147   1.640   0.659   8.398
23969WAT      O72148   9.401   1.143   2.066
23969WAT     H172149   9.431   1.112   1.976
23969WAT     H272150   9.379   1.241   2.062
23970WAT      O72151   1.464   8.044   2.061
23970WAT     H172152   1.507   8.048   1.971
23970WAT     H272153   1.377   8.093   2.059
23971WAT      O72154   3.068   5.708   0.107
23971WAT     H172155   3.066   5.610   0.092
23971WAT     H272156   3.163   5.739   0.114
23972WAT      O72157   9.397   3.522   7.654
23972WAT     H172158   9.475   3.565   7.701
23972WAT     H272159   9.344   3.468   7.719
23973WAT      O72160   4.864   7.395   5.461
23973WAT     H172161   4.855   7.421   5.365
23973WAT     H272162   4.853   7.296   5.469
23974WAT      O72163   6.293   5.074   6.108
23974WAT     H172164   6.357   5.119   6.046
23974WAT     H272165   6.206   5.060   6.061
23975WAT      O72166   8.711   1.940   0.945
23975WAT     H172167   8.617   1.974   0.941
23975WAT     H272168   8.715   1.850   0.903
23976WAT      O72169   2.990   9.403   6.584
23976WAT     H172170   3.071   9.408   6.642
23976WAT     H272171   2.959   9.495   6.561
23977WAT      O72172   8.805   0.196   6.550
23977WAT     H172173   8.841   0.104   6.534
23977WAT     H272174   8.776   0.204   6.645
23978WAT      O72175   6.402   2.476   7.258
23978WAT     H172176   6.399   2.560   7.204
23978WAT     H272177   6.336   2.482   7.332
23979WAT      O72178   8.796   9.779   3.220
23979WAT     H172179   8.763   9.818   3.134
23979WAT     H272180   8.875   9.831   3.252
23980WAT      O72181   6.441   2.265   8.108
23980WAT     H172182   6.470   2.323   8.032
23980WAT     H272183   6.393   2.185   8.074
23981WAT      O72184   6.540   9.208   5.697
23981WAT     H172185   6.507   9.208   5.603
23981WAT     H272186   6.574   9.116   5.720
23982WAT      O72187   1.813   8.402   9.893
23982WAT     H172188   1.722   8.441   9.878
23982WAT     H272189   1.833   8.335   9.822
23983WAT      O72190   8.525   2.260   3.078
23983WAT     H172191   8.566   2.341   3.035
23983WAT     H272192   8.597   2.201   3.113
23984WAT      O72193   4.704   1.924   7.384
23984WAT     H172194   4.688   1.839   7.334
23984WAT     H272195   4.740   1.993   7.321
23985WAT      O72196   7.764   1.792   6.874
23985WAT     H172197   7.691   1.755   6.931
23985WAT     H272198   7.747   1.768   6.778
23986WAT      O72199   6.937   8.651   2.567
23986WAT     H172200   6.908   8.556   2.581
23986WAT     H272201   6.948   8.696   2.656
23987WAT      O72202   0.866   5.860   2.385
23987WAT     H172203   0.831   5.953   2.392
23987WAT     H272204   0.939   5.857   2.316
23988WAT      O72205   5.816   0.117   2.409
23988WAT     H172206   5.889   0.181   2.434
23988WAT     H272207   5.840   0.071   2.324
23989WAT      O72208   9.555   1.364   3.460
23989WAT     H172209   9.480   1.299   3.476
23989WAT     H272210   9.609   1.333   3.382
23990WAT      O72211   1.269   2.824   6.489
23990WAT     H172212   1.292   2.897   6.425
23990WAT     H272213   1.352   2.778   6.519
23991WAT      O72214   7.431   5.576   3.877
23991WAT     H172215   7.363   5.527   3.822
23991WAT     H272216   7.453   5.522   3.958
23992WAT      O72217   4.179   0.128   5.235
23992WAT     H172218   4.106   0.100   5.173
23992WAT     H272219   4.195   0.226   5.227
23993WAT      O72220   5.910   4.086   4.733
23993WAT     H172221   5.967   4.063   4.812
23993WAT     H272222   5.934   4.178   4.701
23994WAT      O72223   9.003   5.965   3.914
23994WAT     H172224   9.041   5.953   3.822
23994WAT     H272225   8.925   5.903   3.926
23995WAT      O72226   0.647   5.576   7.701
23995WAT     H172227   0.586   5.503   7.731
23995WAT     H272228   0.671   5.563   7.605
23996WAT      O72229   0.400   6.306   0.660
23996WAT     H172230   0.307   6.282   0.632
23996WAT     H272231   0.397   6.381   0.726
23997WAT      O72232   4.642   7.662   1.046
23997WAT     H172233   4.579   7.690   0.972
23997WAT     H272234   4.724   7.718   1.042
23998WAT      O72235   5.090   9.217   9.792
23998WAT     H172236   5.108   9.143   9.858
23998WAT     H272237   5.001   9.203   9.750
23999WAT      O72238   1.760   8.941   8.790
23999WAT     H172239   1.718   8.972   8.875
23999WAT     H272240   1.791   9.021   8.738
24000WAT      O72241   4.373   8.814   6.432
24000WAT     H172242   4.359   8.734   6.374
24000WAT     H272243   4.439   8.875   6.390
24001WAT      O72244   7.203   6.700   2.674
24001WAT     H172245   7.206   6.634   2.599
24001WAT     H272246   7.107   6.722   2.695
24002WAT      O72247   0.993   0.394   6.859
24002WAT     H172248   0.933   0.452   6.805
24002WAT     H272249   0.949   0.305   6.874
24003WAT      O72250   1.660   1.831   5.394
24003WAT     H172251   1.738   1.874   5.350
24003WAT     H272252   1.585   1.897   5.401
24004WAT      O72253   9.646   6.118   1.763
24004WAT     H172254   9.688   6.139   1.851
24004WAT     H272255   9.670   6.189   1.697
24005WAT      O72256   8.125   8.764   7.299
24005WAT     H172257   8.223   8.743   7.297
24005WAT     H272258   8.077   8.702   7.237
24006WAT      O72259   0.385   7.589   7.904
24006WAT     H172260   0.297   7.628   7.933
24006WAT     H272261   0.409   7.625   7.814
24007WAT      O72262   7.146   5.199   1.172
24007WAT     H172263   7.209   5.230   1.102
24007WAT     H272264   7.134   5.100   1.165
24008WAT      O72265   6.663   9.616   4.522
24008WAT     H172266   6.607   9.540   4.555
24008WAT     H272267   6.731   9.582   4.458
24009WAT      O72268   7.497   0.687   1.280
24009WAT     H172269   7.502   0.783   1.251
24009WAT     H272270   7.541   0.629   1.212
24010WAT      O72271   2.112   7.798   5.383
24010WAT     H172272   2.142   7.887   5.351
24010WAT     H272273   2.124   7.730   5.311
24011WAT      O72274   6.884   6.184   9.210
24011WAT     H172275   6.880   6.106   9.148
24011WAT     H272276   6.791   6.210   9.236
24012WAT      O72277   7.922   3.130   3.973
24012WAT     H172278   7.891   3.076   4.051
24012WAT     H272279   8.008   3.093   3.938
24013WAT      O72280   5.533   2.046   7.824
24013WAT     H172281   5.473   1.966   7.830
24013WAT     H272282   5.587   2.040   7.740
24014WAT      O72283   7.493   4.605   2.250
24014WAT     H172284   7.417   4.613   2.315
24014WAT     H272285   7.478   4.667   2.173
24015WAT      O72286   8.841   4.636   9.596
24015WAT     H172287   8.880   4.564   9.654
24015WAT     H272288   8.843   4.723   9.645
24016WAT      O72289   2.327   6.382   1.319
24016WAT     H172290   2.347   6.480   1.322
24016WAT     H272291   2.336   6.343   1.410
24017WAT      O72292   8.492   8.268   3.228
24017WAT     H172293   8.489   8.192   3.163
24017WAT     H272294   8.587   8.293   3.247
24018WAT      O72295   4.101   2.915   1.233
24018WAT     H172296   4.055   2.977   1.296
24018WAT     H272297   4.200   2.932   1.237
24019WAT      O72298   6.807   4.675   4.844
24019WAT     H172299   6.825   4.711   4.936
24019WAT     H272300   6.873   4.714   4.780
24020WAT      O72301   5.598   4.967   2.739
24020WAT     H172302   5.507   4.936   2.767
24020WAT     H272303   5.635   5.030   2.807
24021WAT      O72304   5.971   9.750   0.357
24021WAT     H172305   5.986   9.781   0.263
24021WAT     H272306   5.979   9.828   0.419
24022WAT      O72307   2.601   5.317   0.998
24022WAT     H172308   2.694   5.334   1.031
24022WAT     H272309   2.585   5.219   0.992
24023WAT      O72310   6.888   9.621   6.895
24023WAT     H172311   6.883   9.525   6.924
24023WAT     H272312   6.811   9.641   6.834
24024WAT      O72313   1.562   3.742   8.328
24024WAT     H172314   1.651   3.728   8.372
24024WAT     H272315   1.497   3.779   8.394
24025WAT      O72316   5.868   9.822   2.187
24025WAT     H172317   5.925   9.876   2.125
24025WAT     H272318   5.848   9.733   2.146
24026WAT      O72319   9.665   0.515   9.869
24026WAT     H172320   9.623   0.435   9.826
24026WAT     H272321   9.595   0.567   9.918
24027WAT      O72322   5.051   1.606   5.891
24027WAT     H172323   5.127   1.639   5.947
24027WAT     H272324   5.027   1.675   5.823
24028WAT      O72325   6.009   1.534   3.784
24028WAT     H172326   5.924   1.519   3.734
24028WAT     H272327   6.054   1.617   3.751
24029WAT      O72328   3.251   2.837   4.912
24029WAT     H172329   3.209   2.749   4.888
24029WAT     H272330   3.327   2.855   4.849
24030WAT      O72331   2.267   0.934   3.509
24030WAT     H172332   2.307   0.899   3.594
24030WAT     H272333   2.262   0.860   3.442
24031WAT      O72334   0.151   0.684   2.346
24031WAT     H172335   0.067   0.717   2.389
24031WAT     H272336   0.186   0.753   2.283
24032WAT      O72337   6.782   7.890   9.200
24032WAT     H172338   6.866   7.860   9.246
24032WAT     H272339   6.741   7.965   9.252
24033WAT      O72340   0.846   6.673   3.988
24033WAT     H172341   0.816   6.694   4.080
24033WAT     H272342   0.771   6.631   3.936
24034WAT      O72343   3.747   9.255   1.285
24034WAT     H172344   3.801   9.173   1.301
24034WAT     H272345   3.755   9.317   1.363
24035WAT      O72346   2.313   1.145   5.342
24035WAT     H172347   2.214   1.152   5.327
24035WAT     H272348   2.353   1.086   5.272
24036WAT      O72349   7.437   6.218   5.994
24036WAT     H172350   7.515   6.156   6.003
24036WAT     H272351   7.354   6.165   5.975
24037WAT      O72352   1.895   1.707   4.014
24037WAT     H172353   1.855   1.798   4.005
24037WAT     H272354   1.978   1.702   3.959
24038WAT      O72355   3.972   5.463   1.473
24038WAT     H172356   3.929   5.543   1.428
24038WAT     H272357   4.061   5.489   1.509
24039WAT      O72358   1.780   9.114   0.188
24039WAT     H172359   1.729   9.171   0.125
24039WAT     H272360   1.876   9.109   0.159
24040WAT      O72361   3.356   4.147   3.485
24040WAT     H172362   3.332   4.201   3.566
24040WAT     H272363   3.448   4.171   3.454
24041WAT      O72364   3.934   9.431   1.669
24041WAT     H172365   3.850   9.410   1.619
24041WAT     H272366   3.966   9.523   1.645
24042WAT      O72367   9.807   9.444   0.254
24042WAT     H172368   9.895   9.473   0.218
24042WAT     H272369   9.821   9.382   0.331
24043WAT      O72370   6.417   9.258   3.980
24043WAT     H172371   6.375   9.194   4.045
24043WAT     H272372   6.348   9.291   3.916
24044WAT      O72373   0.936   2.294   6.051
24044WAT     H172374   0.837   2.283   6.042
24044WAT     H272375   0.962   2.287   6.147
24045WAT      O72376   4.790   8.784   4.315
24045WAT     H172377   4.887   8.778   4.339
24045WAT     H272378   4.757   8.877   4.334
24046WAT      O72379   0.413   8.615   3.359
24046WAT     H172380   0.313   8.615   3.356
24046WAT     H272381   0.447   8.522   3.347
24047WAT      O72382   3.246   1.575   5.594
24047WAT     H172383   3.288   1.505   5.536
24047WAT     H272384   3.165   1.538   5.639
24048WAT      O72385   1.085   5.914   6.544
24048WAT     H172386   1.014   5.952   6.485
24048WAT     H272387   1.044   5.845   6.605
24049WAT      O72388   3.312   4.169   6.498
24049WAT     H172389   3.254   4.220   6.435
24049WAT     H272390   3.328   4.077   6.462
24050WAT      O72391   7.907   6.272   2.881
24050WAT     H172392   7.983   6.217   2.915
24050WAT     H272393   7.892   6.350   2.942
24051WAT      O72394   1.224   7.049   7.140
24051WAT     H172395   1.206   7.146   7.129
24051WAT     H272396   1.290   7.035   7.215
24052WAT      O72397   5.172   2.290   2.163
24052WAT     H172398   5.243   2.271   2.095
24052WAT     H272399   5.124   2.205   2.186
24053WAT      O72400   2.844   2.487   6.536
24053WAT     H172401   2.765   2.548   6.541
24053WAT     H272402   2.928   2.541   6.533
24054WAT      O72403   9.651   8.654   2.343
24054WAT     H172404   9.598   8.715   2.401
24054WAT     H272405   9.744   8.689   2.334
24055WAT      O72406   2.603   8.618   2.743
24055WAT     H172407   2.575   8.535   2.694
24055WAT     H272408   2.596   8.696   2.682
24056WAT      O72409   1.218   4.823   0.250
24056WAT     H172410   1.220   4.724   0.237
24056WAT     H272411   1.157   4.865   0.182
24057WAT      O72412   5.021   4.682   1.080
24057WAT     H172413   4.999   4.745   1.006
24057WAT     H272414   4.967   4.705   1.161
24058WAT      O72415   4.201   0.750   7.574
24058WAT     H172416   4.291   0.791   7.587
24058WAT     H272417   4.137   0.789   7.639
24059WAT      O72418   1.848   7.293   7.328
24059WAT     H172419   1.765   7.335   7.291
24059WAT     H272420   1.863   7.204   7.285
24060WAT      O72421   0.782   4.914   2.884
24060WAT     H172422   0.702   4.856   2.892
24060WAT     H272423   0.764   5.002   2.928
24061WAT      O72424   1.305   6.173   7.176
24061WAT     H172425   1.339   6.080   7.184
24061WAT     H272426   1.285   6.193   7.080
24062WAT      O72427   8.518   6.744   4.311
24062WAT     H172428   8.596   6.727   4.250
24062WAT     H272429   8.445   6.680   4.290
24063WAT      O72430   7.414   5.535   5.667
24063WAT     H172431   7.461   5.467   5.610
24063WAT     H272432   7.418   5.507   5.763
24064WAT      O72433   4.900   2.484   6.951
24064WAT     H172434   4.926   2.387   6.953
24064WAT     H272435   4.825   2.499   7.015
24065WAT      O72436   7.723   5.575   5.436
24065WAT     H172437   7.684   5.560   5.345
24065WAT     H272438   7.690   5.504   5.498
24066WAT      O72439   7.400   1.547   4.392
24066WAT     H172440   7.426   1.452   4.379
24066WAT     H272441   7.341   1.576   4.316
24067WAT      O72442   5.777   6.026   2.718
24067WAT     H172443   5.867   5.983   2.727
24067WAT     H272444   5.789   6.123   2.697
24068WAT      O72445   4.190   6.038   9.618
24068WAT     H172446   4.252   6.096   9.566
24068WAT     H272447   4.105   6.087   9.637
24069WAT      O72448   9.123   3.236   0.388
24069WAT     H172449   9.195   3.265   0.451
24069WAT     H272450   9.156   3.160   0.333
24070WAT      O72451   5.267   3.033   7.832
24070WAT     H172452   5.321   3.116   7.813
24070WAT     H272453   5.170   3.051   7.815
24071WAT      O72454   6.802  -0.004   9.556
24071WAT     H172455   6.748   0.066   9.601
24071WAT     H272456   6.874   0.039   9.501
24072WAT      O72457   3.635   6.041   5.384
24072WAT     H172458   3.636   5.941   5.382
24072WAT     H272459   3.600   6.075   5.296
24073WAT      O72460   9.586   2.091   6.008
24073WAT     H172461   9.491   2.092   6.039
24073WAT     H272462   9.647   2.112   6.085
24074WAT      O72463   8.002   8.123   0.564
24074WAT     H172464   8.065   8.114   0.641
24074WAT     H272465   7.930   8.188   0.588
24075WAT      O72466   0.549   0.703   8.669
24075WAT     H172467   0.486   0.625   8.669
24075WAT     H272468   0.505   0.781   8.714
24076WAT      O72469   9.528   9.244   0.832
24076WAT     H172470   9.511   9.288   0.920
24076WAT     H272471   9.614   9.193   0.836
24077WAT      O72472   2.651   4.848   6.417
24077WAT     H172473   2.716   4.885   6.483
24077WAT     H272474   2.580   4.915   6.399
24078WAT      O72475   7.511   3.550   7.934
24078WAT     H172476   7.526   3.647   7.916
24078WAT     H272477   7.427   3.539   7.988
24079WAT      O72478   6.202   3.175   5.945
24079WAT     H172479   6.184   3.204   5.851
24079WAT     H272480   6.124   3.199   6.003
24080WAT      O72481   1.852   0.970   8.288
24080WAT     H172482   1.769   1.022   8.269
24080WAT     H272483   1.906   0.961   8.204
24081WAT      O72484   0.992   7.360   7.031
24081WAT     H172485   1.067   7.324   6.976
24081WAT     H272486   0.969   7.296   7.103
24082WAT      O72487   5.171   2.457   2.584
24082WAT     H172488   5.230   2.393   2.633
24082WAT     H272489   5.212   2.480   2.496
24083WAT      O72490   3.763   5.408   7.035
24083WAT     H172491   3.840   5.469   7.018
24083WAT     H272492   3.789   5.314   7.014
24084WAT      O72493   7.909   2.724   0.200
24084WAT     H172494   7.819   2.763   0.179
24084WAT     H272495   7.940   2.758   0.289
24085WAT      O72496   7.287   3.732   3.135
24085WAT     H172497   7.207   3.725   3.194
24085WAT     H272498   7.273   3.807   3.069
24086WAT      O72499   6.323   0.039   7.506
24086WAT     H172500   6.312   0.027   7.605
24086WAT     H272501   6.329  -0.050   7.462
24087WAT      O72502   7.404   8.310   4.245
24087WAT     H172503   7.320   8.288   4.195
24087WAT     H272504   7.449   8.388   4.202
24088WAT      O72505   8.960   6.285   8.624
24088WAT     H172506   8.916   6.372   8.645
24088WAT     H272507   9.001   6.290   8.533
24089WAT      O72508   5.962   8.924   7.504
24089WAT     H172509   5.946   8.914   7.406
24089WAT     H272510   5.980   8.834   7.544
24090WAT      O72511   8.072   3.559   2.326
24090WAT     H172512   8.105   3.466   2.339
24090WAT     H272513   7.985   3.571   2.374
24091WAT      O72514   7.934   4.567   8.528
24091WAT     H172515   7.898   4.569   8.435
24091WAT     H272516   7.988   4.484   8.540
24092WAT      O72517   0.720   9.551   6.667
24092WAT     H172518   0.808   9.559   6.713
24092WAT     H272519   0.654   9.612   6.712
24093WAT      O72520   6.454   8.151   8.247
24093WAT     H172521   6.454   8.052   8.255
24093WAT     H272522   6.458   8.192   8.338
24094WAT      O72523   5.699   6.377   1.377
24094WAT     H172524   5.684   6.353   1.473
24094WAT     H272525   5.796   6.396   1.363
24095WAT      O72526   2.381   1.599   9.136
24095WAT     H172527   2.432   1.685   9.142
24095WAT     H272528   2.331   1.584   9.221
24096WAT      O72529   7.940   1.457   2.010
24096WAT     H172530   7.923   1.486   2.104
24096WAT     H272531   7.914   1.361   1.999
24097WAT      O72532   1.919   8.244   9.697
24097WAT     H172533   1.922   8.144   9.704
24097WAT     H272534   2.004   8.277   9.656
24098WAT      O72535   3.912   4.597   0.916
24098WAT     H172536   3.982   4.651   0.869
24098WAT     H272537   3.846   4.658   0.960
24099WAT      O72538   4.856   6.027   0.812
24099WAT     H172539   4.783   5.995   0.751
24099WAT     H272540   4.831   6.010   0.907
24100WAT      O72541   0.157   2.524   9.017
24100WAT     H172542   0.118   2.433   9.007
24100WAT     H272543   0.252   2.524   8.986
24101WAT      O72544   1.907   1.331   0.776
24101WAT     H172545   1.816   1.310   0.740
24101WAT     H272546   1.899   1.362   0.871
24102WAT      O72547   5.458   5.357   3.000
24102WAT     H172548   5.389   5.388   2.934
24102WAT     H272549   5.546   5.351   2.954
24103WAT      O72550   1.576   8.099   6.652
24103WAT     H172551   1.571   8.052   6.564
24103WAT     H272552   1.672   8.108   6.680
24104WAT      O72553   7.619   7.162   8.473
24104WAT     H172554   7.708   7.197   8.447
24104WAT     H272555   7.568   7.233   8.521
24105WAT      O72556   9.814   6.994   8.617
24105WAT     H172557   9.829   7.056   8.540
24105WAT     H272558   9.769   6.911   8.584
24106WAT      O72559   0.144   3.535   3.842
24106WAT     H172560   0.190   3.560   3.927
24106WAT     H272561   0.145   3.612   3.779
24107WAT      O72562   4.142   2.254   2.503
24107WAT     H172563   4.238   2.230   2.495
24107WAT     H272564   4.087   2.171   2.506
24108WAT      O72565   9.769   5.804   6.207
24108WAT     H172566   9.867   5.792   6.198
24108WAT     H272567   9.729   5.726   6.255
24109WAT      O72568   5.131   0.114   5.027
24109WAT     H172569   5.146   0.035   5.087
24109WAT     H272570   5.206   0.121   4.962
24110WAT      O72571   5.272   9.504   1.613
24110WAT     H172572   5.300   9.409   1.606
24110WAT     H272573   5.300   9.554   1.531
24111WAT      O72574   4.274   9.076   7.026
24111WAT     H172575   4.188   9.041   7.064
24111WAT     H272576   4.272   9.176   7.025
24112WAT      O72577   6.454   0.148   4.538
24112WAT     H172578   6.500   0.074   4.490
24112WAT     H272579   6.367   0.115   4.574
24113WAT      O72580   9.785   9.325   9.882
24113WAT     H172581   9.778   9.363   9.975
24113WAT     H272582   9.694   9.318   9.842
24114WAT      O72583   8.712   4.151   0.932
24114WAT     H172584   8.731   4.066   0.982
24114WAT     H272585   8.628   4.191   0.965
24115WAT      O72586   0.567   7.294   3.823
24115WAT     H172587   0.516   7.208   3.826
24115WAT     H272588   0.506   7.367   3.792
24116WAT      O72589   2.176   6.105   6.611
24116WAT     H172590   2.272   6.130   6.609
24116WAT     H272591   2.163   6.027   6.672
24117WAT      O72592   1.478   7.295   8.599
24117WAT     H172593   1.546   7.269   8.530
24117WAT     H272594   1.485   7.393   8.617
24118WAT      O72595   5.336   2.227   4.215
24118WAT     H172596   5.285   2.158   4.163
24118WAT     H272597   5.407   2.267   4.157
24119WAT      O72598   5.165   3.271   7.098
24119WAT     H172599   5.162   3.362   7.139
24119WAT     H272600   5.245   3.221   7.131
24120WAT      O72601   7.746   8.432   4.244
24120WAT     H172602   7.761   8.453   4.341
24120WAT     H272603   7.831   8.400   4.204
24121WAT      O72604   9.658   3.010   3.613
24121WAT     H172605   9.725   3.079   3.586
24121WAT     H272606   9.596   2.992   3.537
24122WAT      O72607   9.609   4.270   6.486
24122WAT     H172608   9.668   4.194   6.458
24122WAT     H272609   9.538   4.236   6.547
24123WAT      O72610   1.653   1.362   7.289
24123WAT     H172611   1.592   1.319   7.222
24123WAT     H272612   1.703   1.291   7.339
24124WAT      O72613   0.441   8.704   2.081
24124WAT     H172614   0.424   8.790   2.034
24124WAT     H272615   0.491   8.721   2.166
24125WAT      O72616   4.354   3.740   2.537
24125WAT     H172617   4.295   3.754   2.616
24125WAT     H272618   4.447   3.766   2.560
24126WAT      O72619   8.861   8.149   2.552
24126WAT     H172620   8.957   8.146   2.581
24126WAT     H272621   8.832   8.245   2.547
24127WAT      O72622   1.562   3.182   3.050
24127WAT     H172623   1.541   3.217   2.959
24127WAT     H272624   1.523   3.091   3.062
24128WAT      O72625   3.478   1.564   5.772
24128WAT     H172626   3.510   1.658   5.759
24128WAT     H272627   3.405   1.544   5.706
24129WAT      O72628   3.314   5.052   3.448
24129WAT     H172629   3.397   5.038   3.394
24129WAT     H272630   3.265   5.133   3.414
24130WAT      O72631   4.679   9.743   8.903
24130WAT     H172632   4.717   9.819   8.850
24130WAT     H272633   4.733   9.731   8.986
24131WAT      O72634   0.485   2.186   2.554
24131WAT     H172635   0.444   2.114   2.609
24131WAT     H272636   0.501   2.267   2.611
24132WAT      O72637   3.691   6.744   1.614
24132WAT     H172638   3.632   6.711   1.688
24132WAT     H272639   3.782   6.706   1.625
24133WAT      O72640   4.666   9.643   4.930
24133WAT     H172641   4.659   9.552   4.971
24133WAT     H272642   4.743   9.645   4.867
24134WAT      O72643   1.758   1.343   2.345
24134WAT     H172644   1.834   1.306   2.400
24134WAT     H272645   1.752   1.441   2.359
24135WAT      O72646   2.891   1.104   0.366
24135WAT     H172647   2.946   1.116   0.283
24135WAT     H272648   2.907   1.181   0.428
24136WAT      O72649   0.083   3.832   6.307
24136WAT     H172650   0.143   3.809   6.231
24136WAT     H272651   0.137   3.868   6.383
24137WAT      O72652   8.370   3.555   8.416
24137WAT     H172653   8.410   3.562   8.324
24137WAT     H272654   8.336   3.462   8.430
24138WAT      O72655   6.444   1.836   8.321
24138WAT     H172656   6.446   1.740   8.350
24138WAT     H272657   6.350   1.867   8.312
24139WAT      O72658   6.739   7.777   2.516
24139WAT     H172659   6.808   7.778   2.443
24139WAT     H272660   6.728   7.870   2.551
24140WAT      O72661   5.428   6.583   6.251
24140WAT     H172662   5.425   6.636   6.336
24140WAT     H272663   5.399   6.489   6.269
24141WAT      O72664   7.847   3.192   6.124
24141WAT     H172665   7.865   3.107   6.075
24141WAT     H272666   7.905   3.264   6.087
24142WAT      O72667   2.374   3.951   1.213
24142WAT     H172668   2.362   4.041   1.170
24142WAT     H272669   2.295   3.931   1.271
24143WAT      O72670   2.619   3.629   6.093
24143WAT     H172671   2.546   3.622   6.025
24143WAT     H272672   2.700   3.580   6.061
24144WAT      O72673   9.249   9.463   8.088
24144WAT     H172674   9.191   9.535   8.051
24144WAT     H272675   9.243   9.463   8.188
24145WAT      O72676   8.532   7.846   2.707
24145WAT     H172677   8.444   7.892   2.689
24145WAT     H272678   8.516   7.749   2.723
24146WAT      O72679   9.228   5.113   9.503
24146WAT     H172680   9.148   5.169   9.483
24146WAT     H272681   9.267   5.078   9.418
24147WAT      O72682   0.248   0.940   8.173
24147WAT     H172683   0.201   0.883   8.105
24147WAT     H272684   0.272   1.028   8.132
24148WAT      O72685   9.408   1.571   7.574
24148WAT     H172686   9.313   1.557   7.604
24148WAT     H272687   9.470   1.546   7.649
24149WAT      O72688   6.223   2.379   8.273
24149WAT     H172689   6.241   2.377   8.372
24149WAT     H272690   6.300   2.339   8.224
24150WAT      O72691   6.768   3.160   4.284
24150WAT     H172692   6.740   3.121   4.196
24150WAT     H272693   6.750   3.094   4.357
24151WAT      O72694   0.160   3.399   3.328
24151WAT     H172695   0.176   3.335   3.403
24151WAT     H272696   0.245   3.417   3.280
24152WAT      O72697   1.155   0.505   4.091
24152WAT     H172698   1.153   0.405   4.085
24152WAT     H272699   1.167   0.533   4.186
24153WAT      O72700   8.063   0.562   6.025
24153WAT     H172701   7.984   0.603   6.071
24153WAT     H272702   8.124   0.521   6.094
24154WAT      O72703   2.041   8.289   3.358
24154WAT     H172704   1.980   8.324   3.287
24154WAT     H272705   2.076   8.366   3.412
24155WAT      O72706   6.003   3.297   2.849
24155WAT     H172707   5.938   3.373   2.854
24155WAT     H272708   6.013   3.256   2.940
24156WAT      O72709   6.033   7.580   7.271
24156WAT     H172710   6.061   7.488   7.297
24156WAT     H272711   6.114   7.640   7.272
24157WAT      O72712   1.081   9.044   2.393
24157WAT     H172713   1.165   9.099   2.387
24157WAT     H272714   1.043   9.052   2.485
24158WAT      O72715   0.427   6.872   2.748
24158WAT     H172716   0.476   6.802   2.697
24158WAT     H272717   0.353   6.830   2.801
24159WAT      O72718   2.320   0.076   0.148
24159WAT     H172719   2.395   0.107   0.206
24159WAT     H272720   2.270   0.155   0.112
24160WAT      O72721   2.634   5.022   7.258
24160WAT     H172722   2.550   5.052   7.211
24160WAT     H272723   2.622   5.032   7.357
24161WAT      O72724   6.777   2.156   6.663
24161WAT     H172725   6.820   2.236   6.705
24161WAT     H272726   6.842   2.112   6.601
24162WAT      O72727   9.140   8.483   4.052
24162WAT     H172728   9.171   8.500   4.145
24162WAT     H272729   9.200   8.530   3.987
24163WAT      O72730   6.856   6.370   4.904
24163WAT     H172731   6.909   6.297   4.947
24163WAT     H272732   6.914   6.452   4.895
24164WAT      O72733   1.932   6.860   2.719
24164WAT     H172734   1.990   6.934   2.684
24164WAT     H272735   1.858   6.841   2.654
24165WAT      O72736   6.179   4.364   9.861
24165WAT     H172737   6.188   4.408   9.772
24165WAT     H272738   6.255   4.392   9.920
24166WAT      O72739   8.101   5.527   3.254
24166WAT     H172740   8.155   5.611   3.268
24166WAT     H272741   8.051   5.506   3.338
24167WAT      O72742   7.493   7.918   7.310
24167WAT     H172743   7.441   7.857   7.251
24167WAT     H272744   7.586   7.928   7.275
24168WAT      O72745   3.515   9.610   0.034
24168WAT     H172746   3.608   9.644   0.020
24168WAT     H272747   3.516   9.510   0.033
24169WAT      O72748   2.539   8.828   7.768
24169WAT     H172749   2.548   8.900   7.700
24169WAT     H272750   2.451   8.781   7.756
24170WAT      O72751   3.283   8.801   7.159
24170WAT     H172752   3.254   8.806   7.064
24170WAT     H272753   3.209   8.833   7.218
24171WAT      O72754   5.608   5.002   0.265
24171WAT     H172755   5.523   5.025   0.312
24171WAT     H272756   5.605   5.036   0.171
24172WAT      O72757   6.560   0.579   7.832
24172WAT     H172758   6.520   0.613   7.917
24172WAT     H272759   6.525   0.488   7.812
24173WAT      O72760   6.141   5.711   3.930
24173WAT     H172761   6.234   5.700   3.967
24173WAT     H272762   6.147   5.755   3.840
24174WAT      O72763   3.258   2.713   6.343
24174WAT     H172764   3.165   2.750   6.339
24174WAT     H272765   3.314   2.756   6.273
24175WAT      O72766   5.728   8.738   5.339
24175WAT     H172767   5.706   8.663   5.277
24175WAT     H272768   5.662   8.812   5.326
24176WAT      O72769   3.384   0.207   8.821
24176WAT     H172770   3.424   0.134   8.876
24176WAT     H272771   3.312   0.169   8.763
24177WAT      O72772   6.990   7.620   4.696
24177WAT     H172773   6.984   7.720   4.694
24177WAT     H272774   6.940   7.586   4.775
24178WAT      O72775   1.622   8.549   3.122
24178WAT     H172776   1.568   8.607   3.061
24178WAT     H272777   1.716   8.583   3.125
24179WAT      O72778   6.328   9.528   4.188
24179WAT     H172779   6.257   9.502   4.123
24179WAT     H272780   6.372   9.612   4.156
24180WAT      O72781   1.840   7.089   0.079
24180WAT     H172782   1.858   7.053   0.170
24180WAT     H272783   1.744   7.073   0.055
24181WAT      O72784   9.718   7.645   5.278
24181WAT     H172785   9.655   7.604   5.344
24181WAT     H272786   9.700   7.743   5.271
24182WAT      O72787   7.095   3.394   1.621
24182WAT     H172788   7.051   3.431   1.703
24182WAT     H272789   7.032   3.399   1.544
24183WAT      O72790   9.819   1.628   3.777
24183WAT     H172791   9.749   1.594   3.714
24183WAT     H272792   9.839   1.723   3.756
24184WAT      O72793   6.989   1.722   0.954
24184WAT     H172794   6.922   1.650   0.969
24184WAT     H272795   7.079   1.681   0.938
24185WAT      O72796   1.772   0.816   9.457
24185WAT     H172797   1.729   0.825   9.367
24185WAT     H272798   1.849   0.752   9.450
24186WAT      O72799   6.668   5.751   9.189
24186WAT     H172800   6.573   5.721   9.186
24186WAT     H272801   6.726   5.682   9.145
24187WAT      O72802   4.869   7.819   1.017
24187WAT     H172803   4.905   7.837   0.926
24187WAT     H272804   4.941   7.779   1.074
24188WAT      O72805   9.310   1.554   6.929
24188WAT     H172806   9.250   1.514   6.860
24188WAT     H272807   9.391   1.592   6.884
24189WAT      O72808   3.355   2.131   9.017
24189WAT     H172809   3.454   2.131   8.999
24189WAT     H272810   3.306   2.157   8.934
24190WAT      O72811   4.874   1.504   7.002
24190WAT     H172812   4.940   1.456   7.059
24190WAT     H272813   4.782   1.472   7.025
24191WAT      O72814   6.311   7.173   2.395
24191WAT     H172815   6.245   7.244   2.373
24191WAT     H272816   6.324   7.113   2.316
24192WAT      O72817   0.196   2.126   7.618
24192WAT     H172818   0.172   2.029   7.612
24192WAT     H272819   0.275   2.145   7.559
24193WAT      O72820   4.156   1.703   3.259
24193WAT     H172821   4.163   1.629   3.192
24193WAT     H272822   4.128   1.666   3.347
24194WAT      O72823   6.429   8.142   1.781
24194WAT     H172824   6.508   8.138   1.842
24194WAT     H272825   6.345   8.126   1.834
24195WAT      O72826   4.976   6.186   0.523
24195WAT     H172827   4.885   6.152   0.547
24195WAT     H272828   4.983   6.283   0.548
24196WAT      O72829   0.229   5.774   0.517
24196WAT     H172830   0.144   5.723   0.502
24196WAT     H272831   0.299   5.712   0.554
24197WAT      O72832   0.515   7.740   1.360
24197WAT     H172833   0.542   7.699   1.273
24197WAT     H272834   0.426   7.783   1.351
24198WAT      O72835   6.902   3.852   1.942
24198WAT     H172836   6.866   3.927   1.886
24198WAT     H272837   6.969   3.800   1.889
24199WAT      O72838   1.430   7.422   5.432
24199WAT     H172839   1.489   7.484   5.484
24199WAT     H272840   1.415   7.459   5.340
24200WAT      O72841   1.589   0.389   6.536
24200WAT     H172842   1.535   0.361   6.457
24200WAT     H272843   1.608   0.309   6.593
24201WAT      O72844   7.859   3.764   0.332
24201WAT     H172845   7.897   3.857   0.332
24201WAT     H272846   7.779   3.761   0.392
24202WAT      O72847   4.947   5.236   0.115
24202WAT     H172848   4.955   5.186   0.029
24202WAT     H272849   4.937   5.334   0.095
24203WAT      O72850   0.110   2.596   9.676
24203WAT     H172851   0.063   2.519   9.633
24203WAT     H272852   0.068   2.681   9.645
24204WAT      O72853   6.484   4.449   9.370
24204WAT     H172854   6.508   4.353   9.362
24204WAT     H272855   6.480   4.491   9.280
24205WAT      O72856   3.095   2.258   2.522
24205WAT     H172857   3.126   2.339   2.573
24205WAT     H272858   3.031   2.206   2.578
24206WAT      O72859   4.861   0.628   6.078
24206WAT     H172860   4.805   0.607   6.159
24206WAT     H272861   4.850   0.725   6.054
24207WAT      O72862   9.549   5.640   4.187
24207WAT     H172863   9.637   5.662   4.146
24207WAT     H272864   9.559   5.566   4.253
24208WAT      O72865   4.973   9.379   0.496
24208WAT     H172866   4.899   9.444   0.513
24208WAT     H272867   4.952   9.292   0.542
24209WAT      O72868   3.732   3.474   4.309
24209WAT     H172869   3.789   3.479   4.227
24209WAT     H272870   3.774   3.528   4.383
24210WAT      O72871   6.278   8.645   6.094
24210WAT     H172872   6.362   8.695   6.072
24210WAT     H272873   6.235   8.613   6.010
24211WAT      O72874   9.040   7.783   9.087
24211WAT     H172875   9.052   7.798   9.185
24211WAT     H272876   9.057   7.686   9.066
24212WAT      O72877   3.877   0.913   7.464
24212WAT     H172878   3.851   0.965   7.382
24212WAT     H272879   3.919   0.827   7.436
24213WAT      O72880   7.725   7.241   0.072
24213WAT     H172881   7.745   7.144   0.055
24213WAT     H272882   7.636   7.250   0.117
24214WAT      O72883   6.548   4.192   5.566
24214WAT     H172884   6.517   4.216   5.658
24214WAT     H272885   6.524   4.266   5.502
24215WAT      O72886   9.759   1.098   0.834
24215WAT     H172887   9.817   1.025   0.800
24215WAT     H272888   9.751   1.171   0.765
24216WAT      O72889   0.124   9.490   3.702
24216WAT     H172890   0.046   9.510   3.762
24216WAT     H272891   0.157   9.397   3.718
24217WAT      O72892   9.877   9.801   1.443
24217WAT     H172893   9.887   9.757   1.532
24217WAT     H272894   9.867   9.899   1.455
24218WAT      O72895   2.232   0.075   1.279
24218WAT     H172896   2.321   0.030   1.272
24218WAT     H272897   2.189   0.050   1.366
24219WAT      O72898   1.627   4.519   1.189
24219WAT     H172899   1.589   4.547   1.101
24219WAT     H272900   1.645   4.421   1.188
24220WAT      O72901   7.629   9.665   2.872
24220WAT     H172902   7.673   9.744   2.914
24220WAT     H272903   7.603   9.687   2.778
24221WAT      O72904   2.108   4.376   1.248
24221WAT     H172905   2.031   4.422   1.292
24221WAT     H272906   2.166   4.334   1.318
24222WAT      O72907   5.296   2.731   0.771
24222WAT     H172908   5.216   2.772   0.816
24222WAT     H272909   5.268   2.694   0.682
24223WAT      O72910   4.607   8.127   2.968
24223WAT     H172911   4.690   8.183   2.972
24223WAT     H272912   4.534   8.172   3.020
24224WAT      O72913   4.036   1.147   6.455
24224WAT     H172914   3.946   1.114   6.482
24224WAT     H272915   4.035   1.167   6.357
24225WAT      O72916   6.322   3.455   8.798
24225WAT     H172917   6.340   3.502   8.885
24225WAT     H272918   6.312   3.357   8.815
24226WAT      O72919   0.312   6.660   2.899
24226WAT     H172920   0.300   6.629   2.994
24226WAT     H272921   0.377   6.600   2.853
24227WAT      O72922   4.848   4.904   9.148
24227WAT     H172923   4.882   4.813   9.173
24227WAT     H272924   4.865   4.920   9.051
24228WAT      O72925   2.913   3.286   3.385
24228WAT     H172926   2.816   3.286   3.411
24228WAT     H272927   2.963   3.347   3.447
24229WAT      O72928   8.645   1.797   6.620
24229WAT     H172929   8.554   1.825   6.650
24229WAT     H272930   8.649   1.799   6.520
24230WAT      O72931   1.363   7.878   4.646
24230WAT     H172932   1.421   7.883   4.564
24230WAT     H272933   1.415   7.835   4.720
24231WAT      O72934   3.207   6.672   0.668
24231WAT     H172935   3.266   6.591   0.660
24231WAT     H272936   3.250   6.748   0.620
24232WAT      O72937   2.716   2.037   3.971
24232WAT     H172938   2.744   1.956   4.023
24232WAT     H272939   2.618   2.031   3.950
24233WAT      O72940   3.735   6.848   4.246
24233WAT     H172941   3.657   6.849   4.308
24233WAT     H272942   3.797   6.773   4.272
24234WAT      O72943   2.842   0.700   1.612
24234WAT     H172944   2.864   0.765   1.539
24234WAT     H272945   2.760   0.648   1.586
24235WAT      O72946   7.613   0.179   5.112
24235WAT     H172947   7.699   0.183   5.061
24235WAT     H272948   7.567   0.093   5.093
24236WAT      O72949   3.698   0.489   5.476
24236WAT     H172950   3.631   0.431   5.431
24236WAT     H272951   3.688   0.481   5.576
24237WAT      O72952   0.492   7.194   6.577
24237WAT     H172953   0.530   7.260   6.642
24237WAT     H272954   0.429   7.240   6.515
24238WAT      O72955   2.500   5.810   8.067
24238WAT     H172956   2.581   5.793   8.123
24238WAT     H272957   2.489   5.909   8.053
24239WAT      O72958   6.417   0.636   4.931
24239WAT     H172959   6.508   0.597   4.947
24239WAT     H272960   6.381   0.672   5.017
24240WAT      O72961   1.884   9.769   1.947
24240WAT     H172962   1.876   9.866   1.925
24240WAT     H272963   1.971   9.753   1.994
24241WAT      O72964   8.086   5.667   1.551
24241WAT     H172965   8.131   5.610   1.482
24241WAT     H272966   8.119   5.641   1.642
24242WAT      O72967   5.102   1.204   2.126
24242WAT     H172968   5.102   1.109   2.158
24242WAT     H272969   5.031   1.256   2.173
24243WAT      O72970   1.117   9.000   3.796
24243WAT     H172971   1.046   9.019   3.863
24243WAT     H272972   1.121   8.902   3.777
24244WAT      O72973   2.748   8.860   6.135
24244WAT     H172974   2.669   8.895   6.187
24244WAT     H272975   2.742   8.893   6.041
24245WAT      O72976   6.898   2.072   2.348
24245WAT     H172977   6.928   2.164   2.374
24245WAT     H272978   6.828   2.042   2.412
24246WAT      O72979   8.484   8.890   8.819
24246WAT     H172980   8.489   8.795   8.790
24246WAT     H272981   8.403   8.904   8.875
24247WAT      O72982   9.612   1.506   8.232
24247WAT     H172983   9.618   1.576   8.161
24247WAT     H272984   9.617   1.415   8.190
24248WAT      O72985   3.423   8.269   3.435
24248WAT     H172986   3.469   8.282   3.523
24248WAT     H272987   3.465   8.191   3.387
24249WAT      O72988   4.342   5.831   4.270
24249WAT     H172989   4.409   5.759   4.253
24249WAT     H272990   4.382   5.920   4.247
24250WAT      O72991   4.468   4.308   9.543
24250WAT     H172992   4.413   4.346   9.469
24250WAT     H272993   4.482   4.211   9.527
24251WAT      O72994   7.897   0.263   8.748
24251WAT     H172995   7.834   0.192   8.717
24251WAT     H272996   7.847   0.349   8.759
24252WAT      O72997   6.143   4.668   8.751
24252WAT     H172998   6.233   4.678   8.707
24252WAT     H272999   6.151   4.689   8.848
24253WAT      O73000   4.045   3.030   3.034
24253WAT     H173001   4.111   2.961   3.005
24253WAT     H273002   3.966   2.984   3.077
24254WAT      O73003   9.722   5.704   6.758
24254WAT     H173004   9.738   5.745   6.669
24254WAT     H273005   9.708   5.605   6.748
24255WAT      O73006   3.181   0.862   1.878
24255WAT     H173007   3.081   0.869   1.889
24255WAT     H273008   3.203   0.846   1.782
24256WAT      O73009   4.426   5.494   2.057
24256WAT     H173010   4.512   5.533   2.091
24256WAT     H273011   4.372   5.566   2.013
24257WAT      O73012   4.730   8.966   2.769
24257WAT     H173013   4.662   8.897   2.794
24257WAT     H273014   4.735   9.035   2.840
24258WAT      O73015   6.434   8.241   4.561
24258WAT     H173016   6.523   8.278   4.588
24258WAT     H273017   6.446   8.156   4.510
24259WAT      O73018   4.047   9.719   6.054
24259WAT     H173019   4.130   9.673   6.084
24259WAT     H273020   4.059   9.753   5.961
24260WAT      O73021   1.657   1.621   0.055
24260WAT     H173022   1.648   1.559  -0.023
24260WAT     H273023   1.658   1.569   0.140
24261WAT      O73024   5.232   3.435   1.436
24261WAT     H173025   5.205   3.428   1.340
24261WAT     H273026   5.189   3.361   1.488
24262WAT      O73027   1.484   4.596   1.917
24262WAT     H173028   1.583   4.600   1.931
24262WAT     H273029   1.441   4.560   2.000
24263WAT      O73030   3.642   3.836   3.478
24263WAT     H173031   3.631   3.895   3.397
24263WAT     H273032   3.552   3.808   3.511
24264WAT      O73033   0.522   5.452   3.692
24264WAT     H173034   0.482   5.508   3.619
24264WAT     H273035   0.522   5.356   3.664
24265WAT      O73036   9.311   2.329   6.570
24265WAT     H173037   9.213   2.325   6.552
24265WAT     H273038   9.340   2.424   6.579
24266WAT      O73039   7.757   9.521   9.134
24266WAT     H173040   7.791   9.457   9.065
24266WAT     H273041   7.833   9.552   9.191
24267WAT      O73042   9.123   0.607   9.316
24267WAT     H173043   9.107   0.699   9.282
24267WAT     H273044   9.075   0.541   9.257
24268WAT      O73045   9.623   0.836   2.277
24268WAT     H173046   9.584   0.833   2.185
24268WAT     H273047   9.675   0.921   2.287
24269WAT      O73048   2.224   3.323   2.251
24269WAT     H173049   2.296   3.358   2.191
24269WAT     H273050   2.180   3.245   2.207
24270WAT      O73051   0.521   5.580   6.180
24270WAT     H173052   0.436   5.589   6.233
24270WAT     H273053   0.570   5.668   6.181
24271WAT      O73054   2.441   2.444   9.028
24271WAT     H173055   2.426   2.538   8.999
24271WAT     H273056   2.462   2.441   9.125
24272WAT      O73057   7.499   1.906   2.208
24272WAT     H173058   7.468   1.894   2.302
24272WAT     H273059   7.568   1.979   2.205
24273WAT      O73060   9.393   5.382   1.586
24273WAT     H173061   9.336   5.310   1.626
24273WAT     H273062   9.452   5.343   1.516
24274WAT      O73063   7.725   8.946   9.898
24274WAT     H173064   7.806   8.963   9.842
24274WAT     H273065   7.648   9.000   9.863
24275WAT      O73066   6.511   4.086   0.399
24275WAT     H173067   6.570   4.008   0.377
24275WAT     H273068   6.483   4.082   0.494
24276WAT      O73069   8.831   4.001   6.522
24276WAT     H173070   8.804   4.085   6.569
24276WAT     H273071   8.839   4.018   6.424
24277WAT      O73072   6.308   3.146   1.161
24277WAT     H173073   6.323   3.061   1.213
24277WAT     H273074   6.242   3.129   1.089
24278WAT      O73075   7.163   3.972   9.770
24278WAT     H173076   7.125   3.887   9.734
24278WAT     H273077   7.226   4.011   9.703
24279WAT      O73078   1.464   3.485   9.165
24279WAT     H173079   1.531   3.412   9.173
24279WAT     H273080   1.459   3.536   9.251
24280WAT      O73081   4.012   4.037   5.005
24280WAT     H173082   3.967   4.116   4.963
24280WAT     H273083   4.108   4.035   4.978
24281WAT      O73084   1.229   4.198   8.737
24281WAT     H173085   1.172   4.196   8.655
24281WAT     H273086   1.235   4.106   8.776
24282WAT      O73087   4.075   2.813   4.900
24282WAT     H173088   4.133   2.880   4.945
24282WAT     H273089   4.128   2.730   4.880
24283WAT      O73090   4.322   2.167   5.004
24283WAT     H173091   4.260   2.208   4.937
24283WAT     H273092   4.408   2.141   4.959
24284WAT      O73093   4.990   7.850   0.777
24284WAT     H173094   4.958   7.939   0.745
24284WAT     H273095   4.970   7.780   0.708
24285WAT      O73096   0.908   2.832   6.714
24285WAT     H173097   0.974   2.903   6.691
24285WAT     H273098   0.916   2.810   6.812
24286WAT      O73099   5.455   3.460   3.118
24286WAT     H173100   5.479   3.553   3.093
24286WAT     H273101   5.452   3.451   3.218
24287WAT      O73102   2.821   0.916   6.684
24287WAT     H173103   2.891   0.894   6.752
24287WAT     H273104   2.766   0.834   6.666
24288WAT      O73105   7.651   1.049   6.840
24288WAT     H173106   7.576   0.988   6.814
24288WAT     H273107   7.709   1.003   6.907
24289WAT      O73108   3.524   5.503   6.658
24289WAT     H173109   3.502   5.485   6.754
24289WAT     H273110   3.582   5.429   6.623
24290WAT      O73111   4.979   9.615   1.858
24290WAT     H173112   4.885   9.580   1.862
24290WAT     H273113   5.013   9.630   1.951
24291WAT      O73114   7.946   0.446   8.288
24291WAT     H173115   7.861   0.481   8.326
24291WAT     H273116   7.968   0.357   8.330
24292WAT      O73117   1.815   0.529   6.183
24292WAT     H173118   1.793   0.441   6.142
24292WAT     H273119   1.741   0.558   6.244
24293WAT      O73120   6.414   6.251   0.543
24293WAT     H173121   6.331   6.242   0.597
24293WAT     H273122   6.486   6.294   0.599
24294WAT      O73123   4.885   2.414   1.018
24294WAT     H173124   4.809   2.357   1.049
24294WAT     H273125   4.892   2.496   1.076
24295WAT      O73126   5.617   0.588   4.109
24295WAT     H173127   5.606   0.635   4.197
24295WAT     H273128   5.709   0.549   4.104
24296WAT      O73129   7.914   7.576   3.333
24296WAT     H173130   7.962   7.602   3.249
24296WAT     H273131   7.847   7.646   3.356
24297WAT      O73132   5.063   8.742   4.354
24297WAT     H173133   5.088   8.688   4.274
24297WAT     H273134   5.050   8.680   4.432
24298WAT      O73135   6.928   6.873   6.221
24298WAT     H173136   7.027   6.862   6.231
24298WAT     H273137   6.907   6.966   6.191
24299WAT      O73138   4.510   6.470   7.738
24299WAT     H173139   4.431   6.482   7.678
24299WAT     H273140   4.502   6.530   7.818
24300WAT      O73141   1.637   2.181   5.316
24300WAT     H173142   1.703   2.149   5.383
24300WAT     H273143   1.682   2.197   5.229
24301WAT      O73144   9.579   1.413   2.767
24301WAT     H173145   9.590   1.510   2.789
24301WAT     H273146   9.601   1.397   2.671
24302WAT      O73147   0.126   6.282   3.060
24302WAT     H173148   0.106   6.188   3.033
24302WAT     H273149   0.049   6.341   3.035
24303WAT      O73150   8.510   5.511   9.094
24303WAT     H173151   8.475   5.562   9.173
24303WAT     H273152   8.576   5.442   9.124
24304WAT      O73153   9.589   2.266   7.531
24304WAT     H173154   9.615   2.195   7.466
24304WAT     H273155   9.538   2.338   7.484
24305WAT      O73156   3.831   0.703   7.192
24305WAT     H173157   3.874   0.681   7.280
24305WAT     H273158   3.902   0.713   7.122
24306WAT      O73159   6.165   1.755   6.737
24306WAT     H173160   6.103   1.677   6.748
24306WAT     H273161   6.242   1.745   6.800
24307WAT      O73162   0.211   5.032   9.675
24307WAT     H173163   0.281   5.018   9.605
24307WAT     H273164   0.255   5.061   9.760
24308WAT      O73165   1.760   7.441   2.809
24308WAT     H173166   1.746   7.346   2.781
24308WAT     H273167   1.770   7.446   2.908
24309WAT      O73168   9.417   2.214   6.794
24309WAT     H173169   9.447   2.283   6.860
24309WAT     H273170   9.361   2.258   6.724
24310WAT      O73171   6.186   4.523   1.541
24310WAT     H173172   6.275   4.559   1.569
24310WAT     H273173   6.197   4.468   1.458
24311WAT      O73174   1.680   2.752   1.236
24311WAT     H173175   1.704   2.849   1.226
24311WAT     H273176   1.611   2.743   1.308
24312WAT      O73177   3.529   4.128   5.493
24312WAT     H173178   3.583   4.200   5.537
24312WAT     H273179   3.546   4.041   5.539
24313WAT      O73180   6.275   3.693   3.193
24313WAT     H173181   6.184   3.735   3.197
24313WAT     H273182   6.267   3.595   3.214
24314WAT      O73183   4.586   4.859   1.818
24314WAT     H173184   4.640   4.787   1.862
24314WAT     H273185   4.490   4.831   1.814
24315WAT      O73186   3.985   2.471   2.614
24315WAT     H173187   4.052   2.409   2.573
24315WAT     H273188   3.944   2.429   2.694
24316WAT      O73189   6.558   3.487   3.228
24316WAT     H173190   6.626   3.420   3.201
24316WAT     H273191   6.501   3.510   3.149
24317WAT      O73192   0.927   4.746   1.152
24317WAT     H173193   0.976   4.773   1.234
24317WAT     H273194   0.974   4.780   1.071
24318WAT      O73195   1.551   5.924   6.642
24318WAT     H173196   1.605   5.866   6.581
24318WAT     H273197   1.600   5.936   6.728
24319WAT      O73198   6.987   5.171   3.368
24319WAT     H173199   7.033   5.244   3.419
24319WAT     H273200   7.055   5.104   3.339
24320WAT      O73201   6.699   2.609   0.278
24320WAT     H173202   6.612   2.597   0.327
24320WAT     H273203   6.681   2.652   0.190
24321WAT      O73204   0.614   0.304   4.500
24321WAT     H173205   0.616   0.365   4.421
24321WAT     H273206   0.584   0.213   4.471
24322WAT      O73207   2.993   2.224   4.735
24322WAT     H173208   2.928   2.298   4.713
24322WAT     H273209   3.048   2.250   4.814
24323WAT      O73210   4.440   6.417   9.855
24323WAT     H173211   4.371   6.482   9.825
24323WAT     H273212   4.487   6.379   9.776
24324WAT      O73213   8.352   3.712   8.635
24324WAT     H173214   8.263   3.682   8.669
24324WAT     H273215   8.386   3.647   8.568
24325WAT      O73216   5.145   0.929   0.178
24325WAT     H173217   5.155   0.837   0.141
24325WAT     H273218   5.063   0.972   0.140
24326WAT      O73219   8.632   0.394   3.768
24326WAT     H173220   8.676   0.433   3.687
24326WAT     H273221   8.694   0.402   3.846
24327WAT      O73222   6.123   2.908   5.940
24327WAT     H173223   6.212   2.900   5.894
24327WAT     H273224   6.104   3.004   5.960
24328WAT      O73225   2.894   7.694   7.703
24328WAT     H173226   2.807   7.721   7.663
24328WAT     H273227   2.966   7.754   7.668
24329WAT      O73228   4.716   1.674   0.251
24329WAT     H173229   4.692   1.590   0.203
24329WAT     H273230   4.714   1.751   0.187
24330WAT      O73231   0.249   7.447   5.280
24330WAT     H173232   0.303   7.517   5.233
24330WAT     H273233   0.294   7.423   5.366
24331WAT      O73234   7.839   1.069   2.156
24331WAT     H173235   7.898   1.143   2.188
24331WAT     H273236   7.756   1.067   2.212
24332WAT      O73237   8.343   1.000   9.293
24332WAT     H173238   8.284   0.997   9.374
24332WAT     H273239   8.424   0.943   9.308
24333WAT      O73240   8.567   7.941   6.916
24333WAT     H173241   8.569   7.844   6.894
24333WAT     H273242   8.473   7.973   6.917
24334WAT      O73243   3.793   9.813   1.179
24334WAT     H173244   3.871   9.829   1.240
24334WAT     H273245   3.722   9.882   1.197
24335WAT      O73246   8.616   3.384   4.107
24335WAT     H173247   8.682   3.376   4.182
24335WAT     H273248   8.629   3.472   4.061
24336WAT      O73249   5.172   2.942   1.348
24336WAT     H173250   5.250   2.967   1.291
24336WAT     H273251   5.186   2.975   1.441
24337WAT      O73252   6.314   3.021   0.661
24337WAT     H173253   6.374   3.095   0.689
24337WAT     H273254   6.287   3.034   0.566
24338WAT      O73255   1.960   6.893   1.823
24338WAT     H173256   1.890   6.862   1.758
24338WAT     H273257   1.975   6.991   1.811
24339WAT      O73258   0.569   6.250   7.548
24339WAT     H173259   0.501   6.321   7.563
24339WAT     H273260   0.529   6.161   7.571
24340WAT      O73261   9.335   2.656   7.516
24340WAT     H173262   9.270   2.693   7.583
24340WAT     H273263   9.356   2.727   7.448
24341WAT      O73264   6.155   9.280   9.105
24341WAT     H173265   6.195   9.215   9.171
24341WAT     H273266   6.079   9.236   9.058
24342WAT      O73267   3.091   7.974   4.798
24342WAT     H173268   3.073   7.900   4.734
24342WAT     H273269   3.008   8.027   4.812
24343WAT      O73270   5.836   5.959   6.530
24343WAT     H173271   5.767   5.889   6.511
24343WAT     H273272   5.820   5.997   6.621
24344WAT      O73273   8.862   8.085   2.287
24344WAT     H173274   8.852   8.099   2.386
24344WAT     H273275   8.937   8.021   2.271
24345WAT      O73276   7.563   5.754   1.426
24345WAT     H173277   7.521   5.774   1.515
24345WAT     H273278   7.519   5.673   1.386
24346WAT      O73279   2.903   0.416   7.802
24346WAT     H173280   2.873   0.367   7.883
24346WAT     H273281   2.998   0.447   7.815
24347WAT      O73282   2.592   0.312   6.457
24347WAT     H173283   2.564   0.307   6.361
24347WAT     H273284   2.514   0.293   6.516
24348WAT      O73285   9.773   9.306   4.624
24348WAT     H173286   9.779   9.210   4.596
24348WAT     H273287   9.864   9.340   4.645
24349WAT      O73288   8.780   6.149   7.557
24349WAT     H173289   8.682   6.134   7.550
24349WAT     H273290   8.828   6.082   7.500
24350WAT      O73291   0.905   1.762   2.225
24350WAT     H173292   0.936   1.778   2.319
24350WAT     H273293   0.849   1.679   2.221
24351WAT      O73294   4.473   6.704   8.382
24351WAT     H173295   4.416   6.680   8.303
24351WAT     H273296   4.490   6.803   8.382
24352WAT      O73297   6.133   5.192   5.340
24352WAT     H173298   6.221   5.233   5.316
24352WAT     H273299   6.067   5.211   5.267
24353WAT      O73300   5.829   1.711   9.822
24353WAT     H173301   5.888   1.770   9.767
24353WAT     H273302   5.852   1.615   9.805
24354WAT      O73303   5.385   1.471   6.997
24354WAT     H173304   5.416   1.378   6.978
24354WAT     H273305   5.459   1.522   7.041
24355WAT      O73306   2.911   5.159   6.643
24355WAT     H173307   2.871   5.217   6.572
24355WAT     H273308   2.878   5.066   6.632
24356WAT      O73309   7.607   9.431   9.763
24356WAT     H173310   7.689   9.423   9.705
24356WAT     H273311   7.579   9.339   9.792
24357WAT      O73312   1.397   0.495   5.932
24357WAT     H173313   1.488   0.461   5.910
24357WAT     H273314   1.330   0.421   5.920
24358WAT      O73315   8.927   8.727   3.320
24358WAT     H173316   8.827   8.731   3.315
24358WAT     H273317   8.965   8.729   3.228
24359WAT      O73318   7.631   7.113   2.345
24359WAT     H173319   7.694   7.161   2.406
24359WAT     H273320   7.542   7.158   2.346
24360WAT      O73321   3.420   5.155   5.562
24360WAT     H173322   3.352   5.085   5.582
24360WAT     H273323   3.486   5.160   5.637
24361WAT      O73324   7.153   5.267   7.632
24361WAT     H173325   7.115   5.177   7.656
24361WAT     H273326   7.237   5.282   7.683
24362WAT      O73327   7.531   5.938   1.093
24362WAT     H173328   7.628   5.916   1.104
24362WAT     H273329   7.497   5.983   1.175
24363WAT      O73330   8.004   2.860   4.694
24363WAT     H173331   8.035   2.925   4.763
24363WAT     H273332   7.930   2.901   4.640
24364WAT      O73333   6.441   5.936   3.365
24364WAT     H173334   6.471   5.845   3.393
24364WAT     H273335   6.520   5.998   3.363
24365WAT      O73336   2.997   8.252   3.888
24365WAT     H173337   2.976   8.211   3.976
24365WAT     H273338   3.094   8.241   3.867
24366WAT      O73339   1.705   8.427   9.216
24366WAT     H173340   1.700   8.479   9.131
24366WAT     H273341   1.633   8.357   9.217
24367WAT      O73342   5.279   3.416   8.483
24367WAT     H173343   5.313   3.459   8.399
24367WAT     H273344   5.344   3.431   8.557
24368WAT      O73345   1.036   7.793   1.088
24368WAT     H173346   1.088   7.712   1.116
24368WAT     H273347   0.961   7.808   1.152
24369WAT      O73348   9.574   7.724   6.434
24369WAT     H173349   9.660   7.710   6.385
24369WAT     H273350   9.499   7.681   6.382
24370WAT      O73351   0.537   5.870   3.315
24370WAT     H173352   0.552   5.867   3.216
24370WAT     H273353   0.462   5.809   3.339
24371WAT      O73354   9.538   0.982   4.712
24371WAT     H173355   9.551   1.044   4.789
24371WAT     H273356   9.623   0.931   4.696
24372WAT      O73357   2.851   5.090   0.770
24372WAT     H173358   2.877   5.151   0.695
24372WAT     H273359   2.933   5.052   0.812
24373WAT      O73360   8.972   0.355   2.499
24373WAT     H173361   9.022   0.441   2.481
24373WAT     H273362   8.918   0.365   2.582
24374WAT      O73363   6.732   0.091   6.151
24374WAT     H173364   6.744   0.017   6.218
24374WAT     H273365   6.679   0.165   6.194
24375WAT      O73366   8.030   0.812   7.330
24375WAT     H173367   8.015   0.767   7.418
24375WAT     H273368   8.127   0.836   7.322
24376WAT      O73369   1.606   3.941   5.540
24376WAT     H173370   1.569   3.848   5.538
24376WAT     H273371   1.692   3.942   5.591
24377WAT      O73372   4.990   8.027   9.248
24377WAT     H173373   4.939   8.112   9.235
24377WAT     H273374   5.088   8.044   9.235
24378WAT      O73375   7.585   0.506   9.693
24378WAT     H173376   7.621   0.469   9.608
24378WAT     H273377   7.487   0.526   9.682
24379WAT      O73378   5.460   4.534   7.936
24379WAT     H173379   5.505   4.623   7.932
24379WAT     H273380   5.495   4.476   7.862
24380WAT      O73381   9.784   3.373   0.812
24380WAT     H173382   9.818   3.329   0.729
24380WAT     H273383   9.685   3.385   0.806
24381WAT      O73384   8.011   2.462   6.093
24381WAT     H173385   7.971   2.552   6.077
24381WAT     H273386   8.109   2.465   6.070
24382WAT      O73387   1.006   6.863   6.568
24382WAT     H173388   0.964   6.918   6.496
24382WAT     H273389   1.030   6.773   6.532
24383WAT      O73390   7.091   4.144   5.894
24383WAT     H173391   7.078   4.226   5.950
24383WAT     H273392   7.181   4.104   5.912
24384WAT      O73393   6.315   8.351   5.191
24384WAT     H173394   6.322   8.344   5.290
24384WAT     H273395   6.363   8.275   5.148
24385WAT      O73396   2.182   7.684   0.365
24385WAT     H173397   2.252   7.738   0.411
24385WAT     H273398   2.205   7.675   0.268
24386WAT      O73399   3.197   1.144   2.725
24386WAT     H173400   3.253   1.227   2.718
24386WAT     H273401   3.149   1.144   2.813
24387WAT      O73402   2.176   8.518   2.448
24387WAT     H173403   2.261   8.531   2.398
24387WAT     H273404   2.196   8.504   2.545
24388WAT      O73405   2.007   4.612   4.360
24388WAT     H173406   1.964   4.676   4.424
24388WAT     H273407   1.940   4.585   4.291
24389WAT      O73408   9.160   0.274   7.224
24389WAT     H173409   9.146   0.371   7.247
24389WAT     H273410   9.252   0.262   7.187
24390WAT      O73411   2.249   5.850   0.367
24390WAT     H173412   2.316   5.792   0.414
24390WAT     H273413   2.166   5.797   0.348
24391WAT      O73414   9.843   1.417   8.891
24391WAT     H173415   9.892   1.463   8.965
24391WAT     H273416   9.746   1.414   8.912
24392WAT      O73417   5.933   8.198   5.349
24392WAT     H173418   5.996   8.222   5.423
24392WAT     H273419   5.961   8.246   5.266
24393WAT      O73420   6.419   7.150   6.840
24393WAT     H173421   6.336   7.118   6.795
24393WAT     H273422   6.492   7.161   6.772
24394WAT      O73423   8.606   4.343   8.757
24394WAT     H173424   8.661   4.261   8.748
24394WAT     H273425   8.665   4.422   8.777
24395WAT      O73426   0.407   2.415   2.412
24395WAT     H173427   0.495   2.437   2.370
24395WAT     H273428   0.412   2.325   2.457
24396WAT      O73429   7.542   4.897   6.723
24396WAT     H173430   7.565   4.915   6.818
24396WAT     H273431   7.624   4.906   6.666
24397WAT      O73432   9.705   2.099   9.469
24397WAT     H173433   9.794   2.080   9.426
24397WAT     H273434   9.675   2.191   9.442
24398WAT      O73435   0.165   7.532   1.486
24398WAT     H173436   0.188   7.512   1.581
24398WAT     H273437   0.134   7.627   1.478
24399WAT      O73438   8.213   3.700   9.340
24399WAT     H173439   8.205   3.789   9.294
24399WAT     H273440   8.247   3.713   9.433
24400WAT      O73441   9.454   1.739   1.165
24400WAT     H173442   9.537   1.719   1.113
24400WAT     H273443   9.457   1.690   1.252
24401WAT      O73444   7.787   2.214   9.188
24401WAT     H173445   7.707   2.231   9.247
24401WAT     H273446   7.759   2.157   9.111
24402WAT      O73447   9.438   9.082   2.205
24402WAT     H173448   9.451   9.003   2.146
24402WAT     H273449   9.508   9.084   2.276
24403WAT      O73450   6.434   3.420   7.900
24403WAT     H173451   6.512   3.447   7.843
24403WAT     H273452   6.356   3.398   7.842
24404WAT      O73453   0.653   6.361   5.931
24404WAT     H173454   0.722   6.322   5.992
24404WAT     H273455   0.563   6.349   5.971
24405WAT      O73456   6.010   2.764   6.779
24405WAT     H173457   6.097   2.786   6.735
24405WAT     H273458   6.026   2.698   6.852
24406WAT      O73459   0.716   4.685   0.908
24406WAT     H173460   0.665   4.638   0.836
24406WAT     H273461   0.814   4.675   0.890
24407WAT      O73462   1.685   5.869   2.203
24407WAT     H173463   1.683   5.924   2.120
24407WAT     H273464   1.771   5.884   2.252
24408WAT      O73465   6.981   1.136   2.715
24408WAT     H173466   6.963   1.040   2.733
24408WAT     H273467   6.949   1.160   2.623
24409WAT      O73468   9.179   6.406   1.187
24409WAT     H173469   9.263   6.459   1.202
24409WAT     H273470   9.136   6.435   1.101
24410WAT      O73471   7.435   7.539   9.598
24410WAT     H173472   7.495   7.613   9.628
24410WAT     H273473   7.491   7.469   9.552
24411WAT      O73474   4.195   3.078   6.283
24411WAT     H173475   4.167   3.065   6.188
24411WAT     H273476   4.200   3.176   6.303
24412WAT      O73477   0.981   2.307   4.240
24412WAT     H173478   1.071   2.264   4.234
24412WAT     H273479   0.910   2.236   4.244
24413WAT      O73480   7.108   1.616   1.646
24413WAT     H173481   7.008   1.608   1.653
24413WAT     H273482   7.145   1.641   1.735
24414WAT      O73483   2.661   3.941   0.018
24414WAT     H173484   2.561   3.953   0.020
24414WAT     H273485   2.683   3.846   0.037
24415WAT      O73486   3.795   7.576   6.526
24415WAT     H173487   3.727   7.523   6.576
24415WAT     H273488   3.777   7.569   6.427
24416WAT      O73489   2.345   8.881   2.456
24416WAT     H173490   2.271   8.827   2.415
24416WAT     H273491   2.348   8.863   2.554
24417WAT      O73492   5.107   6.616   5.316
24417WAT     H173493   5.071   6.703   5.281
24417WAT     H273494   5.109   6.549   5.242
24418WAT      O73495   8.776   8.632   3.593
24418WAT     H173496   8.833   8.642   3.511
24418WAT     H273497   8.733   8.720   3.614
24419WAT      O73498   5.238   9.715   2.908
24419WAT     H173499   5.145   9.702   2.873
24419WAT     H273500   5.245   9.806   2.949
24420WAT      O73501   3.881   9.496   1.035
24420WAT     H173502   3.791   9.464   1.063
24420WAT     H273503   3.913   9.566   1.099
24421WAT      O73504   3.429   3.341   1.285
24421WAT     H173505   3.441   3.283   1.204
24421WAT     H273506   3.395   3.431   1.256
24422WAT      O73507   1.576   6.203   7.579
24422WAT     H173508   1.531   6.208   7.668
24422WAT     H273509   1.549   6.282   7.523
24423WAT      O73510   9.690   4.814   8.101
24423WAT     H173511   9.758   4.757   8.147
24423WAT     H273512   9.622   4.756   8.056
24424WAT      O73513   2.578   8.252   0.394
24424WAT     H173514   2.532   8.294   0.316
24424WAT     H273515   2.648   8.188   0.362
24425WAT      O73516   8.872   6.666   6.530
24425WAT     H173517   8.776   6.644   6.510
24425WAT     H273518   8.920   6.583   6.559
24426WAT      O73519   9.130   1.291   4.761
24426WAT     H173520   9.193   1.225   4.802
24426WAT     H273521   9.157   1.309   4.667
24427WAT      O73522   4.446   2.531   2.398
24427WAT     H173523   4.439   2.459   2.468
24427WAT     H273524   4.478   2.492   2.312
24428WAT      O73525   8.758   4.344   6.350
24428WAT     H173526   8.794   4.437   6.357
24428WAT     H273527   8.693   4.339   6.274
24429WAT      O73528   6.962   5.860   2.288
24429WAT     H173529   7.058   5.835   2.298
24429WAT     H273530   6.911   5.783   2.249
24430WAT      O73531   7.224   5.468   7.920
24430WAT     H173532   7.290   5.396   7.897
24430WAT     H273533   7.148   5.428   7.971
24431WAT      O73534   8.581   0.849   1.156
24431WAT     H173535   8.637   0.925   1.121
24431WAT     H273536   8.628   0.806   1.233
24432WAT      O73537   4.925   4.684   8.245
24432WAT     H173538   4.857   4.664   8.174
24432WAT     H273539   4.914   4.779   8.275
24433WAT      O73540   9.328   4.976   2.179
24433WAT     H173541   9.365   4.986   2.272
24433WAT     H273542   9.373   5.042   2.119
24434WAT      O73543   6.256   7.324   9.118
24434WAT     H173544   6.324   7.274   9.064
24434WAT     H273545   6.165   7.303   9.084
24435WAT      O73546   6.752   5.321   8.027
24435WAT     H173547   6.765   5.399   7.967
24435WAT     H273548   6.658   5.321   8.063
24436WAT      O73549   6.260   2.048   4.176
24436WAT     H173550   6.170   2.076   4.140
24436WAT     H273551   6.296   2.121   4.233
24437WAT      O73552   1.940   4.753   6.344
24437WAT     H173553   2.024   4.734   6.292
24437WAT     H273554   1.931   4.852   6.357
24438WAT      O73555   7.495   9.613   0.330
24438WAT     H173556   7.535   9.617   0.238
24438WAT     H273557   7.437   9.693   0.345
24439WAT      O73558   9.632   8.118   7.133
24439WAT     H173559   9.705   8.082   7.191
24439WAT     H273560   9.666   8.130   7.040
24440WAT      O73561   8.801   9.250   2.814
24440WAT     H173562   8.767   9.330   2.765
24440WAT     H273563   8.763   9.167   2.774
24441WAT      O73564   8.310   2.039   8.240
24441WAT     H173565   8.357   1.959   8.278
24441WAT     H273566   8.229   2.060   8.296
24442WAT      O73567   0.753   3.277   2.526
24442WAT     H173568   0.790   3.194   2.567
24442WAT     H273569   0.770   3.354   2.587
24443WAT      O73570   4.252   7.634   6.934
24443WAT     H173571   4.316   7.700   6.894
24443WAT     H273572   4.228   7.566   6.865
24444WAT      O73573   2.024   9.068   2.631
24444WAT     H173574   2.115   9.103   2.610
24444WAT     H273575   1.965   9.079   2.551
24445WAT      O73576   1.025   4.851   2.992
24445WAT     H173577   0.944   4.894   2.952
24445WAT     H273578   1.026   4.754   2.969
24446WAT      O73579   2.246   7.274   7.925
24446WAT     H173580   2.214   7.283   7.831
24446WAT     H273581   2.231   7.359   7.974
24447WAT      O73582   4.629   6.427   1.468
24447WAT     H173583   4.677   6.449   1.553
24447WAT     H273584   4.665   6.483   1.393
24448WAT      O73585   0.362   4.825   2.844
24448WAT     H173586   0.285   4.761   2.843
24448WAT     H273587   0.356   4.887   2.767
24449WAT      O73588   1.202   0.099   6.136
24449WAT     H173589   1.121   0.128   6.085
24449WAT     H273590   1.218   0.002   6.122
24450WAT      O73591   8.320   2.339   9.853
24450WAT     H173592   8.242   2.401   9.851
24450WAT     H273593   8.404   2.390   9.832
24451WAT      O73594   3.735   5.093   4.915
24451WAT     H173595   3.716   5.036   4.835
24451WAT     H273596   3.653   5.146   4.938
24452WAT      O73597   0.314   8.144   0.333
24452WAT     H173598   0.264   8.222   0.296
24452WAT     H273599   0.382   8.113   0.267
24453WAT      O73600   9.234   8.514   8.152
24453WAT     H173601   9.314   8.454   8.154
24453WAT     H273602   9.263   8.609   8.139
24454WAT      O73603   2.478   9.394   6.364
24454WAT     H173604   2.543   9.416   6.291
24454WAT     H273605   2.420   9.317   6.335
24455WAT      O73606   7.190   8.616   7.749
24455WAT     H173607   7.138   8.585   7.670
24455WAT     H273608   7.286   8.631   7.722
24456WAT      O73609   9.026   3.766   5.670
24456WAT     H173610   8.932   3.786   5.699
24456WAT     H273611   9.025   3.725   5.579
24457WAT      O73612   2.654   2.019   8.413
24457WAT     H173613   2.628   1.943   8.473
24457WAT     H273614   2.735   1.994   8.361
24458WAT      O73615   0.216   7.594   4.267
24458WAT     H173616   0.215   7.547   4.356
24458WAT     H273617   0.289   7.663   4.268
24459WAT      O73618   5.004   2.438   6.682
24459WAT     H173619   4.945   2.428   6.601
24459WAT     H273620   4.948   2.461   6.761
24460WAT      O73621   1.873   1.469   8.202
24460WAT     H173622   1.903   1.414   8.124
24460WAT     H273623   1.913   1.433   8.286
24461WAT      O73624   0.185   2.101   0.402
24461WAT     H173625   0.214   2.185   0.449
24461WAT     H273626   0.190   2.114   0.303
24462WAT      O73627   0.452   5.195   9.343
24462WAT     H173628   0.542   5.238   9.329
24462WAT     H273629   0.382   5.266   9.352
24463WAT      O73630   0.216   7.411   4.001
24463WAT     H173631   0.119   7.435   4.014
24463WAT     H273632   0.256   7.389   4.089
24464WAT      O73633   1.910   0.776   4.931
24464WAT     H173634   1.848   0.825   4.992
24464WAT     H273635   2.003   0.810   4.944
24465WAT      O73636   7.966   2.441   4.881
24465WAT     H173637   7.901   2.434   4.805
24465WAT     H273638   8.017   2.355   4.890
24466WAT      O73639   5.231   5.572   4.012
24466WAT     H173640   5.153   5.552   4.071
24466WAT     H273641   5.219   5.527   3.924
24467WAT      O73642   7.414   3.369   4.086
24467WAT     H173643   7.354   3.307   4.135
24467WAT     H273644   7.502   3.374   4.132
24468WAT      O73645   4.183   1.895   0.656
24468WAT     H173646   4.117   1.946   0.601
24468WAT     H273647   4.219   1.818   0.603
24469WAT      O73648   2.226   9.375   3.972
24469WAT     H173649   2.191   9.455   4.021
24469WAT     H273650   2.214   9.389   3.873
24470WAT      O73651   3.681   1.596   1.723
24470WAT     H173652   3.761   1.573   1.667
24470WAT     H273653   3.612   1.641   1.666
24471WAT      O73654   2.826   8.103   4.602
24471WAT     H173655   2.756   8.174   4.603
24471WAT     H273656   2.795   8.027   4.544
24472WAT      O73657   0.813   5.763   7.307
24472WAT     H173658   0.759   5.693   7.353
24472WAT     H273659   0.815   5.846   7.362
24473WAT      O73660   5.740   7.184   0.983
24473WAT     H173661   5.679   7.227   1.050
24473WAT     H273662   5.772   7.096   1.018
24474WAT      O73663   1.242   7.547   1.579
24474WAT     H173664   1.210   7.481   1.511
24474WAT     H273665   1.341   7.558   1.571
24475WAT      O73666   1.211   1.652   7.361
24475WAT     H173667   1.276   1.608   7.300
24475WAT     H273668   1.260   1.708   7.427
24476WAT      O73669   6.823   3.128   1.776
24476WAT     H173670   6.789   3.073   1.699
24476WAT     H273671   6.772   3.214   1.779
24477WAT      O73672   8.274   8.495   4.165
24477WAT     H173673   8.298   8.405   4.129
24477WAT     H273674   8.205   8.485   4.237
24478WAT      O73675   4.331   8.223   6.745
24478WAT     H173676   4.352   8.251   6.651
24478WAT     H273677   4.311   8.305   6.799
24479WAT      O73678   8.202   8.026   9.207
24479WAT     H173679   8.235   8.120   9.199
24479WAT     H273680   8.267   7.963   9.165
24480WAT      O73681   3.090   9.137   8.186
24480WAT     H173682   3.167   9.077   8.203
24480WAT     H273683   3.016   9.086   8.143
24481WAT      O73684   5.270   2.849   9.269
24481WAT     H173685   5.202   2.776   9.277
24481WAT     H273686   5.236   2.931   9.315
24482WAT      O73687   0.766   8.828   4.946
24482WAT     H173688   0.667   8.843   4.944
24482WAT     H273689   0.806   8.881   5.021
24483WAT      O73690   4.453   0.740   6.742
24483WAT     H173691   4.547   0.737   6.709
24483WAT     H273692   4.429   0.833   6.770
24484WAT      O73693   0.573   8.209   1.297
24484WAT     H173694   0.559   8.305   1.271
24484WAT     H273695   0.614   8.159   1.221
24485WAT      O73696   8.671   5.268   0.920
24485WAT     H173697   8.631   5.206   0.986
24485WAT     H273698   8.598   5.309   0.864
24486WAT      O73699   2.301   0.165   7.454
24486WAT     H173700   2.226   0.129   7.510
24486WAT     H273701   2.386   0.161   7.506
24487WAT      O73702   6.281   0.260   8.317
24487WAT     H173703   6.248   0.188   8.378
24487WAT     H273704   6.300   0.222   8.227
24488WAT      O73705   2.997   9.603   9.328
24488WAT     H173706   2.989   9.652   9.415
24488WAT     H273707   3.094   9.590   9.306
24489WAT      O73708   9.817   7.194   3.447
24489WAT     H173709   9.801   7.262   3.519
24489WAT     H273710   9.854   7.111   3.487
24490WAT      O73711   3.611   8.507   5.914
24490WAT     H173712   3.701   8.510   5.957
24490WAT     H273713   3.539   8.516   5.983
24491WAT      O73714   6.487   8.657   6.948
24491WAT     H173715   6.428   8.691   6.875
24491WAT     H273716   6.474   8.712   7.030
24492WAT      O73717   0.282   2.380   3.131
24492WAT     H173718   0.327   2.466   3.109
24492WAT     H273719   0.325   2.306   3.080
24493WAT      O73720   4.844   4.874   7.987
24493WAT     H173721   4.873   4.917   8.073
24493WAT     H273722   4.892   4.787   7.977
24494WAT      O73723   4.516   7.350   6.880
24494WAT     H173724   4.486   7.273   6.824
24494WAT     H273725   4.446   7.369   6.950
24495WAT      O73726   6.545   9.550   1.551
24495WAT     H173727   6.624   9.526   1.494
24495WAT     H273728   6.526   9.648   1.541
24496WAT      O73729   8.706   7.771   2.317
24496WAT     H173730   8.653   7.823   2.250
24496WAT     H273731   8.693   7.812   2.408
24497WAT      O73732   9.575   3.752   5.644
24497WAT     H173733   9.504   3.690   5.612
24497WAT     H273734   9.635   3.705   5.708
24498WAT      O73735   3.990   0.660   7.415
24498WAT     H173736   4.055   0.687   7.486
24498WAT     H273737   4.001   0.562   7.395
24499WAT      O73738   6.995   2.144   9.679
24499WAT     H173739   7.075   2.191   9.714
24499WAT     H273740   6.934   2.210   9.634
24500WAT      O73741   7.023   6.475   3.307
24500WAT     H173742   7.007   6.540   3.233
24500WAT     H273743   7.087   6.405   3.276
24501WAT      O73744   5.519   1.093   4.967
24501WAT     H173745   5.521   1.183   5.011
24501WAT     H273746   5.519   1.022   5.037
24502WAT      O73747   8.619   2.258   6.002
24502WAT     H173748   8.618   2.355   5.975
24502WAT     H273749   8.659   2.250   6.093
24503WAT      O73750   9.439   3.761   9.725
24503WAT     H173751   9.421   3.834   9.791
24503WAT     H273752   9.472   3.680   9.773
24504WAT      O73753   6.354   8.947   9.803
24504WAT     H173754   6.388   8.965   9.895
24504WAT     H273755   6.254   8.946   9.804
24505WAT      O73756   6.195   6.194   0.702
24505WAT     H173757   6.220   6.285   0.735
24505WAT     H273758   6.189   6.132   0.780
24506WAT      O73759   6.351   6.105   4.015
24506WAT     H173760   6.343   6.204   4.022
24506WAT     H273761   6.447   6.079   4.009
24507WAT      O73762   5.424   9.448   6.938
24507WAT     H173763   5.521   9.463   6.956
24507WAT     H273764   5.385   9.531   6.897
24508WAT      O73765   0.873   3.074   5.845
24508WAT     H173766   0.916   3.041   5.929
24508WAT     H273767   0.936   3.138   5.799
24509WAT      O73768   5.781   5.781   2.088
24509WAT     H173769   5.804   5.767   2.184
24509WAT     H273770   5.824   5.865   2.055
24510WAT      O73771   9.585   0.582   0.604
24510WAT     H173772   9.548   0.492   0.625
24510WAT     H273773   9.624   0.623   0.686
24511WAT      O73774   8.558   8.277   9.001
24511WAT     H173775   8.566   8.312   8.907
24511WAT     H273776   8.465   8.241   9.014
24512WAT      O73777   3.750   1.968   2.722
24512WAT     H173778   3.783   2.061   2.706
24512WAT     H273779   3.817   1.903   2.685
24513WAT      O73780   9.455   0.724   4.733
24513WAT     H173781   9.378   0.702   4.672
24513WAT     H273782   9.466   0.824   4.736
24514WAT      O73783   4.956   0.963   9.532
24514WAT     H173784   4.939   1.006   9.444
24514WAT     H273785   4.871   0.924   9.568
24515WAT      O73786   9.407   8.735   4.292
24515WAT     H173787   9.355   8.820   4.285
24515WAT     H273788   9.504   8.753   4.276
24516WAT      O73789   9.589   3.550   1.268
24516WAT     H173790   9.573   3.649   1.271
24516WAT     H273791   9.606   3.516   1.361
24517WAT      O73792   3.075   2.032   1.273
24517WAT     H173793   3.047   2.126   1.254
24517WAT     H273794   2.995   1.978   1.299
24518WAT      O73795   2.553   0.803   1.500
24518WAT     H173796   2.611   0.874   1.462
24518WAT     H273797   2.583   0.713   1.467
24519WAT      O73798   0.741   8.563   1.130
24519WAT     H173799   0.839   8.548   1.149
24519WAT     H273800   0.730   8.588   1.034
24520WAT      O73801   2.828   2.968   7.122
24520WAT     H173802   2.920   2.932   7.111
24520WAT     H273803   2.782   2.919   7.196
24521WAT      O73804   1.390   8.217   5.214
24521WAT     H173805   1.449   8.137   5.209
24521WAT     H273806   1.300   8.191   5.246
24522WAT      O73807   4.252   3.324   2.313
24522WAT     H173808   4.225   3.418   2.334
24522WAT     H273809   4.194   3.261   2.364
24523WAT      O73810   8.129   5.122   9.494
24523WAT     H173811   8.117   5.221   9.495
24523WAT     H273812   8.094   5.084   9.409
24524WAT      O73813   1.084   9.816   0.058
24524WAT     H173814   1.005   9.832   0.117
24524WAT     H273815   1.098   9.718   0.045
24525WAT      O73816   0.091   8.521   5.456
24525WAT     H173817   0.053   8.428   5.449
24525WAT     H273818   0.104   8.543   5.553
24526WAT      O73819   9.056   8.721   1.394
24526WAT     H173820   8.965   8.699   1.360
24526WAT     H273821   9.121   8.720   1.318
24527WAT      O73822   8.486   1.280   8.401
24527WAT     H173823   8.511   1.359   8.345
24527WAT     H273824   8.567   1.224   8.418
24528WAT      O73825   5.142   0.482   8.436
24528WAT     H173826   5.233   0.462   8.474
24528WAT     H273827   5.072   0.449   8.499
24529WAT      O73828   9.593   9.664   1.640
24529WAT     H173829   9.548   9.739   1.689
24529WAT     H273830   9.692   9.672   1.652
24530WAT      O73831   0.089   9.798   2.322
24530WAT     H173832   0.129   9.840   2.403
24530WAT     H273833   0.153   9.731   2.284
24531WAT      O73834   3.940   7.018   1.391
24531WAT     H173835   4.003   7.095   1.377
24531WAT     H273836   3.886   7.036   1.474
24532WAT      O73837   0.395   3.994   7.039
24532WAT     H173838   0.445   3.908   7.050
24532WAT     H273839   0.318   3.995   7.102
24533WAT      O73840   9.674   8.093   2.158
24533WAT     H173841   9.649   8.161   2.227
24533WAT     H273842   9.766   8.058   2.178
24534WAT      O73843   3.959   4.723   7.490
24534WAT     H173844   3.952   4.645   7.552
24534WAT     H273845   3.979   4.690   7.398
24535WAT      O73846   2.001   3.563   7.531
24535WAT     H173847   2.080   3.616   7.502
24535WAT     H273848   1.959   3.606   7.611
24536WAT      O73849   7.165   1.371   8.061
24536WAT     H173850   7.183   1.333   7.970
24536WAT     H273851   7.112   1.305   8.115
24537WAT      O73852   7.762   5.719   2.734
24537WAT     H173853   7.679   5.667   2.753
24537WAT     H273854   7.743   5.792   2.669
24538WAT      O73855   1.714   5.851   1.586
24538WAT     H173856   1.718   5.862   1.486
24538WAT     H273857   1.681   5.936   1.627
24539WAT      O73858   9.565   8.350   9.834
24539WAT     H173859   9.627   8.307   9.767
24539WAT     H273860   9.471   8.324   9.813
24540WAT      O73861   3.151   3.582   6.160
24540WAT     H173862   3.150   3.632   6.073
24540WAT     H273863   3.162   3.647   6.235
24541WAT      O73864   1.586   8.137   2.972
24541WAT     H173865   1.537   8.193   3.039
24541WAT     H273866   1.645   8.072   3.018
24542WAT      O73867   7.716   9.624   5.903
24542WAT     H173868   7.656   9.700   5.878
24542WAT     H273869   7.759   9.587   5.820
24543WAT      O73870   5.410   9.001   9.755
24543WAT     H173871   5.462   8.982   9.672
24543WAT     H273872   5.315   8.973   9.741
24544WAT      O73873   9.514   5.569   9.272
24544WAT     H173874   9.556   5.594   9.185
24544WAT     H273875   9.527   5.642   9.338
24545WAT      O73876   9.189   4.794   0.293
24545WAT     H173877   9.229   4.860   0.228
24545WAT     H273878   9.260   4.732   0.324
24546WAT      O73879   6.513   7.738   6.395
24546WAT     H173880   6.535   7.835   6.382
24546WAT     H273881   6.583   7.696   6.454
24547WAT      O73882   4.638   1.365   4.739
24547WAT     H173883   4.688   1.332   4.818
24547WAT     H273884   4.689   1.344   4.655
24548WAT      O73885   4.020   5.048   2.777
24548WAT     H173886   4.044   4.952   2.793
24548WAT     H273887   4.100   5.096   2.739
24549WAT      O73888   1.848   7.558   9.351
24549WAT     H173889   1.802   7.642   9.324
24549WAT     H273890   1.872   7.505   9.269
24550WAT      O73891   8.346   7.814   5.277
24550WAT     H173892   8.298   7.811   5.189
24550WAT     H273893   8.282   7.797   5.351
24551WAT      O73894   4.637   9.417   6.719
24551WAT     H173895   4.680   9.371   6.642
24551WAT     H273896   4.685   9.392   6.803
24552WAT      O73897   6.457   6.680   3.183
24552WAT     H173898   6.432   6.742   3.108
24552WAT     H273899   6.393   6.693   3.259
24553WAT      O73900   8.601   0.073   1.974
24553WAT     H173901   8.631   0.106   2.064
24553WAT     H273902   8.608  -0.027   1.971
24554WAT      O73903   3.214   4.456   5.808
24554WAT     H173904   3.203   4.416   5.899
24554WAT     H273905   3.125   4.460   5.763
24555WAT      O73906   8.015   8.465   1.763
24555WAT     H173907   7.944   8.406   1.725
24555WAT     H273908   8.074   8.411   1.823
24556WAT      O73909   8.744   4.313   5.790
24556WAT     H173910   8.677   4.303   5.716
24556WAT     H273911   8.766   4.410   5.801
24557WAT      O73912   4.507   5.969   7.303
24557WAT     H173913   4.556   5.957   7.217
24557WAT     H273914   4.502   5.881   7.351
24558WAT      O73915   2.134   9.827   1.054
24558WAT     H173916   2.165   9.867   1.140
24558WAT     H273917   2.034   9.815   1.057
24559WAT      O73918   6.245   6.845   8.001
24559WAT     H173919   6.247   6.745   7.999
24559WAT     H273920   6.160   6.876   8.042
24560WAT      O73921   3.089   2.586   6.551
24560WAT     H173922   3.122   2.496   6.523
24560WAT     H273923   3.164   2.652   6.548
24561WAT      O73924   0.211   3.981   6.514
24561WAT     H173925   0.169   4.070   6.534
24561WAT     H273926   0.270   3.954   6.590
24562WAT      O73927   6.323   7.567   7.432
24562WAT     H173928   6.407   7.516   7.415
24562WAT     H273929   6.327   7.609   7.523
24563WAT      O73930   8.192   2.188   4.056
24563WAT     H173931   8.291   2.198   4.052
24563WAT     H273932   8.156   2.249   4.126
24564WAT      O73933   0.189   7.868   2.875
24564WAT     H173934   0.158   7.957   2.907
24564WAT     H273935   0.257   7.880   2.803
24565WAT      O73936   4.272   5.538   8.486
24565WAT     H173937   4.314   5.461   8.439
24565WAT     H273938   4.331   5.618   8.479
24566WAT      O73939   2.865   8.226   1.230
24566WAT     H173940   2.948   8.253   1.280
24566WAT     H273941   2.845   8.295   1.160
24567WAT      O73942   7.961   9.109   5.001
24567WAT     H173943   7.912   9.128   4.916
24567WAT     H273944   7.923   9.027   5.044
24568WAT      O73945   0.711   4.857   9.394
24568WAT     H173946   0.710   4.822   9.487
24568WAT     H273947   0.677   4.786   9.331
24569WAT      O73948   5.170   9.069   6.759
24569WAT     H173949   5.234   8.993   6.772
24569WAT     H273950   5.221   9.154   6.746
24570WAT      O73951   1.947   1.105   3.229
24570WAT     H173952   1.964   1.204   3.221
24570WAT     H273953   2.035   1.056   3.224
24571WAT      O73954   7.177   9.071   8.086
24571WAT     H173955   7.254   9.082   8.149
24571WAT     H273956   7.093   9.056   8.139
24572WAT      O73957   1.649   0.097   7.352
24572WAT     H173958   1.642   0.002   7.320
24572WAT     H273959   1.634   0.159   7.275
24573WAT      O73960   4.176   4.584   9.514
24573WAT     H173961   4.216   4.528   9.442
24573WAT     H273962   4.089   4.622   9.484
24574WAT      O73963   1.780   9.138   6.817
24574WAT     H173964   1.708   9.154   6.749
24574WAT     H273965   1.868   9.166   6.780
24575WAT      O73966   0.890   2.888   8.398
24575WAT     H173967   0.828   2.924   8.329
24575WAT     H273968   0.870   2.930   8.487
24576WAT      O73969   5.969   8.402   3.525
24576WAT     H173970   5.968   8.383   3.623
24576WAT     H273971   6.032   8.339   3.479
24577WAT      O73972   6.462   4.517   0.872
24577WAT     H173973   6.388   4.568   0.917
24577WAT     H273974   6.495   4.446   0.934
24578WAT      O73975   9.162   9.676   1.523
24578WAT     H173976   9.119   9.681   1.614
24578WAT     H273977   9.097   9.707   1.454
24579WAT      O73978   9.150   3.967   1.192
24579WAT     H173979   9.116   4.000   1.104
24579WAT     H273980   9.232   4.019   1.218
24580WAT      O73981   7.186   0.641   8.340
24580WAT     H173982   7.245   0.626   8.261
24580WAT     H273983   7.137   0.556   8.360
24581WAT      O73984   6.458   4.142   4.148
24581WAT     H173985   6.519   4.094   4.086
24581WAT     H273986   6.508   4.214   4.196
24582WAT      O73987   0.004   0.983   0.542
24582WAT     H173988   0.088   0.933   0.560
24582WAT     H273989  -0.070   0.919   0.522
24583WAT      O73990   1.941   0.385   5.678
24583WAT     H173991   1.858   0.435   5.653
24583WAT     H273992   1.920   0.324   5.754
24584WAT      O73993   7.694   0.851   5.547
24584WAT     H173994   7.605   0.811   5.573
24584WAT     H273995   7.742   0.787   5.486
24585WAT      O73996   5.300   0.360   0.005
24585WAT     H173997   5.272   0.445   0.050
24585WAT     H273998   5.233   0.288   0.024
24586WAT      O73999   3.886   1.839   7.366
24586WAT     H174000   3.870   1.899   7.287
24586WAT     H274001   3.972   1.790   7.354
24587WAT      O74002   5.532   4.232   3.785
24587WAT     H174003   5.618   4.283   3.776
24587WAT     H274004   5.497   4.209   3.694
24588WAT      O74005   4.625   9.678   1.959
24588WAT     H174006   4.597   9.598   2.012
24588WAT     H274007   4.586   9.672   1.867
24589WAT      O74008   1.956   5.322   2.993
24589WAT     H174009   1.861   5.295   3.008
24589WAT     H274010   2.016   5.269   3.053
24590WAT      O74011   0.521   3.314   9.115
24590WAT     H174012   0.489   3.356   9.030
24590WAT     H274013   0.448   3.256   9.152
24591WAT      O74014   5.865   7.683   8.070
24591WAT     H174015   5.964   7.697   8.064
24591WAT     H274016   5.842   7.593   8.032
24592WAT      O74017   9.110   7.789   9.791
24592WAT     H174018   9.079   7.882   9.771
24592WAT     H274019   9.177   7.761   9.722
24593WAT      O74020   6.002   3.478   0.445
24593WAT     H174021   5.905   3.475   0.424
24593WAT     H274022   6.028   3.572   0.468
24594WAT      O74023   9.302   1.053   2.335
24594WAT     H174024   9.331   1.120   2.404
24594WAT     H274025   9.349   1.072   2.249
24595WAT      O74026   3.520   1.000   5.536
24595WAT     H174027   3.548   1.096   5.544
24595WAT     H274028   3.527   0.972   5.440
24596WAT      O74029   9.854   4.038   5.610
24596WAT     H174030   9.755   4.052   5.611
24596WAT     H274031   9.874   3.944   5.583
24597WAT      O74032   4.712   6.149   8.714
24597WAT     H174033   4.788   6.112   8.660
24597WAT     H274034   4.653   6.205   8.656
24598WAT      O74035   9.514   4.460   0.962
24598WAT     H174036   9.539   4.407   0.881
24598WAT     H274037   9.574   4.540   0.969
24599WAT      O74038   7.356   1.497   7.732
24599WAT     H174039   7.361   1.474   7.634
24599WAT     H274040   7.291   1.437   7.777
24600WAT      O74041   6.816   4.513   1.678
24600WAT     H174042   6.870   4.566   1.743
24600WAT     H274043   6.779   4.432   1.723
24601WAT      O74044   8.952   3.083   3.705
24601WAT     H174045   8.887   3.034   3.647
24601WAT     H274046   8.920   3.083   3.799
24602WAT      O74047   1.493   3.794   7.883
24602WAT     H174048   1.486   3.704   7.841
24602WAT     H274049   1.402   3.836   7.889
24603WAT      O74050   9.430   1.827   9.341
24603WAT     H174051   9.449   1.891   9.416
24603WAT     H274052   9.415   1.735   9.378
24604WAT      O74053   5.233   6.631   6.718
24604WAT     H174054   5.150   6.638   6.773
24604WAT     H274055   5.238   6.539   6.677
24605WAT      O74056   1.310   2.510   1.731
24605WAT     H174057   1.268   2.600   1.717
24605WAT     H274058   1.262   2.442   1.676
24606WAT      O74059   1.017   1.361   3.973
24606WAT     H174060   0.983   1.269   3.991
24606WAT     H274061   1.115   1.365   3.992
24607WAT      O74062   5.428   3.674   9.296
24607WAT     H174063   5.434   3.765   9.254
24607WAT     H274064   5.444   3.682   9.394
24608WAT      O74065   4.875   8.011   4.158
24608WAT     H174066   4.809   8.062   4.213
24608WAT     H274067   4.827   7.960   4.087
24609WAT      O74068   7.818   6.864   3.939
24609WAT     H174069   7.752   6.806   3.891
24609WAT     H274070   7.864   6.810   4.010
24610WAT      O74071   2.520   0.251   5.239
24610WAT     H174072   2.490   0.264   5.145
24610WAT     H274073   2.584   0.324   5.264
24611WAT      O74074   8.044   6.992   6.715
24611WAT     H174075   8.088   7.059   6.656
24611WAT     H274076   7.966   7.034   6.761
24612WAT      O74077   5.433   2.091   7.479
24612WAT     H174078   5.454   2.133   7.391
24612WAT     H274079   5.404   2.162   7.544
24613WAT      O74080   8.308   7.650   2.592
24613WAT     H174081   8.311   7.674   2.494
24613WAT     H274082   8.394   7.607   2.618
24614WAT      O74083   4.980   8.454   8.150
24614WAT     H174084   5.017   8.493   8.234
24614WAT     H274085   4.886   8.487   8.136
24615WAT      O74086   7.666   0.562   6.238
24615WAT     H174087   7.638   0.633   6.303
24615WAT     H274088   7.605   0.565   6.158
24616WAT      O74089   2.268   4.562   5.143
24616WAT     H174090   2.224   4.585   5.056
24616WAT     H274091   2.321   4.478   5.132
24617WAT      O74092   9.578   7.034   9.846
24617WAT     H174093   9.496   6.979   9.829
24617WAT     H274094   9.594   7.095   9.769
24618WAT      O74095   6.900   0.137   9.075
24618WAT     H174096   6.822   0.076   9.057
24618WAT     H274097   6.984   0.094   9.040
24619WAT      O74098   9.714   3.060   3.294
24619WAT     H174099   9.636   2.998   3.287
24619WAT     H274100   9.698   3.125   3.368
24620WAT      O74101   2.708   0.829   7.650
24620WAT     H174102   2.638   0.816   7.720
24620WAT     H274103   2.686   0.775   7.570
24621WAT      O74104   6.407   0.488   0.912
24621WAT     H174105   6.409   0.422   0.988
24621WAT     H274106   6.500   0.503   0.879
24622WAT      O74107   3.546   6.736   5.077
24622WAT     H174108   3.602   6.807   5.033
24622WAT     H274109   3.496   6.685   5.006
24623WAT      O74110   2.547   2.289   5.746
24623WAT     H174111   2.479   2.322   5.681
24623WAT     H274112   2.511   2.297   5.839
24624WAT      O74113   1.203   4.085   5.507
24624WAT     H174114   1.214   4.124   5.415
24624WAT     H274115   1.279   4.115   5.565
24625WAT      O74116   3.665   5.671   9.790
24625WAT     H174117   3.732   5.600   9.774
24625WAT     H274118   3.627   5.662   9.882
24626WAT      O74119   5.594   0.117   8.885
24626WAT     H174120   5.593   0.081   8.978
24626WAT     H274121   5.501   0.121   8.849
24627WAT      O74122   1.813   1.949   8.228
24627WAT     H174123   1.738   1.995   8.277
24627WAT     H274124   1.900   1.975   8.269
24628WAT      O74125   6.379   4.202   6.693
24628WAT     H174126   6.320   4.230   6.769
24628WAT     H274127   6.455   4.147   6.727
24629WAT      O74128   8.233   9.530   9.449
24629WAT     H174129   8.314   9.502   9.500
24629WAT     H274130   8.172   9.581   9.510
24630WAT      O74131   2.353   0.826   1.943
24630WAT     H174132   2.447   0.815   1.911
24630WAT     H274133   2.314   0.735   1.960
24631WAT      O74134   2.571   9.055   7.018
24631WAT     H174135   2.538   9.149   7.033
24631WAT     H274136   2.510   8.991   7.065
24632WAT      O74137   0.435   5.987   3.598
24632WAT     H174138   0.495   5.931   3.541
24632WAT     H274139   0.472   5.993   3.691
24633WAT      O74140   2.528   5.176   8.428
24633WAT     H174141   2.596   5.192   8.357
24633WAT     H274142   2.438   5.207   8.396
24634WAT      O74143   1.447   6.794   7.541
24634WAT     H174144   1.363   6.745   7.517
24634WAT     H274145   1.520   6.729   7.560
24635WAT      O74146   1.365   5.017   4.420
24635WAT     H174147   1.296   5.047   4.354
24635WAT     H274148   1.331   5.031   4.513
24636WAT      O74149   4.237   3.480   9.832
24636WAT     H174150   4.232   3.579   9.850
24636WAT     H274151   4.266   3.464   9.738
24637WAT      O74152   4.745   6.631   8.139
24637WAT     H174153   4.729   6.713   8.194
24637WAT     H274154   4.789   6.561   8.195
24638WAT      O74155   7.929   1.497   4.496
24638WAT     H174156   7.843   1.502   4.548
24638WAT     H274157   8.005   1.524   4.555
24639WAT      O74158   0.589   1.917   6.358
24639WAT     H174159   0.561   1.968   6.440
24639WAT     H274160   0.560   1.967   6.276
24640WAT      O74161   4.203   6.853   2.032
24640WAT     H174162   4.238   6.777   1.977
24640WAT     H274163   4.166   6.923   1.970
24641WAT      O74164   6.271   5.609   5.523
24641WAT     H174165   6.298   5.627   5.618
24641WAT     H274166   6.182   5.565   5.521
24642WAT      O74167   6.503   8.929   7.884
24642WAT     H174168   6.570   8.927   7.809
24642WAT     H274169   6.455   8.841   7.888
24643WAT      O74170   7.423   4.404   5.154
24643WAT     H174171   7.352   4.462   5.195
24643WAT     H274172   7.456   4.447   5.070
24644WAT      O74173   3.439   0.559   4.325
24644WAT     H174174   3.401   0.649   4.344
24644WAT     H274175   3.538   0.567   4.311
24645WAT      O74176   9.078   6.381   0.095
24645WAT     H174177   9.075   6.357   0.192
24645WAT     H274178   9.174   6.390   0.067
24646WAT      O74179   7.638   3.033   6.257
24646WAT     H174180   7.656   2.984   6.342
24646WAT     H274181   7.704   3.108   6.247
24647WAT      O74182   7.092   7.448   2.355
24647WAT     H174183   7.168   7.399   2.315
24647WAT     H274184   7.011   7.389   2.358
24648WAT      O74185   3.459   9.576   7.262
24648WAT     H174186   3.420   9.601   7.174
24648WAT     H274187   3.489   9.480   7.259
24649WAT      O74188   3.522   7.305   9.756
24649WAT     H174189   3.454   7.372   9.788
24649WAT     H274190   3.483   7.213   9.762
24650WAT      O74191   7.387   6.015   9.062
24650WAT     H174192   7.375   5.945   8.991
24650WAT     H274193   7.467   6.071   9.040
24651WAT      O74194   5.783   7.953   0.961
24651WAT     H174195   5.815   7.895   0.886
24651WAT     H274196   5.686   7.937   0.976
24652WAT      O74197   1.875   8.127   8.010
24652WAT     H174198   1.778   8.149   8.002
24652WAT     H274199   1.903   8.070   7.932
24653WAT      O74200   6.740   2.354   1.091
24653WAT     H174201   6.685   2.301   1.026
24653WAT     H274202   6.682   2.424   1.134
24654WAT      O74203   3.782   1.620   2.541
24654WAT     H174204   3.845   1.578   2.476
24654WAT     H274205   3.696   1.568   2.543
24655WAT      O74206   3.265   6.205   3.837
24655WAT     H174207   3.261   6.279   3.904
24655WAT     H274208   3.199   6.134   3.863
24656WAT      O74209   2.126   4.555   6.654
24656WAT     H174210   2.177   4.515   6.730
24656WAT     H274211   2.190   4.597   6.589
24657WAT      O74212   9.132   0.566   1.505
24657WAT     H174213   9.126   0.578   1.406
24657WAT     H274214   9.215   0.515   1.528
24658WAT      O74215   0.022   6.713   8.942
24658WAT     H174216  -0.056   6.776   8.953
24658WAT     H274217   0.041   6.668   9.028
24659WAT      O74218   0.929   9.839   9.680
24659WAT     H174219   0.971   9.924   9.648
24659WAT     H274220   0.976   9.808   9.763
24660WAT      O74221   9.754   9.054   4.415
24660WAT     H174222   9.682   9.079   4.350
24660WAT     H274223   9.728   8.971   4.463
24661WAT      O74224   7.082   2.306   7.220
24661WAT     H174225   7.051   2.221   7.262
24661WAT     H274226   7.004   2.353   7.179
24662WAT      O74227   2.388   7.664   4.568
24662WAT     H174228   2.361   7.667   4.665
24662WAT     H274229   2.323   7.607   4.517
24663WAT      O74230   8.237   7.947   9.496
24663WAT     H174231   8.219   7.984   9.405
24663WAT     H274232   8.273   7.854   9.488
24664WAT      O74233   7.536   2.290   1.869
24664WAT     H174234   7.625   2.312   1.828
24664WAT     H274235   7.516   2.193   1.852
24665WAT      O74236   0.678   5.096   1.494
24665WAT     H174237   0.671   5.027   1.422
24665WAT     H274238   0.731   5.174   1.460
24666WAT      O74239   9.683   7.474   8.481
24666WAT     H174240   9.682   7.563   8.435
24666WAT     H274241   9.592   7.453   8.515
24667WAT      O74242   9.189   2.643   6.398
24667WAT     H174243   9.263   2.634   6.465
24667WAT     H274244   9.107   2.678   6.443
24668WAT      O74245   0.998   2.817   9.870
24668WAT     H174246   0.916   2.783   9.825
24668WAT     H274247   0.979   2.836   9.966
24669WAT      O74248   4.228   7.370   4.535
24669WAT     H174249   4.190   7.418   4.456
24669WAT     H274250   4.280   7.434   4.592
24670WAT      O74251   4.733   6.970   4.799
24670WAT     H174252   4.633   6.977   4.802
24670WAT     H274253   4.769   7.038   4.736
24671WAT      O74254   2.231   2.124   5.618
24671WAT     H174255   2.151   2.093   5.670
24671WAT     H274256   2.270   2.046   5.568
24672WAT      O74257   5.857   0.732   7.583
24672WAT     H174258   5.848   0.830   7.603
24672WAT     H274259   5.952   0.704   7.601
24673WAT      O74260   7.416   0.497   1.479
24673WAT     H174261   7.465   0.489   1.565
24673WAT     H274262   7.469   0.553   1.415
24674WAT      O74263   9.641   5.952   7.147
24674WAT     H174264   9.660   6.040   7.103
24674WAT     H274265   9.717   5.889   7.129
24675WAT      O74266   9.321   3.602   0.753
24675WAT     H174267   9.326   3.694   0.714
24675WAT     H274268   9.239   3.594   0.810
24676WAT      O74269   7.020   3.183   9.299
24676WAT     H174270   6.948   3.232   9.349
24676WAT     H274271   7.000   3.186   9.201
24677WAT      O74272   1.173   2.842   3.396
24677WAT     H174273   1.078   2.842   3.366
24677WAT     H274274   1.191   2.759   3.450
24678WAT      O74275   4.455   5.335   1.363
24678WAT     H174276   4.419   5.417   1.319
24678WAT     H274277   4.431   5.336   1.460
24679WAT      O74278   7.727   5.148   9.564
24679WAT     H174279   7.641   5.158   9.613
24679WAT     H274280   7.724   5.067   9.506
24680WAT      O74281   1.313   3.993   6.923
24680WAT     H174282   1.390   3.949   6.969
24680WAT     H274283   1.286   3.938   6.844
24681WAT      O74284   9.863   2.918   7.821
24681WAT     H174285   9.933   2.988   7.820
24681WAT     H274286   9.853   2.879   7.729
24682WAT      O74287   8.155   8.919   2.016
24682WAT     H174288   8.140   8.888   1.922
24682WAT     H274289   8.228   8.865   2.058
24683WAT      O74290   1.756   6.635   7.215
24683WAT     H174291   1.757   6.593   7.124
24683WAT     H274292   1.816   6.715   7.215
24684WAT      O74293   5.673   4.157   4.163
24684WAT     H174294   5.762   4.203   4.156
24684WAT     H274295   5.600   4.223   4.150
24685WAT      O74296   9.794   0.439   5.998
24685WAT     H174297   9.720   0.376   5.975
24685WAT     H274298   9.882   0.392   5.988
24686WAT      O74299   9.187   5.650   8.159
24686WAT     H174300   9.111   5.662   8.094
24686WAT     H274301   9.272   5.682   8.117
24687WAT      O74302   5.740   5.382   1.075
24687WAT     H174303   5.775   5.472   1.102
24687WAT     H274304   5.807   5.312   1.099
24688WAT      O74305   7.725   2.609   3.424
24688WAT     H174306   7.777   2.578   3.344
24688WAT     H274307   7.780   2.674   3.476
24689WAT      O74308   8.076   2.130   5.712
24689WAT     H174309   8.029   2.160   5.794
24689WAT     H274310   8.018   2.146   5.632
24690WAT      O74311   0.029   5.653   4.312
24690WAT     H174312   0.099   5.615   4.252
24690WAT     H274313   0.060   5.645   4.407
24691WAT      O74314   1.847   3.030   6.669
24691WAT     H174315   1.760   3.016   6.621
24691WAT     H274316   1.900   3.101   6.622
24692WAT      O74317   0.065   5.330   7.425
24692WAT     H174318   0.128   5.323   7.348
24692WAT     H274319  -0.028   5.314   7.394
24693WAT      O74320   1.504   3.565   7.707
24693WAT     H174321   1.578   3.586   7.643
24693WAT     H274322   1.494   3.466   7.715
24694WAT      O74323   2.936   6.862   7.431
24694WAT     H174324   2.899   6.946   7.390
24694WAT     H274325   3.022   6.882   7.478
24695WAT      O74326   3.483   9.833   3.698
24695WAT     H174327   3.480   9.852   3.796
24695WAT     H274328   3.576   9.807   3.672
24696WAT      O74329   6.097   4.235   7.355
24696WAT     H174330   6.090   4.137   7.377
24696WAT     H274331   6.005   4.275   7.353
24697WAT      O74332   4.403   2.341   7.858
24697WAT     H174333   4.380   2.438   7.860
24697WAT     H274334   4.429   2.315   7.765
24698WAT      O74335   9.860   4.139   8.505
24698WAT     H174336   9.812   4.054   8.524
24698WAT     H274337   9.944   4.120   8.454
24699WAT      O74338   6.496   6.493   7.650
24699WAT     H174339   6.489   6.399   7.615
24699WAT     H274340   6.405   6.526   7.672
24700WAT      O74341   5.598   3.160   4.740
24700WAT     H174342   5.536   3.197   4.810
24700WAT     H274343   5.651   3.234   4.700
24701WAT      O74344   4.590   4.908   7.928
24701WAT     H174345   4.533   4.923   8.009
24701WAT     H274346   4.685   4.894   7.957
24702WAT      O74347   7.887   8.675   5.919
24702WAT     H174348   7.982   8.663   5.947
24702WAT     H274349   7.885   8.714   5.826
24703WAT      O74350   3.425   2.380   5.661
24703WAT     H174351   3.350   2.438   5.630
24703WAT     H274352   3.496   2.375   5.590
24704WAT      O74353   7.540   5.109   0.089
24704WAT     H174354   7.639   5.093   0.096
24704WAT     H274355   7.524   5.190   0.032
24705WAT      O74356   6.500   7.457   5.960
24705WAT     H174357   6.565   7.498   5.896
24705WAT     H274358   6.433   7.402   5.909
24706WAT      O74359   0.965   2.627   2.350
24706WAT     H174360   0.934   2.712   2.307
24706WAT     H274361   0.926   2.549   2.301
24707WAT      O74362   3.120   3.464   2.200
24707WAT     H174363   3.127   3.520   2.283
24707WAT     H274364   3.041   3.403   2.209
24708WAT      O74365   8.439   1.040   5.237
24708WAT     H174366   8.343   1.066   5.250
24708WAT     H274367   8.489   1.052   5.323
24709WAT      O74368   0.426   7.072   0.177
24709WAT     H174369   0.449   6.975   0.170
24709WAT     H274370   0.509   7.127   0.174
24710WAT      O74371   3.303   5.875   4.945
24710WAT     H174372   3.395   5.912   4.930
24710WAT     H274373   3.268   5.907   5.033
24711WAT      O74374   6.999   8.008   4.999
24711WAT     H174375   7.081   7.957   5.026
24711WAT     H274376   6.937   8.015   5.077
24712WAT      O74377   0.162   9.451   6.122
24712WAT     H174378   0.092   9.424   6.187
24712WAT     H274379   0.199   9.370   6.077
24713WAT      O74380   7.602   2.197   0.335
24713WAT     H174381   7.686   2.159   0.373
24713WAT     H274382   7.574   2.277   0.389
24714WAT      O74383   2.951   6.525   8.242
24714WAT     H174384   3.023   6.530   8.173
24714WAT     H274385   2.896   6.609   8.239
24715WAT      O74386   6.090   8.520   1.105
24715WAT     H174387   6.043   8.608   1.108
24715WAT     H274388   6.145   8.509   1.187
24716WAT      O74389   4.144   8.521   7.438
24716WAT     H174390   4.242   8.540   7.430
24716WAT     H274391   4.130   8.432   7.482
24717WAT      O74392   0.307   4.334   8.932
24717WAT     H174393   0.381   4.390   8.893
24717WAT     H274394   0.230   4.393   8.955
24718WAT      O74395   1.622   0.964   3.510
24718WAT     H174396   1.687   1.038   3.489
24718WAT     H274397   1.569   0.989   3.591
24719WAT      O74398   5.345   2.683   9.503
24719WAT     H174399   5.360   2.738   9.420
24719WAT     H274400   5.269   2.620   9.488
24720WAT      O74401   9.610   5.118   7.046
24720WAT     H174402   9.604   5.049   6.974
24720WAT     H274403   9.550   5.093   7.122
24721WAT      O74404   5.574   8.362   4.426
24721WAT     H174405   5.484   8.385   4.390
24721WAT     H274406   5.629   8.319   4.354
24722WAT      O74407   3.644   5.511   7.262
24722WAT     H174408   3.544   5.523   7.260
24722WAT     H274409   3.673   5.464   7.179
24723WAT      O74410   1.673   7.688   0.970
24723WAT     H174411   1.578   7.660   0.981
24723WAT     H274412   1.679   7.764   0.905
24724WAT      O74413   4.669   9.152   8.109
24724WAT     H174414   4.763   9.132   8.080
24724WAT     H274415   4.605   9.116   8.042
24725WAT      O74416   7.458   2.447   0.750
24725WAT     H174417   7.401   2.376   0.793
24725WAT     H274418   7.538   2.465   0.807
24726WAT      O74419   6.516   2.515   3.739
24726WAT     H174420   6.600   2.464   3.720
24726WAT     H274421   6.474   2.543   3.652
24727WAT      O74422   3.543   6.271   7.990
24727WAT     H174423   3.515   6.225   7.905
24727WAT     H274424   3.485   6.241   8.065
24728WAT      O74425   1.288   6.518   4.923
24728WAT     H174426   1.211   6.566   4.881
24728WAT     H274427   1.356   6.497   4.852
24729WAT      O74428   5.294   5.835   2.242
24729WAT     H174429   5.226   5.770   2.209
24729WAT     H274430   5.385   5.808   2.209
24730WAT      O74431   3.588   1.650   8.245
24730WAT     H174432   3.685   1.625   8.245
24730WAT     H274433   3.554   1.651   8.151
24731WAT      O74434   3.441   3.191   5.848
24731WAT     H174435   3.425   3.191   5.947
24731WAT     H274436   3.375   3.251   5.804
24732WAT      O74437   0.282   4.910   7.133
24732WAT     H174438   0.294   4.831   7.072
24732WAT     H274439   0.371   4.937   7.169
24733WAT      O74440   4.687   2.197   0.175
24733WAT     H174441   4.759   2.241   0.121
24733WAT     H274442   4.612   2.170   0.114
24734WAT      O74443   8.422   3.981   2.344
24734WAT     H174444   8.462   3.942   2.426
24734WAT     H274445   8.455   3.932   2.263
24735WAT      O74446   3.725   7.867   3.836
24735WAT     H174447   3.778   7.782   3.838
24735WAT     H274448   3.745   7.917   3.752
24736WAT      O74449   6.446   8.067   0.134
24736WAT     H174450   6.377   8.135   0.161
24736WAT     H274451   6.491   8.031   0.215
24737WAT      O74452   8.756   1.684   9.433
24737WAT     H174453   8.782   1.656   9.525
24737WAT     H274454   8.706   1.770   9.437
24738WAT      O74455   3.040   3.469   6.794
24738WAT     H174456   2.982   3.388   6.790
24738WAT     H274457   2.983   3.551   6.801
24739WAT      O74458   0.913   6.038   1.479
24739WAT     H174459   0.818   6.070   1.484
24739WAT     H274460   0.936   6.018   1.384
24740WAT      O74461   2.476   4.853   3.659
24740WAT     H174462   2.509   4.902   3.740
24740WAT     H274463   2.534   4.875   3.581
24741WAT      O74464   9.862   5.265   1.394
24741WAT     H174465   9.932   5.257   1.465
24741WAT     H274466   9.888   5.210   1.315
24742WAT      O74467   4.023   0.012   4.306
24742WAT     H174468   3.947  -0.003   4.242
24742WAT     H274469   4.099   0.055   4.258
24743WAT      O74470   3.859   2.676   8.960
24743WAT     H174471   3.937   2.625   8.997
24743WAT     H274472   3.857   2.768   8.998
24744WAT      O74473   7.450   4.396   9.234
24744WAT     H174474   7.545   4.397   9.266
24744WAT     H274475   7.440   4.324   9.165
24745WAT      O74476   9.833   9.720   4.101
24745WAT     H174477   9.877   9.720   4.190
24745WAT     H274478   9.745   9.767   4.107
24746WAT      O74479   5.814   8.541   1.728
24746WAT     H174480   5.743   8.471   1.727
24746WAT     H274481   5.846   8.557   1.635
24747WAT      O74482   2.925   5.795   2.038
24747WAT     H174483   3.001   5.859   2.053
24747WAT     H274484   2.933   5.755   1.947
24748WAT      O74485   9.222   4.849   6.357
24748WAT     H174486   9.133   4.894   6.351
24748WAT     H274487   9.280   4.879   6.281
24749WAT      O74488   7.290   2.638   2.627
24749WAT     H174489   7.313   2.579   2.704
24749WAT     H274490   7.336   2.726   2.638
24750WAT      O74491   7.182   4.554   1.993
24750WAT     H174492   7.189   4.455   2.007
24750WAT     H274493   7.100   4.575   1.940
24751WAT      O74494   7.448   7.513   6.244
24751WAT     H174495   7.543   7.545   6.251
24751WAT     H274496   7.422   7.507   6.148
24752WAT      O74497   6.256   0.478   7.004
24752WAT     H174498   6.191   0.481   6.928
24752WAT     H274499   6.338   0.529   6.979
24753WAT      O74500   7.401   9.777   4.840
24753WAT     H174501   7.426   9.736   4.752
24753WAT     H274502   7.319   9.832   4.829
24754WAT      O74503   6.517   2.005   6.229
24754WAT     H174504   6.435   1.952   6.252
24754WAT     H274505   6.523   2.016   6.130
24755WAT      O74506   3.796   5.806   5.615
24755WAT     H174507   3.776   5.894   5.659
24755WAT     H274508   3.878   5.815   5.559
24756WAT      O74509   5.498   5.908   1.262
24756WAT     H174510   5.424   5.936   1.323
24756WAT     H274511   5.509   5.809   1.266
24757WAT      O74512   4.826   7.167   4.621
24757WAT     H174513   4.895   7.224   4.666
24757WAT     H274514   4.846   7.161   4.523
24758WAT      O74515   9.495   2.211   0.426
24758WAT     H174516   9.475   2.184   0.520
24758WAT     H274517   9.410   2.216   0.374
24759WAT      O74518   9.489   9.248   8.669
24759WAT     H174519   9.513   9.303   8.749
24759WAT     H274520   9.568   9.240   8.609
24760WAT      O74521   9.279   5.170   9.825
24760WAT     H174522   9.282   5.146   9.728
24760WAT     H274523   9.208   5.238   9.840
24761WAT      O74524   9.210   1.640   1.182
24761WAT     H174525   9.182   1.734   1.204
24761WAT     H274526   9.302   1.641   1.143
24762WAT      O74527   9.648   1.300   2.102
24762WAT     H174528   9.676   1.285   2.007
24762WAT     H274529   9.600   1.220   2.136
24763WAT      O74530   5.107   2.411   6.091
24763WAT     H174531   5.169   2.422   6.169
24763WAT     H274532   5.014   2.433   6.119
24764WAT      O74533   4.455   0.593   2.226
24764WAT     H174534   4.528   0.584   2.158
24764WAT     H274535   4.375   0.541   2.195
24765WAT      O74536   6.494   2.618   2.709
24765WAT     H174537   6.475   2.603   2.806
24765WAT     H274538   6.416   2.585   2.655
24766WAT      O74539   9.368   6.918   6.837
24766WAT     H174540   9.310   6.991   6.874
24766WAT     H274541   9.316   6.862   6.773
24767WAT      O74542   0.575   9.187   9.370
24767WAT     H174543   0.482   9.206   9.338
24767WAT     H274544   0.580   9.094   9.404
24768WAT      O74545   1.430   7.601   5.970
24768WAT     H174546   1.369   7.651   5.910
24768WAT     H274547   1.525   7.625   5.949
24769WAT      O74548   6.991   7.252   9.514
24769WAT     H174549   7.053   7.330   9.517
24769WAT     H274550   6.933   7.253   9.596
24770WAT      O74551   4.899   8.149   2.871
24770WAT     H174552   4.858   8.199   2.795
24770WAT     H274553   4.925   8.058   2.841
24771WAT      O74554   1.976   3.141   7.757
24771WAT     H174555   2.009   3.170   7.667
24771WAT     H274556   1.889   3.093   7.746
24772WAT      O74557   3.790   4.972   1.940
24772WAT     H174558   3.730   4.927   1.874
24772WAT     H274559   3.853   4.905   1.979
24773WAT      O74560   3.489   9.800   3.139
24773WAT     H174561   3.541   9.879   3.107
24773WAT     H274562   3.416   9.779   3.073
24774WAT      O74563   0.117   4.287   9.203
24774WAT     H174564   0.085   4.365   9.149
24774WAT     H274565   0.163   4.320   9.286
24775WAT      O74566   8.893   5.145   0.799
24775WAT     H174567   8.819   5.191   0.849
24775WAT     H274568   8.853   5.085   0.729
24776WAT      O74569   8.216   2.064   9.763
24776WAT     H174570   8.137   2.068   9.824
24776WAT     H274571   8.265   2.151   9.767
24777WAT      O74572   7.515   8.646   2.087
24777WAT     H174573   7.513   8.709   2.165
24777WAT     H274574   7.457   8.683   2.014
24778WAT      O74575   0.029   9.691   2.605
24778WAT     H174576   0.034   9.738   2.517
24778WAT     H274577   0.120   9.661   2.633
24779WAT      O74578   7.043   6.255   8.016
24779WAT     H174579   6.981   6.178   8.031
24779WAT     H274580   7.055   6.269   7.917
24780WAT      O74581   1.745   1.007   0.153
24780WAT     H174582   1.840   0.976   0.163
24780WAT     H274583   1.692   0.935   0.108
24781WAT      O74584   6.608   8.044   8.614
24781WAT     H174585   6.546   8.121   8.596
24781WAT     H274586   6.691   8.055   8.560
24782WAT      O74587   6.786   7.716   5.145
24782WAT     H174588   6.699   7.749   5.107
24782WAT     H274589   6.787   7.616   5.143
24783WAT      O74590   3.737   3.596   9.252
24783WAT     H174591   3.793   3.612   9.171
24783WAT     H274592   3.724   3.682   9.301
24784WAT      O74593   7.739   7.358   3.382
24784WAT     H174594   7.800   7.404   3.317
24784WAT     H274595   7.720   7.420   3.458
24785WAT      O74596   9.623   2.908   0.365
24785WAT     H174597   9.651   2.962   0.444
24785WAT     H274598   9.538   2.945   0.328
24786WAT      O74599   1.047   2.522   1.904
24786WAT     H174600   1.113   2.524   1.829
24786WAT     H274601   0.979   2.595   1.890
24787WAT      O74602   8.841   9.382   6.927
24787WAT     H174603   8.804   9.310   6.869
24787WAT     H274604   8.874   9.342   7.013
24788WAT      O74605   6.875   0.678   0.652
24788WAT     H174606   6.833   0.768   0.670
24788WAT     H274607   6.921   0.681   0.563
24789WAT      O74608   2.554   0.696   9.155
24789WAT     H174609   2.494   0.616   9.146
24789WAT     H274610   2.499   0.774   9.187
24790WAT      O74611   0.631   4.697   2.073
24790WAT     H174612   0.669   4.617   2.028
24790WAT     H274613   0.543   4.673   2.114
24791WAT      O74614   3.071   8.765   3.568
24791WAT     H174615   3.035   8.723   3.485
24791WAT     H274616   3.082   8.694   3.639
24792WAT      O74617   5.863   6.795   3.954
24792WAT     H174618   5.926   6.873   3.954
24792WAT     H274619   5.812   6.793   3.868
24793WAT      O74620   8.680   3.444   9.868
24793WAT     H174621   8.662   3.485   9.958
24793WAT     H274622   8.776   3.414   9.864
24794WAT      O74623   0.470   5.261   3.205
24794WAT     H174624   0.477   5.223   3.297
24794WAT     H274625   0.551   5.236   3.152
24795WAT      O74626   9.742   6.738   2.001
24795WAT     H174627   9.745   6.728   2.100
24795WAT     H274628   9.664   6.795   1.975
24796WAT      O74629   3.972   8.350   3.930
24796WAT     H174630   3.947   8.339   3.834
24796WAT     H274631   3.891   8.334   3.987
24797WAT      O74632   7.392   4.862   0.020
24797WAT     H174633   7.444   4.945   0.041
24797WAT     H274634   7.296   4.885   0.005
24798WAT      O74635   5.880   8.656   9.099
24798WAT     H174636   5.811   8.657   9.026
24798WAT     H274637   5.885   8.564   9.138
24799WAT      O74638   9.456   8.414   0.613
24799WAT     H174639   9.419   8.498   0.652
24799WAT     H274640   9.556   8.417   0.616
24800WAT      O74641   4.621   9.342   6.242
24800WAT     H174642   4.611   9.423   6.185
24800WAT     H274643   4.531   9.314   6.276
24801WAT      O74644   9.222   1.845   0.998
24801WAT     H174645   9.279   1.811   1.074
24801WAT     H274646   9.166   1.770   0.963
24802WAT      O74647   8.958   1.228   1.306
24802WAT     H174648   8.987   1.214   1.211
24802WAT     H274649   8.968   1.143   1.357
24803WAT      O74650   7.891   4.495   5.443
24803WAT     H174651   7.968   4.538   5.491
24803WAT     H274652   7.927   4.434   5.371
24804WAT      O74653   8.506   5.582   3.741
24804WAT     H174654   8.438   5.622   3.679
24804WAT     H274655   8.557   5.654   3.787
24805WAT      O74656   5.514   6.733   9.045
24805WAT     H174657   5.523   6.637   9.072
24805WAT     H274658   5.418   6.761   9.056
24806WAT      O74659   0.262   6.009   2.057
24806WAT     H174660   0.191   5.996   1.988
24806WAT     H274661   0.219   6.024   2.146
24807WAT      O74662   2.393   9.514   1.895
24807WAT     H174663   2.455   9.530   1.818
24807WAT     H274664   2.385   9.598   1.950
24808WAT      O74665   5.718   3.688   7.753
24808WAT     H174666   5.629   3.734   7.750
24808WAT     H274667   5.724   3.632   7.836
24809WAT      O74668   2.002   2.176   0.908
24809WAT     H174669   1.926   2.171   0.973
24809WAT     H274670   2.014   2.087   0.863
24810WAT      O74671   0.930   9.566   5.158
24810WAT     H174672   0.974   9.584   5.071
24810WAT     H274673   0.858   9.498   5.146
24811WAT      O74674   3.266   8.246   9.519
24811WAT     H174675   3.281   8.208   9.428
24811WAT     H274676   3.210   8.182   9.573
24812WAT      O74677   6.781   4.307   7.803
24812WAT     H174678   6.780   4.314   7.703
24812WAT     H274679   6.698   4.349   7.840
24813WAT      O74680   3.168   9.537   9.778
24813WAT     H174681   3.128   9.599   9.846
24813WAT     H274682   3.211   9.591   9.706
24814WAT      O74683   5.569   8.747   2.305
24814WAT     H174684   5.565   8.839   2.267
24814WAT     H274685   5.479   8.721   2.339
24815WAT      O74686   3.845   8.738   9.440
24815WAT     H174687   3.788   8.809   9.482
24815WAT     H274688   3.821   8.649   9.478
24816WAT      O74689   0.582   3.372   8.627
24816WAT     H174690   0.655   3.440   8.626
24816WAT     H274691   0.569   3.335   8.535
24817WAT      O74692   7.355   1.069   8.882
24817WAT     H174693   7.300   1.143   8.919
24817WAT     H274694   7.435   1.108   8.835
24818WAT      O74695   6.266   6.797   7.652
24818WAT     H174696   6.359   6.827   7.674
24818WAT     H274697   6.260   6.698   7.658
24819WAT      O74698   0.161   7.503   9.155
24819WAT     H174699   0.109   7.542   9.078
24819WAT     H274700   0.202   7.417   9.127
24820WAT      O74701   4.628   5.168   7.008
24820WAT     H174702   4.573   5.084   7.002
24820WAT     H274703   4.630   5.199   7.103
24821WAT      O74704   1.583   9.208   6.656
24821WAT     H174705   1.578   9.308   6.656
24821WAT     H274706   1.577   9.174   6.561
24822WAT      O74707   5.315   7.484   0.766
24822WAT     H174708   5.337   7.387   0.769
24822WAT     H274709   5.399   7.537   0.749
24823WAT      O74710   5.307   1.893   5.393
24823WAT     H174711   5.360   1.862   5.472
24823WAT     H274712   5.349   1.975   5.354
24824WAT      O74713   6.026   0.680   2.165
24824WAT     H174714   6.102   0.655   2.226
24824WAT     H274715   6.062   0.727   2.085
24825WAT      O74716   0.652   4.844   1.360
24825WAT     H174717   0.649   4.785   1.440
24825WAT     H274718   0.737   4.828   1.309
24826WAT      O74719   4.327   1.457   6.726
24826WAT     H174720   4.423   1.482   6.712
24826WAT     H274721   4.277   1.536   6.762
24827WAT      O74722   3.882   4.310   4.832
24827WAT     H174723   3.839   4.394   4.866
24827WAT     H274724   3.965   4.334   4.781
24828WAT      O74725   4.069   2.945   6.064
24828WAT     H174726   4.040   2.883   6.136
24828WAT     H274727   4.008   2.936   5.985
24829WAT      O74728   6.279   0.428   4.787
24829WAT     H174729   6.189   0.384   4.792
24829WAT     H274730   6.282   0.505   4.851
24830WAT      O74731   2.745   3.260   0.715
24830WAT     H174732   2.655   3.225   0.738
24830WAT     H274733   2.737   3.323   0.637
24831WAT      O74734   2.959   1.397   9.296
24831WAT     H174735   3.007   1.325   9.247
24831WAT     H274736   2.893   1.441   9.235
24832WAT      O74737   0.021   0.949   4.211
24832WAT     H174738   0.039   1.016   4.283
24832WAT     H274739  -0.077   0.927   4.209
24833WAT      O74740   4.808   7.601   9.361
24833WAT     H174741   4.718   7.588   9.403
24833WAT     H274742   4.827   7.699   9.354
24834WAT      O74743   3.192   2.832   6.626
24834WAT     H174744   3.190   2.922   6.581
24834WAT     H274745   3.102   2.789   6.618
24835WAT      O74746   4.327   7.601   9.100
24835WAT     H174747   4.311   7.571   9.194
24835WAT     H274748   4.277   7.686   9.084
24836WAT      O74749   6.073   9.322   4.886
24836WAT     H174750   6.044   9.416   4.906
24836WAT     H274751   5.993   9.264   4.875
24837WAT      O74752   4.554   9.449   7.168
24837WAT     H174753   4.584   9.544   7.161
24837WAT     H274754   4.528   9.429   7.263
24838WAT      O74755   7.477   8.189   8.789
24838WAT     H174756   7.535   8.168   8.710
24838WAT     H274757   7.475   8.110   8.850
24839WAT      O74758   8.321   1.193   8.038
24839WAT     H174759   8.260   1.133   7.986
24839WAT     H274760   8.329   1.159   8.132
24840WAT      O74761   9.386   8.860   5.974
24840WAT     H174762   9.335   8.899   6.051
24840WAT     H274763   9.475   8.905   5.967
24841WAT      O74764   4.062   7.270   8.799
24841WAT     H174765   4.127   7.329   8.847
24841WAT     H274766   4.076   7.175   8.828
24842WAT      O74767   8.754   2.886   9.120
24842WAT     H174768   8.715   2.973   9.152
24842WAT     H274769   8.769   2.891   9.022
24843WAT      O74770   4.779   2.809   7.270
24843WAT     H174771   4.810   2.718   7.245
24843WAT     H274772   4.827   2.839   7.353
24844WAT      O74773   1.123   8.558   9.562
24844WAT     H174774   1.065   8.491   9.516
24844WAT     H274775   1.159   8.623   9.496
24845WAT      O74776   7.258   5.784   2.014
24845WAT     H174777   7.249   5.877   1.978
24845WAT     H274778   7.222   5.781   2.108
24846WAT      O74779   8.516   6.883   6.070
24846WAT     H174780   8.569   6.803   6.099
24846WAT     H274781   8.419   6.864   6.082
24847WAT      O74782   9.197   6.033   5.231
24847WAT     H174783   9.165   5.940   5.249
24847WAT     H274784   9.296   6.032   5.219
24848WAT      O74785   4.947   8.648   0.297
24848WAT     H174786   4.871   8.696   0.340
24848WAT     H274787   4.912   8.572   0.243
24849WAT      O74788   8.085   4.153   1.054
24849WAT     H174789   8.113   4.146   0.958
24849WAT     H274790   7.994   4.196   1.058
24850WAT      O74791   2.025   8.769   0.528
24850WAT     H174792   2.103   8.709   0.548
24850WAT     H274793   2.042   8.860   0.567
24851WAT      O74794   8.970   9.642   8.571
24851WAT     H174795   9.021   9.601   8.646
24851WAT     H274796   8.947   9.571   8.504
24852WAT      O74797   3.780   7.488   0.167
24852WAT     H174798   3.813   7.463   0.076
24852WAT     H274799   3.684   7.515   0.162
24853WAT      O74800   3.036   2.422   4.151
24853WAT     H174801   2.964   2.490   4.140
24853WAT     H274802   3.044   2.368   4.067
24854WAT      O74803   9.542   0.302   9.732
24854WAT     H174804   9.637   0.275   9.717
24854WAT     H274805   9.482   0.225   9.712
24855WAT      O74806   0.267   7.133   7.496
24855WAT     H174807   0.249   7.228   7.521
24855WAT     H274808   0.363   7.111   7.514
24856WAT      O74809   9.212   6.610   1.687
24856WAT     H174810   9.249   6.517   1.680
24856WAT     H274811   9.161   6.619   1.773
24857WAT      O74812   7.873   0.189   7.396
24857WAT     H174813   7.919   0.245   7.327
24857WAT     H274814   7.876   0.093   7.368
24858WAT      O74815   7.207   1.338   0.339
24858WAT     H174816   7.218   1.428   0.381
24858WAT     H274817   7.256   1.269   0.392
24859WAT      O74818   6.665   3.015   4.483
24859WAT     H174819   6.664   2.919   4.453
24859WAT     H274820   6.682   3.018   4.582
24860WAT      O74821   4.776   4.221   9.048
24860WAT     H174822   4.763   4.310   9.004
24860WAT     H274823   4.810   4.155   8.980
24861WAT      O74824   8.206   8.493   9.228
24861WAT     H174825   8.107   8.497   9.234
24861WAT     H274826   8.241   8.577   9.185
24862WAT      O74827   0.676   8.619   9.214
24862WAT     H174828   0.647   8.550   9.147
24862WAT     H274829   0.711   8.573   9.295
24863WAT      O74830   4.607   8.157   4.020
24863WAT     H174831   4.687   8.130   3.967
24863WAT     H274832   4.635   8.221   4.092
24864WAT      O74833   5.517   7.967   7.824
24864WAT     H174834   5.591   7.993   7.762
24864WAT     H274835   5.512   7.868   7.831
24865WAT      O74836   7.029   1.602   8.041
24865WAT     H174837   7.082   1.674   7.997
24865WAT     H274838   7.085   1.520   8.051
24866WAT      O74839   6.173   2.763   2.162
24866WAT     H174840   6.209   2.833   2.100
24866WAT     H274841   6.248   2.720   2.211
24867WAT      O74842   0.643   9.568   6.039
24867WAT     H174843   0.648   9.662   6.072
24867WAT     H274844   0.579   9.516   6.097
24868WAT      O74845   9.135   6.370   4.102
24868WAT     H174846   9.212   6.320   4.142
24868WAT     H274847   9.071   6.396   4.174
24869WAT      O74848   0.659   8.418   7.202
24869WAT     H174849   0.596   8.443   7.128
24869WAT     H274850   0.659   8.319   7.214
24870WAT      O74851   1.455   6.247   1.841
24870WAT     H174852   1.379   6.297   1.800
24870WAT     H274853   1.467   6.160   1.793
24871WAT      O74854   1.092   9.713   4.948
24871WAT     H174855   1.134   9.708   5.038
24871WAT     H274856   1.161   9.695   4.877
24872WAT      O74857   8.216   1.347   7.341
24872WAT     H174858   8.131   1.324   7.293
24872WAT     H274859   8.195   1.401   7.422
24873WAT      O74860   4.446   7.706   2.865
24873WAT     H174861   4.518   7.713   2.934
24873WAT     H274862   4.378   7.777   2.882
24874WAT      O74863   2.196   0.116   6.685
24874WAT     H174864   2.139   0.068   6.619
24874WAT     H274865   2.244   0.191   6.640
24875WAT      O74866   7.890   2.286   9.613
24875WAT     H174867   7.831   2.222   9.564
24875WAT     H274868   7.943   2.236   9.681
24876WAT      O74869   9.847   0.346   1.707
24876WAT     H174870   9.808   0.342   1.799
24876WAT     H274871   9.942   0.376   1.712
24877WAT      O74872   4.118   1.646   3.547
24877WAT     H174873   4.059   1.659   3.627
24877WAT     H274874   4.208   1.685   3.566
24878WAT      O74875   4.259   0.486   8.856
24878WAT     H174876   4.261   0.392   8.891
24878WAT     H274877   4.255   0.485   8.756
24879WAT      O74878   3.434   8.056   3.711
24879WAT     H174879   3.495   8.038   3.634
24879WAT     H274880   3.440   8.152   3.736
24880WAT      O74881   6.219   8.348   9.459
24880WAT     H174882   6.237   8.382   9.367
24880WAT     H274883   6.150   8.406   9.503
24881WAT      O74884   7.464   3.900   7.182
24881WAT     H174885   7.462   4.000   7.178
24881WAT     H274886   7.547   3.870   7.229
24882WAT      O74887   9.710   7.927   5.257
24882WAT     H174888   9.636   7.966   5.313
24882WAT     H274889   9.693   7.948   5.161
24883WAT      O74890   4.731   2.602   1.443
24883WAT     H174891   4.699   2.588   1.349
24883WAT     H274892   4.830   2.586   1.447
24884WAT      O74893   2.305   7.880   1.397
24884WAT     H174894   2.235   7.848   1.460
24884WAT     H274895   2.264   7.942   1.330
24885WAT      O74896   2.227   5.893   6.074
24885WAT     H174897   2.187   5.813   6.031
24885WAT     H274898   2.198   5.897   6.170
24886WAT      O74899   1.969   4.190   1.105
24886WAT     H174900   2.017   4.267   1.146
24886WAT     H274901   1.929   4.217   1.018
24887WAT      O74902   0.334   6.645   5.094
24887WAT     H174903   0.408   6.593   5.137
24887WAT     H274904   0.334   6.739   5.130
24888WAT      O74905   7.239   9.049   9.087
24888WAT     H174906   7.338   9.035   9.087
24888WAT     H274907   7.194   8.966   9.054
24889WAT      O74908   8.421   4.236   6.264
24889WAT     H174909   8.380   4.267   6.178
24889WAT     H274910   8.352   4.235   6.336
24890WAT      O74911   2.434   6.170   8.723
24890WAT     H174912   2.398   6.090   8.771
24890WAT     H274913   2.462   6.239   8.790
24891WAT      O74914   5.683   2.315   9.699
24891WAT     H174915   5.607   2.372   9.668
24891WAT     H274916   5.712   2.255   9.625
24892WAT      O74917   7.904   6.162   9.192
24892WAT     H174918   7.929   6.253   9.158
24892WAT     H274919   7.806   6.158   9.208
24893WAT      O74920   7.483   3.447   0.783
24893WAT     H174921   7.451   3.541   0.794
24893WAT     H274922   7.501   3.406   0.872
24894WAT      O74923   6.017   5.766   9.191
24894WAT     H174924   6.016   5.709   9.273
24894WAT     H274925   5.956   5.844   9.203
24895WAT      O74926   8.970   3.284   1.909
24895WAT     H174927   8.917   3.239   1.981
24895WAT     H274928   8.911   3.303   1.831
24896WAT      O74929   6.090   1.609   0.041
24896WAT     H174930   6.183   1.641   0.019
24896WAT     H274931   6.063   1.539  -0.024
24897WAT      O74932   0.133   0.993   2.024
24897WAT     H174933   0.124   1.017   1.928
24897WAT     H274934   0.129   1.076   2.080
24898WAT      O74935   4.388   7.535   3.910
24898WAT     H174936   4.364   7.603   3.979
24898WAT     H274937   4.305   7.503   3.865
24899WAT      O74938   5.477   5.566   6.225
24899WAT     H174939   5.531   5.489   6.260
24899WAT     H274940   5.529   5.651   6.236
24900WAT      O74941   6.289   8.827   8.508
24900WAT     H174942   6.348   8.771   8.450
24900WAT     H274943   6.227   8.881   8.450
24901WAT      O74944   6.176   3.783   1.331
24901WAT     H174945   6.168   3.879   1.305
24901WAT     H274946   6.156   3.725   1.252
24902WAT      O74947   5.769   0.974   8.071
24902WAT     H174948   5.683   0.968   8.019
24902WAT     H274949   5.828   0.898   8.046
24903WAT      O74950   3.347   5.762   4.120
24903WAT     H174951   3.251   5.735   4.126
24903WAT     H274952   3.356   5.859   4.146
24904WAT      O74953   0.205   2.500   2.208
24904WAT     H174954   0.257   2.444   2.273
24904WAT     H274955   0.265   2.529   2.133
24905WAT      O74956   2.222   2.033   0.417
24905WAT     H174957   2.260   2.003   0.504
24905WAT     H274958   2.181   2.123   0.428
24906WAT      O74959   2.117   5.560   5.165
24906WAT     H174960   2.087   5.522   5.078
24906WAT     H274961   2.038   5.582   5.221
24907WAT      O74962   0.968   5.903   3.240
24907WAT     H174963   0.994   5.883   3.335
24907WAT     H274964   0.948   6.001   3.232
24908WAT      O74965   2.364   9.500   2.635
24908WAT     H174966   2.378   9.416   2.687
24908WAT     H274967   2.280   9.493   2.582
24909WAT      O74968   8.574   6.799   3.221
24909WAT     H174969   8.497   6.850   3.258
24909WAT     H274970   8.576   6.708   3.261
24910WAT      O74971   4.760   8.879   3.402
24910WAT     H174972   4.780   8.801   3.342
24910WAT     H274973   4.844   8.931   3.419
24911WAT      O74974   0.111   6.788   1.331
24911WAT     H174975   0.034   6.799   1.268
24911WAT     H274976   0.175   6.864   1.319
24912WAT      O74977   7.356   8.290   5.236
24912WAT     H174978   7.303   8.351   5.296
24912WAT     H274979   7.450   8.284   5.269
24913WAT      O74980   8.571   0.057   0.038
24913WAT     H174981   8.628   0.126  -0.006
24913WAT     H274982   8.586   0.059   0.137
24914WAT      O74983   0.433   8.556   0.029
24914WAT     H174984   0.361   8.623   0.049
24914WAT     H274985   0.521   8.602   0.024
24915WAT      O74986   5.471   3.871   0.372
24915WAT     H174987   5.387   3.865   0.426
24915WAT     H274988   5.450   3.850   0.276
24916WAT      O74989   0.260   5.300   4.340
24916WAT     H174990   0.211   5.351   4.269
24916WAT     H274991   0.225   5.207   4.344
24917WAT      O74992   5.149   3.730   5.195
24917WAT     H174993   5.202   3.768   5.271
24917WAT     H274994   5.112   3.804   5.140
24918WAT      O74995   5.748   7.067   7.085
24918WAT     H174996   5.750   7.116   7.172
24918WAT     H274997   5.774   6.971   7.100
24919WAT      O74998   3.628   6.479   4.005
24919WAT     H174999   3.547   6.431   3.972
24919WAT     H275000   3.709   6.424   3.987
24920WAT      O75001   0.720   0.632   5.050
24920WAT     H175002   0.720   0.670   4.958
24920WAT     H275003   0.700   0.704   5.116
24921WAT      O75004   9.041   0.676   0.224
24921WAT     H175005   9.072   0.668   0.129
24921WAT     H275006   8.992   0.593   0.250
24922WAT      O75007   8.859   9.616   9.231
24922WAT     H175008   8.768   9.636   9.195
24922WAT     H275009   8.921   9.597   9.155
24923WAT      O75010   9.343   5.098   0.793
24923WAT     H175011   9.440   5.117   0.809
24923WAT     H275012   9.333   5.009   0.750
24924WAT      O75013   5.383   0.234   9.204
24924WAT     H175014   5.295   0.187   9.200
24924WAT     H275015   5.390   0.285   9.290
24925WAT      O75016   0.826   5.319   4.881
24925WAT     H175017   0.826   5.301   4.980
24925WAT     H275018   0.828   5.232   4.832
24926WAT      O75019   5.934   9.639   6.512
24926WAT     H175020   5.937   9.631   6.612
24926WAT     H275021   5.948   9.734   6.485
24927WAT      O75022   6.539   1.369   8.978
24927WAT     H175023   6.533   1.447   9.041
24927WAT     H275024   6.635   1.355   8.952
24928WAT      O75025   5.663   7.872   7.256
24928WAT     H175026   5.572   7.887   7.219
24928WAT     H275027   5.726   7.850   7.182
24929WAT      O75028   7.277   6.542   9.355
24929WAT     H175029   7.361   6.569   9.401
24929WAT     H275030   7.199   6.587   9.400
24930WAT      O75031   0.701   3.955   8.287
24930WAT     H175032   0.690   3.858   8.268
24930WAT     H275033   0.723   3.967   8.384
24931WAT      O75034   1.100   6.694   4.061
24931WAT     H175035   1.146   6.609   4.087
24931WAT     H275036   1.009   6.673   4.026
24932WAT      O75037   4.820   6.856   7.075
24932WAT     H175038   4.769   6.779   7.112
24932WAT     H275039   4.901   6.872   7.131
24933WAT      O75040   4.631   5.289   3.098
24933WAT     H175041   4.643   5.368   3.038
24933WAT     H275042   4.536   5.259   3.094
24934WAT      O75043   8.230   6.937   4.555
24934WAT     H175044   8.329   6.933   4.571
24934WAT     H275045   8.200   6.853   4.510
24935WAT      O75046   8.397   8.690   7.275
24935WAT     H175047   8.485   8.705   7.321
24935WAT     H275048   8.409   8.703   7.177
24936WAT      O75049   7.733   1.295   3.943
24936WAT     H175050   7.826   1.333   3.945
24936WAT     H275051   7.733   1.209   3.892
24937WAT      O75052   4.215   5.182   0.484
24937WAT     H175053   4.299   5.130   0.469
24937WAT     H275054   4.136   5.122   0.472
24938WAT      O75055   5.897   0.005   1.195
24938WAT     H175056   5.850   0.000   1.283
24938WAT     H275057   5.837   0.048   1.128
24939WAT      O75058   0.408   6.479   4.104
24939WAT     H175059   0.348   6.524   4.038
24939WAT     H275060   0.394   6.519   4.195
24940WAT      O75061   2.885   2.357   9.116
24940WAT     H175062   2.809   2.402   9.164
24940WAT     H275063   2.861   2.345   9.020
24941WAT      O75064   1.305   1.996   0.544
24941WAT     H175065   1.350   2.047   0.470
24941WAT     H275066   1.366   1.923   0.575
24942WAT      O75067   6.280   3.094   7.402
24942WAT     H175068   6.346   3.169   7.401
24942WAT     H275069   6.189   3.128   7.377
24943WAT      O75070   4.030   0.396   1.938
24943WAT     H175071   3.938   0.416   1.903
24943WAT     H275072   4.096   0.456   1.893
24944WAT      O75073   8.662   1.396   8.072
24944WAT     H175074   8.618   1.422   7.986
24944WAT     H275075   8.653   1.298   8.085
24945WAT      O75076   3.717   1.822   9.394
24945WAT     H175077   3.773   1.881   9.452
24945WAT     H275078   3.633   1.870   9.367
24946WAT      O75079   5.533   6.474   6.560
24946WAT     H175080   5.579   6.562   6.571
24946WAT     H275081   5.527   6.428   6.648
24947WAT      O75082   2.279   7.926   2.480
24947WAT     H175083   2.316   7.975   2.559
24947WAT     H275084   2.251   7.834   2.508
24948WAT      O75085   5.146   8.260   5.978
24948WAT     H175086   5.134   8.251   6.077
24948WAT     H275087   5.228   8.313   5.958
24949WAT      O75088   7.991   1.103   3.650
24949WAT     H175089   7.911   1.139   3.603
24949WAT     H275090   8.073   1.154   3.622
24950WAT      O75091   4.686   0.517   1.258
24950WAT     H175092   4.765   0.504   1.318
24950WAT     H275093   4.605   0.475   1.299
24951WAT      O75094   0.761   2.981   7.350
24951WAT     H175095   0.693   3.049   7.322
24951WAT     H275096   0.849   3.027   7.365
24952WAT      O75097   6.863   8.076   5.226
24952WAT     H175098   6.949   8.118   5.255
24952WAT     H275099   6.795   8.147   5.209
24953WAT      O75100   0.495   8.759   6.478
24953WAT     H175101   0.458   8.803   6.559
24953WAT     H275102   0.509   8.827   6.406
24954WAT      O75103   1.375   6.524   3.207
24954WAT     H175104   1.345   6.432   3.233
24954WAT     H275105   1.363   6.586   3.284
24955WAT      O75106   6.314   1.572   2.568
24955WAT     H175107   6.402   1.599   2.609
24955WAT     H275108   6.258   1.654   2.553
24956WAT      O75109   8.041   0.714   3.479
24956WAT     H175110   8.050   0.625   3.435
24956WAT     H275111   8.126   0.766   3.468
24957WAT      O75112   9.370   9.148   0.354
24957WAT     H175113   9.403   9.191   0.270
24957WAT     H275114   9.295   9.086   0.333
24958WAT      O75115   9.236   3.082   8.889
24958WAT     H175116   9.250   2.986   8.913
24958WAT     H275117   9.171   3.123   8.953
24959WAT      O75118   1.587   6.093   6.015
24959WAT     H175119   1.616   6.166   5.953
24959WAT     H275120   1.528   6.030   5.966
24960WAT      O75121   9.767   8.742   7.929
24960WAT     H175122   9.697   8.672   7.941
24960WAT     H275123   9.854   8.698   7.902
24961WAT      O75124   0.146   7.039   3.754
24961WAT     H175125   0.094   6.996   3.680
24961WAT     H275126   0.211   7.104   3.715
24962WAT      O75127   4.230   3.108   4.204
24962WAT     H175128   4.155   3.126   4.140
24962WAT     H275129   4.219   3.016   4.242
24963WAT      O75130   7.498   2.266   5.416
24963WAT     H175131   7.511   2.201   5.491
24963WAT     H275132   7.410   2.247   5.372
24964WAT      O75133   6.787   2.424   2.398
24964WAT     H175134   6.874   2.400   2.441
24964WAT     H275135   6.713   2.373   2.442
24965WAT      O75136   2.213   4.044   4.870
24965WAT     H175137   2.216   4.108   4.794
24965WAT     H275138   2.137   3.981   4.858
24966WAT      O75139   7.093   8.415   5.085
24966WAT     H175140   7.167   8.442   5.146
24966WAT     H275141   7.074   8.490   5.021
24967WAT      O75142   0.942   6.254   3.667
24967WAT     H175143   0.985   6.229   3.580
24967WAT     H275144   0.875   6.184   3.693
24968WAT      O75145   3.018   1.441   6.017
24968WAT     H175146   2.980   1.516   5.962
24968WAT     H275147   2.945   1.377   6.039
24969WAT      O75148   4.513   3.600   6.157
24969WAT     H175149   4.534   3.599   6.255
24969WAT     H275150   4.466   3.685   6.133
24970WAT      O75151   4.194   5.051   9.825
24970WAT     H175152   4.110   5.077   9.776
24970WAT     H275153   4.170   5.022   9.918
24971WAT      O75154   9.495   2.126   4.197
24971WAT     H175155   9.513   2.208   4.143
24971WAT     H275156   9.419   2.143   4.259
24972WAT      O75157   5.293   7.919   4.970
24972WAT     H175158   5.273   8.003   4.919
24972WAT     H275159   5.252   7.925   5.061
24973WAT      O75160   8.962   4.393   9.733
24973WAT     H175161   9.010   4.313   9.697
24973WAT     H275162   8.948   4.382   9.831
24974WAT      O75163   7.815   5.878   3.007
24974WAT     H175164   7.717   5.859   2.995
24974WAT     H275165   7.868   5.798   2.978
24975WAT      O75166   6.695   7.107   9.043
24975WAT     H175167   6.672   7.137   9.136
24975WAT     H275168   6.753   7.026   9.047
24976WAT      O75169   9.117   7.994   7.344
24976WAT     H175170   9.129   7.899   7.315
24976WAT     H275171   9.020   8.018   7.344
24977WAT      O75172   6.315   0.490   4.529
24977WAT     H175173   6.287   0.462   4.621
24977WAT     H275174   6.403   0.448   4.507
24978WAT      O75175   3.985   0.417   0.681
24978WAT     H175176   4.051   0.429   0.755
24978WAT     H275177   4.031   0.378   0.601
24979WAT      O75178   5.353   8.308   0.130
24979WAT     H175179   5.380   8.257   0.212
24979WAT     H275180   5.329   8.402   0.155
24980WAT      O75181   3.494   5.895   3.535
24980WAT     H175182   3.513   5.992   3.520
24980WAT     H275183   3.581   5.846   3.550
24981WAT      O75184   5.711   6.071   1.301
24981WAT     H175185   5.681   6.166   1.312
24981WAT     H275186   5.635   6.016   1.264
24982WAT      O75187   1.706   3.635   0.112
24982WAT     H175188   1.684   3.653   0.208
24982WAT     H275189   1.670   3.710   0.056
24983WAT      O75190   9.082   0.432   3.713
24983WAT     H175191   9.069   0.532   3.713
24983WAT     H275192   9.035   0.392   3.791
24984WAT      O75193   1.488   0.176   9.382
24984WAT     H175194   1.532   0.253   9.336
24984WAT     H275195   1.469   0.104   9.316
24985WAT      O75196   5.295   6.493   1.252
24985WAT     H175197   5.365   6.541   1.305
24985WAT     H275198   5.327   6.400   1.230
24986WAT      O75199   1.131   7.194   2.653
24986WAT     H175200   1.185   7.272   2.686
24986WAT     H275201   1.034   7.215   2.660
24987WAT      O75202   1.108   8.375   1.759
24987WAT     H175203   1.142   8.452   1.705
24987WAT     H275204   1.178   8.347   1.824
24988WAT      O75205   2.312   4.532   0.901
24988WAT     H175206   2.273   4.602   0.842
24988WAT     H275207   2.281   4.441   0.872
24989WAT      O75208   9.723   8.935   8.668
24989WAT     H175209   9.659   8.880   8.614
24989WAT     H275210   9.805   8.953   8.614
24990WAT      O75211   0.945   7.624   3.626
24990WAT     H175212   0.940   7.664   3.717
24990WAT     H275213   0.867   7.653   3.572
24991WAT      O75214   8.481   5.935   0.489
24991WAT     H175215   8.509   5.969   0.399
24991WAT     H275216   8.382   5.919   0.488
24992WAT      O75217   2.289   4.892   1.204
24992WAT     H175218   2.325   4.930   1.118
24992WAT     H275219   2.288   4.792   1.198
24993WAT      O75220   4.905   9.351   3.778
24993WAT     H175221   4.871   9.423   3.717
24993WAT     H275222   4.839   9.275   3.780
24994WAT      O75223   4.855   7.706   2.212
24994WAT     H175224   4.870   7.800   2.182
24994WAT     H275225   4.925   7.680   2.278
24995WAT      O75226   7.241   5.389   0.061
24995WAT     H175227   7.162   5.346   0.017
24995WAT     H275228   7.250   5.483   0.029
24996WAT      O75229   5.358   2.817   7.273
24996WAT     H175230   5.275   2.856   7.312
24996WAT     H275231   5.438   2.862   7.313
24997WAT      O75232   9.667   6.604   7.788
24997WAT     H175233   9.692   6.699   7.770
24997WAT     H275234   9.730   6.566   7.857
24998WAT      O75235   9.553   8.370   6.867
24998WAT     H175236   9.639   8.335   6.904
24998WAT     H275237   9.522   8.311   6.793
24999WAT      O75238   9.753   7.774   4.843
24999WAT     H175239   9.679   7.801   4.905
24999WAT     H275240   9.804   7.856   4.815
25000WAT      O75241   7.640   3.403   5.795
25000WAT     H175242   7.571   3.426   5.864
25000WAT     H275243   7.628   3.463   5.715
25001WAT      O75244   9.354   3.905   7.285
25001WAT     H175245   9.353   3.843   7.363
25001WAT     H275246   9.274   3.888   7.228
25002WAT      O75247   9.205   6.982   5.012
25002WAT     H175248   9.270   7.050   4.977
25002WAT     H275249   9.217   6.896   4.964
25003WAT      O75250   1.254   2.457   2.930
25003WAT     H175251   1.261   2.499   2.840
25003WAT     H275252   1.345   2.434   2.964
25004WAT      O75253   3.647   3.528   4.923
25004WAT     H175254   3.638   3.510   4.825
25004WAT     H275255   3.574   3.590   4.952
25005WAT      O75256   8.238   0.133   3.165
25005WAT     H175257   8.304   0.130   3.240
25005WAT     H275258   8.217   0.228   3.144
25006WAT      O75259   2.202   0.422   5.597
25006WAT     H175260   2.261   0.362   5.651
25006WAT     H275261   2.108   0.415   5.630
25007WAT      O75262   2.453   5.508   1.274
25007WAT     H175263   2.395   5.441   1.228
25007WAT     H275264   2.535   5.463   1.309
25008WAT      O75265   6.384   1.546   9.608
25008WAT     H175266   6.442   1.561   9.528
25008WAT     H275267   6.442   1.530   9.688
25009WAT      O75268   6.855   9.676   1.834
25009WAT     H175269   6.762   9.640   1.846
25009WAT     H275270   6.860   9.727   1.748
25010WAT      O75271   9.072   4.190   9.588
25010WAT     H175272   9.123   4.186   9.503
25010WAT     H275273   9.100   4.116   9.648
25011WAT      O75274   8.718   0.575   3.266
25011WAT     H175275   8.793   0.524   3.225
25011WAT     H275276   8.676   0.519   3.338
25012WAT      O75277   8.523   5.258   0.597
25012WAT     H175278   8.490   5.164   0.587
25012WAT     H275279   8.477   5.301   0.675
25013WAT      O75280   5.802   9.554   4.621
25013WAT     H175281   5.873   9.512   4.677
25013WAT     H275282   5.822   9.651   4.609
25014WAT      O75283   5.835   9.053   7.707
25014WAT     H175284   5.868   8.995   7.781
25014WAT     H275285   5.867   9.016   7.619
25015WAT      O75286   6.705   3.703   9.713
25015WAT     H175287   6.770   3.637   9.750
25015WAT     H275288   6.612   3.676   9.738
25016WAT      O75289   4.157   6.578   3.711
25016WAT     H175290   4.103   6.623   3.639
25016WAT     H275291   4.245   6.624   3.720
25017WAT      O75292   0.179   5.975   6.852
25017WAT     H175293   0.144   6.040   6.784
25017WAT     H275294   0.270   5.943   6.824
25018WAT      O75295   3.044   2.938   0.645
25018WAT     H175296   3.095   2.886   0.576
25018WAT     H275297   2.949   2.947   0.616
25019WAT      O75298   6.029   5.015   8.473
25019WAT     H175299   6.034   5.110   8.505
25019WAT     H275300   5.995   4.957   8.546
25020WAT      O75301   6.084   3.787   4.850
25020WAT     H175302   6.062   3.706   4.904
25020WAT     H275303   6.046   3.868   4.896
25021WAT      O75304   0.386   5.182   0.428
25021WAT     H175305   0.444   5.102   0.411
25021WAT     H275306   0.290   5.154   0.424
25022WAT      O75307   1.389   0.673   4.024
25022WAT     H175308   1.312   0.609   4.020
25022WAT     H275309   1.354   0.767   4.025
25023WAT      O75310   8.476   8.155   0.127
25023WAT     H175311   8.390   8.200   0.150
25023WAT     H275312   8.503   8.094   0.201
25024WAT      O75313   7.807   0.154   4.022
25024WAT     H175314   7.905   0.173   4.016
25024WAT     H275315   7.790   0.059   3.994
25025WAT      O75316   1.867   9.439   0.619
25025WAT     H175317   1.912   9.477   0.539
25025WAT     H275318   1.877   9.339   0.619
25026WAT      O75319   3.113   9.558   0.933
25026WAT     H175320   3.037   9.494   0.933
25026WAT     H275321   3.085   9.644   0.891
25027WAT      O75322   4.991   7.494   5.688
25027WAT     H175323   4.918   7.538   5.741
25027WAT     H275324   4.950   7.444   5.611
25028WAT      O75325   1.333   2.692   7.582
25028WAT     H175326   1.319   2.782   7.541
25028WAT     H275327   1.415   2.651   7.544
25029WAT      O75328   2.930   2.601   0.361
25029WAT     H175329   2.886   2.594   0.272
25029WAT     H275330   2.863   2.624   0.431
25030WAT      O75331   9.722   1.495   5.840
25030WAT     H175332   9.789   1.483   5.767
25030WAT     H275333   9.743   1.578   5.892
25031WAT      O75334   2.667   3.717   7.008
25031WAT     H175335   2.741   3.662   7.046
25031WAT     H275336   2.692   3.814   7.011
25032WAT      O75337   3.215   5.695   4.400
25032WAT     H175338   3.286   5.683   4.469
25032WAT     H275339   3.182   5.606   4.369
25033WAT      O75340   7.257   4.431   1.484
25033WAT     H175341   7.314   4.444   1.403
25033WAT     H275342   7.313   4.398   1.560
25034WAT      O75343   2.721   0.475   3.619
25034WAT     H175344   2.796   0.526   3.660
25034WAT     H275345   2.754   0.385   3.589
25035WAT      O75346   9.718   8.520   6.649
25035WAT     H175347   9.705   8.461   6.569
25035WAT     H275348   9.658   8.489   6.723
25036WAT      O75349   2.291   8.052   7.512
25036WAT     H175350   2.251   8.112   7.582
25036WAT     H275351   2.281   7.957   7.541
25037WAT      O75352   8.617   3.092   0.622
25037WAT     H175353   8.525   3.101   0.584
25037WAT     H275354   8.633   3.166   0.688
25038WAT      O75355   1.783   6.502   6.342
25038WAT     H175356   1.862   6.481   6.400
25038WAT     H275357   1.717   6.427   6.346
25039WAT      O75358   1.454   9.707   1.993
25039WAT     H175359   1.491   9.791   2.033
25039WAT     H275360   1.529   9.645   1.969
25040WAT      O75361   6.488   7.174   8.674
25040WAT     H175362   6.394   7.146   8.691
25040WAT     H275363   6.522   7.228   8.752
25041WAT      O75364   4.354   2.198   2.050
25041WAT     H175365   4.337   2.144   2.132
25041WAT     H275366   4.355   2.295   2.074
25042WAT      O75367   2.147   6.028   7.013
25042WAT     H175368   2.206   6.037   7.093
25042WAT     H275369   2.124   6.119   6.978
25043WAT      O75370   0.823   4.820   8.346
25043WAT     H175371   0.792   4.768   8.426
25043WAT     H275372   0.773   4.906   8.341
25044WAT      O75373   2.463   3.750   7.656
25044WAT     H175374   2.511   3.736   7.743
25044WAT     H275375   2.442   3.661   7.615
25045WAT      O75376   3.191   2.708   9.164
25045WAT     H175377   3.202   2.637   9.233
25045WAT     H275378   3.162   2.667   9.077
25046WAT      O75379   1.340   2.877   7.213
25046WAT     H175380   1.290   2.791   7.202
25046WAT     H275381   1.436   2.858   7.229
25047WAT      O75382   1.640   2.476   7.067
25047WAT     H175383   1.652   2.455   7.164
25047WAT     H275384   1.727   2.507   7.028
25048WAT      O75385   0.332   6.169   5.843
25048WAT     H175386   0.357   6.247   5.785
25048WAT     H275387   0.234   6.152   5.837
25049WAT      O75388   9.500   3.246   2.079
25049WAT     H175389   9.462   3.338   2.094
25049WAT     H275390   9.456   3.182   2.141
25050WAT      O75391   0.946   2.267   4.995
25050WAT     H175392   0.987   2.342   5.048
25050WAT     H275393   0.931   2.189   5.055
25051WAT      O75394   8.495   0.566   0.884
25051WAT     H175395   8.581   0.516   0.896
25051WAT     H275396   8.421   0.501   0.865
25052WAT      O75397   8.238   1.568   2.730
25052WAT     H175398   8.147   1.603   2.751
25052WAT     H275399   8.307   1.632   2.765
25053WAT      O75400   0.800   5.054   9.627
25053WAT     H175401   0.775   5.144   9.594
25053WAT     H275402   0.728   5.019   9.687
25054WAT      O75403   1.450   2.758   5.455
25054WAT     H175404   1.493   2.798   5.536
25054WAT     H275405   1.393   2.827   5.410
25055WAT      O75406   3.608   3.000   8.248
25055WAT     H175407   3.680   2.956   8.194
25055WAT     H275408   3.544   3.045   8.186
25056WAT      O75409   0.014   7.097   3.996
25056WAT     H175410   0.047   7.086   3.902
25056WAT     H275411   0.089   7.125   4.055
25057WAT      O75412   2.554   2.666   0.053
25057WAT     H175413   2.546   2.625  -0.038
25057WAT     H275414   2.619   2.742   0.050
25058WAT      O75415   6.608   9.787   1.448
25058WAT     H175416   6.517   9.824   1.433
25058WAT     H275417   6.644   9.749   1.363
25059WAT      O75418   8.512   3.248   1.497
25059WAT     H175419   8.587   3.210   1.443
25059WAT     H275420   8.542   3.263   1.591
25060WAT      O75421   2.606   0.843   4.624
25060WAT     H175422   2.624   0.927   4.573
25060WAT     H275423   2.678   0.829   4.692
25061WAT      O75424   6.834   0.250   7.624
25061WAT     H175425   6.924   0.294   7.629
25061WAT     H275426   6.765   0.318   7.600
25062WAT      O75427   2.259   7.687   6.157
25062WAT     H175428   2.355   7.660   6.153
25062WAT     H275429   2.224   7.670   6.250
25063WAT      O75430   6.754   4.110   6.387
25063WAT     H175431   6.836   4.134   6.334
25063WAT     H275432   6.684   4.076   6.325
25064WAT      O75433   0.255   0.364   8.421
25064WAT     H175434   0.216   0.350   8.330
25064WAT     H275435   0.353   0.342   8.419
25065WAT      O75436   1.006   7.919   7.470
25065WAT     H175437   0.993   7.915   7.371
25065WAT     H275438   0.971   7.836   7.513
25066WAT      O75439   2.229   2.696   5.381
25066WAT     H175440   2.320   2.697   5.342
25066WAT     H275441   2.161   2.703   5.308
25067WAT      O75442   6.962   9.841   3.733
25067WAT     H175443   7.058   9.841   3.705
25067WAT     H275444   6.935   9.749   3.761
25068WAT      O75445   8.611   2.438   7.218
25068WAT     H175446   8.583   2.397   7.305
25068WAT     H275447   8.608   2.538   7.227
25069WAT      O75448   2.647   0.516   2.540
25069WAT     H175449   2.664   0.490   2.635
25069WAT     H275450   2.617   0.435   2.489
25070WAT      O75451   7.083   8.107   9.052
25070WAT     H175452   7.001   8.151   9.088
25070WAT     H275453   7.158   8.120   9.117
25071WAT      O75454   8.448   8.887   4.164
25071WAT     H175455   8.452   8.952   4.088
25071WAT     H275456   8.486   8.799   4.136
25072WAT      O75457   1.623   1.535   1.445
25072WAT     H175458   1.524   1.520   1.450
25072WAT     H275459   1.664   1.513   1.534
25073WAT      O75460   8.599   5.172   4.945
25073WAT     H175461   8.637   5.112   4.875
25073WAT     H275462   8.591   5.265   4.909
25074WAT      O75463   0.014   7.644   3.581
25074WAT     H175464   0.013   7.715   3.511
25074WAT     H275465   0.092   7.658   3.642
25075WAT      O75466   1.617   6.668   1.861
25075WAT     H175467   1.627   6.568   1.869
25075WAT     H275468   1.660   6.712   1.940
25076WAT      O75469   3.741   7.492   7.175
25076WAT     H175470   3.770   7.454   7.263
25076WAT     H275471   3.798   7.572   7.154
25077WAT      O75472   6.739   1.182   3.643
25077WAT     H175473   6.726   1.151   3.548
25077WAT     H275474   6.774   1.275   3.643
25078WAT      O75475   2.024   7.154   4.639
25078WAT     H175476   1.970   7.238   4.626
25078WAT     H275477   2.020   7.100   4.555
25079WAT      O75478   4.985   1.135   7.486
25079WAT     H175479   5.036   1.105   7.566
25079WAT     H275480   4.994   1.234   7.475
25080WAT      O75481   3.518   8.235   4.277
25080WAT     H175482   3.519   8.325   4.235
25080WAT     H275483   3.483   8.168   4.212
25081WAT      O75484   1.276   6.217   7.964
25081WAT     H175485   1.253   6.123   7.941
25081WAT     H275486   1.367   6.239   7.929
25082WAT      O75487   0.093   5.638   4.598
25082WAT     H175488   0.118   5.710   4.663
25082WAT     H275489   0.034   5.571   4.643
25083WAT      O75490   3.732   9.630   3.997
25083WAT     H175491   3.634   9.612   3.991
25083WAT     H275492   3.767   9.658   3.907
25084WAT      O75493   9.058   6.664   1.916
25084WAT     H175494   8.983   6.719   1.880
25084WAT     H275495   9.113   6.719   1.979
25085WAT      O75496   1.970   2.264   9.553
25085WAT     H175497   2.010   2.274   9.645
25085WAT     H275498   1.878   2.226   9.561
25086WAT      O75499   6.428   8.903   0.819
25086WAT     H175500   6.518   8.869   0.845
25086WAT     H275501   6.431   8.936   0.724
25087WAT      O75502   6.152   5.554   8.087
25087WAT     H175503   6.128   5.476   8.145
25087WAT     H275504   6.149   5.638   8.140
25088WAT      O75505   6.394   7.068   1.782
25088WAT     H175506   6.337   7.016   1.718
25088WAT     H275507   6.477   7.097   1.735
25089WAT      O75508   9.254   8.812   6.342
25089WAT     H175509   9.234   8.888   6.281
25089WAT     H275510   9.213   8.728   6.305
25090WAT      O75511   8.614   2.768   9.399
25090WAT     H175512   8.627   2.867   9.384
25090WAT     H275513   8.601   2.723   9.311
25091WAT      O75514   7.138   1.067   3.798
25091WAT     H175515   7.139   1.166   3.809
25091WAT     H275516   7.231   1.035   3.779
25092WAT      O75517   6.617   8.880   1.925
25092WAT     H175518   6.711   8.850   1.908
25092WAT     H275519   6.572   8.817   1.989
25093WAT      O75520   3.193   2.219   6.083
25093WAT     H175521   3.152   2.270   6.159
25093WAT     H275522   3.228   2.283   6.015
25094WAT      O75523   1.938   3.870   4.321
25094WAT     H175524   1.994   3.823   4.390
25094WAT     H275525   1.872   3.806   4.282
25095WAT      O75526   1.068   5.767   0.791
25095WAT     H175527   0.976   5.758   0.829
25095WAT     H275528   1.132   5.792   0.864
25096WAT      O75529   9.724   8.341   6.455
25096WAT     H175530   9.807   8.290   6.432
25096WAT     H275531   9.675   8.364   6.371
25097WAT      O75532   5.293   9.522   1.887
25097WAT     H175533   5.304   9.518   1.787
25097WAT     H275534   5.252   9.437   1.919
25098WAT      O75535   7.583   0.545   3.899
25098WAT     H175536   7.520   0.586   3.964
25098WAT     H275537   7.589   0.446   3.916
25099WAT      O75538   7.581   4.503   6.948
25099WAT     H175539   7.646   4.547   6.886
25099WAT     H275540   7.542   4.422   6.903
25100WAT      O75541   7.964   9.014   9.780
25100WAT     H175542   7.999   9.027   9.688
25100WAT     H275543   8.041   9.009   9.844
25101WAT      O75544   7.833   4.656   5.039
25101WAT     H175545   7.815   4.558   5.028
25101WAT     H275546   7.854   4.696   4.950
25102WAT      O75547   8.673   3.630   9.653
25102WAT     H175548   8.684   3.561   9.725
25102WAT     H275549   8.760   3.676   9.637
25103WAT      O75550   0.230   3.853   5.571
25103WAT     H175551   0.303   3.829   5.507
25103WAT     H275552   0.141   3.828   5.532
25104WAT      O75553   7.051   7.404   8.445
25104WAT     H175554   7.124   7.356   8.396
25104WAT     H275555   6.973   7.343   8.456
25105WAT      O75556   2.588   9.305   9.428
25105WAT     H175557   2.578   9.268   9.336
25105WAT     H275558   2.644   9.388   9.424
25106WAT      O75559   0.773   8.647   6.532
25106WAT     H175560   0.815   8.722   6.481
25106WAT     H275561   0.676   8.640   6.507
25107WAT      O75562   0.013   1.400   6.847
25107WAT     H175563   0.038   1.309   6.815
25107WAT     H275564   0.003   1.399   6.946
25108WAT      O75565   3.478   3.905   0.873
25108WAT     H175566   3.490   3.889   0.971
25108WAT     H275567   3.505   3.999   0.851
25109WAT      O75568   1.281   2.627   8.292
25109WAT     H175569   1.333   2.591   8.215
25109WAT     H275570   1.264   2.554   8.358
25110WAT      O75571   0.933   9.441   6.449
25110WAT     H175572   0.866   9.370   6.426
25110WAT     H275573   0.944   9.445   6.549
25111WAT      O75574   8.409   6.517   8.469
25111WAT     H175575   8.422   6.604   8.517
25111WAT     H275576   8.340   6.528   8.398
25112WAT      O75577   3.959   6.135   7.153
25112WAT     H175578   4.008   6.210   7.197
25112WAT     H275579   3.967   6.143   7.053
25113WAT      O75580   3.053   9.690   2.838
25113WAT     H175581   3.006   9.754   2.778
25113WAT     H275582   3.008   9.601   2.835
25114WAT      O75583   6.321   5.918   2.637
25114WAT     H175584   6.327   5.960   2.546
25114WAT     H275585   6.411   5.882   2.663
25115WAT      O75586   6.023   3.926   8.540
25115WAT     H175587   6.067   4.012   8.513
25115WAT     H275588   5.972   3.889   8.462
25116WAT      O75589   7.094   7.555   9.231
25116WAT     H175590   7.146   7.535   9.314
25116WAT     H275591   7.157   7.573   9.156
25117WAT      O75592   8.216   5.581   7.017
25117WAT     H175593   8.178   5.662   6.973
25117WAT     H275594   8.154   5.552   7.090
25118WAT      O75595   1.237   9.453   6.736
25118WAT     H175596   1.250   9.552   6.730
25118WAT     H275597   1.231   9.414   6.644
25119WAT      O75598   4.603   3.193   5.528
25119WAT     H175599   4.691   3.218   5.568
25119WAT     H275600   4.541   3.272   5.531
25120WAT      O75601   3.585   9.578   2.363
25120WAT     H175602   3.632   9.606   2.280
25120WAT     H275603   3.524   9.501   2.343
25121WAT      O75604   0.951   0.192   6.030
25121WAT     H175605   0.908   0.213   6.117
25121WAT     H275606   0.884   0.202   5.956
25122WAT      O75607   3.257   5.678   8.032
25122WAT     H175608   3.299   5.767   8.051
25122WAT     H275609   3.247   5.667   7.933
25123WAT      O75610   0.194   6.086   5.406
25123WAT     H175611   0.122   6.028   5.446
25123WAT     H275612   0.154   6.148   5.339
25124WAT      O75613   0.669   7.056   2.455
25124WAT     H175614   0.693   7.065   2.359
25124WAT     H275615   0.729   6.989   2.499
25125WAT      O75616   3.277   2.046   0.455
25125WAT     H175617   3.299   2.124   0.515
25125WAT     H275618   3.314   2.062   0.364
25126WAT      O75619   7.789   4.717   7.113
25126WAT     H175620   7.760   4.686   7.022
25126WAT     H275621   7.839   4.803   7.104
25127WAT      O75622   9.402   8.660   7.324
25127WAT     H175623   9.354   8.635   7.240
25127WAT     H275624   9.335   8.680   7.395
25128WAT      O75625   1.776   6.701   0.288
25128WAT     H175626   1.825   6.677   0.372
25128WAT     H275627   1.739   6.794   0.297
25129WAT      O75628   0.118   0.528   7.224
25129WAT     H175629   0.062   0.581   7.161
25129WAT     H275630   0.205   0.505   7.180
25130WAT      O75631   1.793   8.650   2.086
25130WAT     H175632   1.738   8.592   2.026
25130WAT     H275633   1.747   8.660   2.174
25131WAT      O75634   6.223   9.295   2.227
25131WAT     H175635   6.125   9.278   2.214
25131WAT     H275636   6.236   9.388   2.261
25132WAT      O75637   8.798   4.497   5.525
25132WAT     H175638   8.781   4.507   5.623
25132WAT     H275639   8.835   4.583   5.489
25133WAT      O75640   6.712   5.006   7.293
25133WAT     H175641   6.777   5.045   7.358
25133WAT     H275642   6.624   4.992   7.338
25134WAT      O75643   7.933   8.111   7.316
25134WAT     H175644   8.004   8.157   7.263
25134WAT     H275645   7.858   8.085   7.255
25135WAT      O75646   8.052   2.483   7.159
25135WAT     H175647   8.050   2.524   7.250
25135WAT     H275648   8.145   2.488   7.122
25136WAT      O75649   7.218   3.359   4.926
25136WAT     H175650   7.205   3.377   5.023
25136WAT     H275651   7.146   3.404   4.873
25137WAT      O75652   3.251   7.351   1.157
25137WAT     H175653   3.259   7.327   1.254
25137WAT     H275654   3.216   7.444   1.149
25138WAT      O75655   7.389   9.543   9.601
25138WAT     H175656   7.385   9.641   9.622
25138WAT     H275657   7.471   9.504   9.643
25139WAT      O75658   1.988   2.588   2.009
25139WAT     H175659   1.923   2.638   2.066
25139WAT     H275660   1.942   2.552   1.928
25140WAT      O75661   6.530   1.056   1.554
25140WAT     H175662   6.596   0.987   1.526
25140WAT     H275663   6.491   1.031   1.642
25141WAT      O75664   9.752   2.003   4.604
25141WAT     H175665   9.813   2.079   4.580
25141WAT     H275666   9.798   1.943   4.668
25142WAT      O75667   7.910   8.987   2.151
25142WAT     H175668   7.997   8.984   2.103
25142WAT     H275669   7.906   9.069   2.209
25143WAT      O75670   8.965   8.314   7.189
25143WAT     H175671   8.942   8.309   7.092
25143WAT     H275672   8.916   8.390   7.231
25144WAT      O75673   4.545   2.705   5.305
25144WAT     H175674   4.553   2.641   5.228
25144WAT     H275675   4.528   2.797   5.270
25145WAT      O75676   2.061   5.201   8.616
25145WAT     H175677   2.080   5.105   8.596
25145WAT     H275678   1.979   5.230   8.566
25146WAT      O75679   2.805   6.108   1.234
25146WAT     H175680   2.739   6.178   1.205
25146WAT     H275681   2.763   6.018   1.226
25147WAT      O75682   6.841   0.830   0.136
25147WAT     H175683   6.791   0.761   0.189
25147WAT     H275684   6.874   0.902   0.198
25148WAT      O75685   6.341   3.812   4.906
25148WAT     H175686   6.351   3.895   4.961
25148WAT     H275687   6.244   3.790   4.897
25149WAT      O75688   5.944   9.398   7.437
25149WAT     H175689   5.954   9.480   7.381
25149WAT     H275690   5.954   9.317   7.379
25150WAT      O75691   7.936   7.228   6.029
25150WAT     H175692   7.980   7.307   6.070
25150WAT     H275693   7.996   7.188   5.960
25151WAT      O75694   7.599   1.586   7.837
25151WAT     H175695   7.660   1.607   7.760
25151WAT     H275696   7.518   1.539   7.802
25152WAT      O75697   4.160   7.906   8.630
25152WAT     H175698   4.120   7.878   8.717
25152WAT     H275699   4.253   7.939   8.645
25153WAT      O75700   8.016   2.025   3.466
25153WAT     H175701   8.060   2.099   3.415
25153WAT     H275702   8.041   2.031   3.563
25154WAT      O75703   6.969   1.151   1.942
25154WAT     H175704   6.967   1.079   1.873
25154WAT     H275705   7.044   1.214   1.923
25155WAT      O75706   4.286   0.766   7.304
25155WAT     H175707   4.303   0.864   7.293
25155WAT     H275708   4.256   0.746   7.397
25156WAT      O75709   0.014   2.230   4.528
25156WAT     H175710   0.108   2.200   4.511
25156WAT     H275711   0.006   2.327   4.508
25157WAT      O75712   6.451   2.824   0.893
25157WAT     H175713   6.461   2.738   0.841
25157WAT     H275714   6.486   2.811   0.986
25158WAT      O75715   5.613   3.696   4.850
25158WAT     H175716   5.579   3.655   4.766
25158WAT     H275717   5.541   3.695   4.920
25159WAT      O75718   4.106   1.393   6.544
25159WAT     H175719   4.068   1.302   6.524
25159WAT     H275720   4.186   1.383   6.604
25160WAT      O75721   0.581   3.677   6.679
25160WAT     H175722   0.546   3.756   6.628
25160WAT     H275723   0.515   3.602   6.674
25161WAT      O75724   4.581   0.252   0.424
25161WAT     H175725   4.646   0.325   0.404
25161WAT     H275726   4.587   0.181   0.354
25162WAT      O75727   8.481   5.165   8.903
25162WAT     H175728   8.460   5.075   8.865
25162WAT     H275729   8.578   5.169   8.928
25163WAT      O75730   6.644   4.003   2.895
25163WAT     H175731   6.606   3.910   2.896
25163WAT     H275732   6.575   4.068   2.927
25164WAT      O75733   4.856   8.813   9.862
25164WAT     H175734   4.907   8.746   9.808
25164WAT     H275735   4.856   8.784   9.958
25165WAT      O75736   1.080   2.503   3.776
25165WAT     H175737   1.017   2.484   3.851
25165WAT     H275738   1.154   2.562   3.808
25166WAT      O75739   7.040   2.082   2.611
25166WAT     H175740   7.030   1.988   2.644
25166WAT     H275741   7.137   2.107   2.613
25167WAT      O75742   5.974   8.673   2.875
25167WAT     H175743   6.046   8.602   2.876
25167WAT     H275744   5.991   8.738   2.950
25168WAT      O75745   8.793   6.704   9.247
25168WAT     H175746   8.717   6.744   9.299
25168WAT     H275747   8.789   6.736   9.152
25169WAT      O75748   9.236   8.575   4.790
25169WAT     H175749   9.278   8.666   4.793
25169WAT     H275750   9.302   8.507   4.823
25170WAT      O75751   1.329   3.909   8.514
25170WAT     H175752   1.294   3.847   8.584
25170WAT     H275753   1.405   3.963   8.551
25171WAT      O75754   6.102   5.601   4.351
25171WAT     H175755   6.112   5.511   4.308
25171WAT     H275756   6.166   5.608   4.427
25172WAT      O75757   4.602   9.732   3.502
25172WAT     H175758   4.603   9.661   3.573
25172WAT     H275759   4.531   9.712   3.435
25173WAT      O75760   7.960   8.952   3.934
25173WAT     H175761   7.993   8.868   3.977
25173WAT     H275762   7.994   8.958   3.840
25174WAT      O75763   1.382   6.952   7.757
25174WAT     H175764   1.425   6.892   7.689
25174WAT     H275765   1.451   6.987   7.820
25175WAT      O75766   2.747   5.495   0.162
25175WAT     H175767   2.815   5.469   0.231
25175WAT     H275768   2.702   5.580   0.190
25176WAT      O75769   6.848   7.917   0.945
25176WAT     H175770   6.878   7.877   1.032
25176WAT     H275771   6.836   8.016   0.957
25177WAT      O75772   9.541   8.112   0.171
25177WAT     H175773   9.611   8.184   0.164
25177WAT     H275774   9.500   8.098   0.081
25178WAT      O75775   8.209   8.280   8.266
25178WAT     H175776   8.139   8.223   8.310
25178WAT     H275777   8.296   8.230   8.266
25179WAT      O75778   2.566   3.429   5.812
25179WAT     H175779   2.504   3.412   5.736
25179WAT     H275780   2.564   3.351   5.875
25180WAT      O75781   7.709   0.721   4.440
25180WAT     H175782   7.663   0.752   4.357
25180WAT     H275783   7.672   0.632   4.467
25181WAT      O75784   2.386   8.348   5.566
25181WAT     H175785   2.327   8.270   5.589
25181WAT     H275786   2.422   8.336   5.473
25182WAT      O75787   6.408   4.002   7.430
25182WAT     H175788   6.400   3.903   7.443
25182WAT     H275789   6.502   4.024   7.402
25183WAT      O75790   4.842   3.446   0.937
25183WAT     H175791   4.939   3.465   0.955
25183WAT     H275792   4.806   3.384   1.006
25184WAT      O75793   2.710   0.914   7.367
25184WAT     H175794   2.700   0.820   7.398
25184WAT     H275795   2.692   0.919   7.268
25185WAT      O75796   1.078   8.354   4.955
25185WAT     H175797   1.072   8.326   5.051
25185WAT     H275798   1.025   8.291   4.899
25186WAT      O75799   9.647   5.512   3.846
25186WAT     H175800   9.701   5.511   3.762
25186WAT     H275801   9.552   5.537   3.825
25187WAT      O75802   7.767   8.370   7.245
25187WAT     H175803   7.760   8.321   7.158
25187WAT     H275804   7.722   8.459   7.238
25188WAT      O75805   6.097   8.197   4.187
25188WAT     H175806   6.132   8.276   4.135
25188WAT     H275807   6.109   8.214   4.285
25189WAT      O75808   5.918   6.230   9.596
25189WAT     H175809   5.907   6.141   9.553
25189WAT     H275810   5.862   6.297   9.547
25190WAT      O75811   8.245   0.365   1.761
25190WAT     H175812   8.251   0.295   1.831
25190WAT     H275813   8.215   0.451   1.802
25191WAT      O75814   9.372   1.993   3.266
25191WAT     H175815   9.369   1.893   3.267
25191WAT     H275816   9.391   2.025   3.174
25192WAT      O75817   8.993   8.847   6.876
25192WAT     H175818   8.993   8.762   6.928
25192WAT     H275819   9.088   8.879   6.865
25193WAT      O75820   6.433   4.165   8.296
25193WAT     H175821   6.413   4.241   8.235
25193WAT     H275822   6.349   4.113   8.313
25194WAT      O75823   3.174   2.301   3.726
25194WAT     H175824   3.110   2.281   3.800
25194WAT     H275825   3.229   2.219   3.707
25195WAT      O75826   2.702   1.913   6.016
25195WAT     H175827   2.766   1.988   6.034
25195WAT     H275828   2.725   1.870   5.929
25196WAT      O75829   5.498   3.259   6.897
25196WAT     H175830   5.499   3.217   6.988
25196WAT     H275831   5.436   3.208   6.837
25197WAT      O75832   0.259   3.883   9.814
25197WAT     H175833   0.160   3.867   9.812
25197WAT     H275834   0.280   3.951   9.884
25198WAT      O75835   9.793   1.777   8.808
25198WAT     H175836   9.786   1.869   8.769
25198WAT     H275837   9.717   1.721   8.774
25199WAT      O75838   5.806   1.898   0.562
25199WAT     H175839   5.858   1.813   0.550
25199WAT     H275840   5.761   1.922   0.476
25200WAT      O75841   1.729   1.214   2.103
25200WAT     H175842   1.821   1.200   2.067
25200WAT     H275843   1.734   1.266   2.188
25201WAT      O75844   2.406   0.545   8.860
25201WAT     H175845   2.431   0.460   8.905
25201WAT     H275846   2.486   0.604   8.850
25202WAT      O75847   1.890   3.846   2.477
25202WAT     H175848   1.930   3.873   2.565
25202WAT     H275849   1.960   3.845   2.406
25203WAT      O75850   4.345   5.922   5.376
25203WAT     H175851   4.381   5.853   5.439
25203WAT     H275852   4.247   5.908   5.364
25204WAT      O75853   8.057   4.706   3.402
25204WAT     H175854   8.037   4.664   3.490
25204WAT     H275855   8.136   4.661   3.361
25205WAT      O75856   5.892   5.866   9.741
25205WAT     H175857   5.970   5.807   9.763
25205WAT     H275858   5.889   5.943   9.804
25206WAT      O75859   8.537   7.210   2.373
25206WAT     H175860   8.441   7.190   2.357
25206WAT     H275861   8.558   7.302   2.338
25207WAT      O75862   0.047   5.913   8.811
25207WAT     H175863   0.026   5.823   8.848
25207WAT     H275864   0.109   5.903   8.732
25208WAT      O75865   7.735   3.667   5.122
25208WAT     H175866   7.786   3.739   5.169
25208WAT     H275867   7.767   3.659   5.028
25209WAT      O75868   8.714   6.588   4.178
25209WAT     H175869   8.699   6.532   4.097
25209WAT     H275870   8.809   6.578   4.208
25210WAT      O75871   9.832   6.084   0.292
25210WAT     H175872   9.908   6.050   0.347
25210WAT     H275873   9.867   6.117   0.204
25211WAT      O75874   2.921   2.861   2.819
25211WAT     H175875   2.876   2.948   2.839
25211WAT     H275876   2.852   2.790   2.804
25212WAT      O75877   3.741   5.654   3.508
25212WAT     H175878   3.782   5.700   3.429
25212WAT     H275879   3.813   5.609   3.561
25213WAT      O75880   3.433   2.080   0.210
25213WAT     H175881   3.449   2.132   0.127
25213WAT     H275882   3.398   1.989   0.186
25214WAT      O75883   1.725   4.695   3.564
25214WAT     H175884   1.756   4.772   3.620
25214WAT     H275885   1.805   4.646   3.529
25215WAT      O75886   2.480   2.600   4.754
25215WAT     H175887   2.457   2.678   4.696
25215WAT     H275888   2.443   2.516   4.714
25216WAT      O75889   4.696   5.660   8.970
25216WAT     H175890   4.630   5.587   8.987
25216WAT     H275891   4.782   5.621   8.936
25217WAT      O75892   9.595   3.003   5.162
25217WAT     H175893   9.578   3.091   5.207
25217WAT     H275894   9.664   3.015   5.091
25218WAT      O75895   4.989   2.172   4.423
25218WAT     H175896   4.930   2.192   4.501
25218WAT     H275897   5.059   2.242   4.414
25219WAT      O75898   9.775   6.484   1.920
25219WAT     H175899   9.851   6.457   1.861
25219WAT     H275900   9.779   6.582   1.939
25220WAT      O75901   9.178   0.458   2.835
25220WAT     H175902   9.107   0.388   2.836
25220WAT     H275903   9.222   0.463   2.925
25221WAT      O75904   5.050   4.660   0.348
25221WAT     H175905   5.145   4.638   0.367
25221WAT     H275906   5.018   4.731   0.411
25222WAT      O75907   1.983   5.597   7.425
25222WAT     H175908   2.009   5.680   7.376
25222WAT     H275909   2.025   5.518   7.380
25223WAT      O75910   7.628   3.226   1.431
25223WAT     H175911   7.681   3.183   1.358
25223WAT     H275912   7.554   3.165   1.460
25224WAT      O75913   5.818   3.521   9.549
25224WAT     H175914   5.909   3.486   9.572
25224WAT     H275915   5.775   3.559   9.631
25225WAT      O75916   9.561   5.826   0.490
25225WAT     H175917   9.497   5.814   0.565
25225WAT     H275918   9.623   5.748   0.487
25226WAT      O75919   0.221   0.846   1.498
25226WAT     H175920   0.313   0.827   1.533
25226WAT     H275921   0.180   0.762   1.463
25227WAT      O75922   2.741   4.129   7.830
25227WAT     H175923   2.810   4.057   7.830
25227WAT     H275924   2.654   4.091   7.798
25228WAT      O75925   5.497   9.664   9.205
25228WAT     H175926   5.502   9.615   9.292
25228WAT     H275927   5.407   9.650   9.163
25229WAT      O75928   3.219   8.662   6.356
25229WAT     H175929   3.307   8.645   6.400
25229WAT     H275930   3.231   8.729   6.283
25230WAT      O75931   8.926   3.212   1.544
25230WAT     H175932   8.908   3.308   1.523
25230WAT     H275933   8.975   3.170   1.468
25231WAT      O75934   7.887   1.165   0.391
25231WAT     H175935   7.843   1.248   0.423
25231WAT     H275936   7.978   1.157   0.434
25232WAT      O75937   5.573   2.987   7.329
25232WAT     H175938   5.548   3.052   7.401
25232WAT     H275939   5.670   2.999   7.307
25233WAT      O75940   2.630   1.385   6.596
25233WAT     H175941   2.586   1.406   6.683
25233WAT     H275942   2.635   1.286   6.585
25234WAT      O75943   7.460   5.311   3.334
25234WAT     H175944   7.426   5.393   3.380
25234WAT     H275945   7.396   5.284   3.262
25235WAT      O75946   0.381   3.066   3.028
25235WAT     H175947   0.302   3.076   2.968
25235WAT     H275948   0.428   3.154   3.035
25236WAT      O75949   4.002   5.667   4.142
25236WAT     H175950   4.024   5.667   4.239
25236WAT     H275951   4.080   5.701   4.090
25237WAT      O75952   4.690   7.434   7.262
25237WAT     H175953   4.667   7.350   7.311
25237WAT     H275954   4.619   7.503   7.279
25238WAT      O75955   7.747   8.406   4.900
25238WAT     H175956   7.684   8.329   4.895
25238WAT     H275957   7.839   8.376   4.874
25239WAT      O75958   1.524   3.640   5.186
25239WAT     H175959   1.622   3.637   5.164
25239WAT     H275960   1.510   3.608   5.280
25240WAT      O75961   8.810   5.544   8.254
25240WAT     H175962   8.858   5.585   8.332
25240WAT     H275963   8.745   5.610   8.216
25241WAT      O75964   6.966   4.223   1.113
25241WAT     H175965   6.975   4.125   1.124
25241WAT     H275966   6.872   4.251   1.136
25242WAT      O75967   9.636   8.292   3.911
25242WAT     H175968   9.543   8.280   3.876
25242WAT     H275969   9.640   8.374   3.968
25243WAT      O75970   7.550   6.203   6.500
25243WAT     H175971   7.567   6.293   6.459
25243WAT     H275972   7.454   6.179   6.487
25244WAT      O75973   0.232   9.693   1.259
25244WAT     H175974   0.175   9.677   1.340
25244WAT     H275975   0.225   9.789   1.232
25245WAT      O75976   7.839   2.350   8.847
25245WAT     H175977   7.912   2.292   8.884
25245WAT     H275978   7.878   2.417   8.783
25246WAT      O75979   0.062   3.480   6.766
25246WAT     H175980   0.095   3.469   6.672
25246WAT     H275981  -0.032   3.515   6.763
25247WAT      O75982   2.445   3.478   7.427
25247WAT     H175983   2.466   3.492   7.330
25247WAT     H275984   2.523   3.505   7.483
25248WAT      O75985   7.573   5.007   9.180
25248WAT     H175986   7.550   5.099   9.213
25248WAT     H275987   7.635   5.014   9.103
25249WAT      O75988   7.066   2.150   9.402
25249WAT     H175989   7.081   2.247   9.378
25249WAT     H275990   7.057   2.141   9.501
25250WAT      O75991   9.503   6.109   2.244
25250WAT     H175992   9.467   6.202   2.233
25250WAT     H275993   9.487   6.057   2.160
25251WAT      O75994   5.954   4.204   6.561
25251WAT     H175995   5.906   4.278   6.609
25251WAT     H275996   5.902   4.119   6.571
25252WAT      O75997   6.838   9.447   0.358
25252WAT     H175998   6.753   9.496   0.335
25252WAT     H275999   6.916   9.506   0.340
25253WAT      O76000   1.174   5.577   4.998
25253WAT     H176001   1.253   5.525   5.029
25253WAT     H276002   1.145   5.641   5.070
25254WAT      O76003   1.935   1.149   1.240
25254WAT     H176004   1.915   1.051   1.237
25254WAT     H276005   1.987   1.170   1.322
25255WAT      O76006   1.307   2.639   4.156
25255WAT     H176007   1.208   2.650   4.159
25255WAT     H276008   1.349   2.726   4.133
25256WAT      O76009   0.369   1.132   2.402
25256WAT     H176010   0.348   1.050   2.349
25256WAT     H276011   0.288   1.159   2.454
25257WAT      O76012   8.610   2.792   2.890
25257WAT     H176013   8.577   2.872   2.939
25257WAT     H276014   8.707   2.804   2.867
25258WAT      O76015   5.911   8.250   0.211
25258WAT     H176016   5.861   8.196   0.144
25258WAT     H276017   5.868   8.339   0.222
25259WAT      O76018   4.294   8.631   4.056
25259WAT     H176019   4.327   8.724   4.040
25259WAT     H276020   4.288   8.582   3.969
25260WAT      O76021   7.275   2.932   8.595
25260WAT     H176022   7.305   3.023   8.565
25260WAT     H276023   7.330   2.862   8.550
25261WAT      O76024   7.052   7.192   7.305
25261WAT     H176025   7.087   7.243   7.384
25261WAT     H276026   7.102   7.219   7.223
25262WAT      O76027   6.002   8.798   7.211
25262WAT     H176028   6.066   8.733   7.253
25262WAT     H276029   5.915   8.795   7.260
25263WAT      O76030   5.405   7.563   1.699
25263WAT     H176031   5.495   7.593   1.670
25263WAT     H276032   5.370   7.495   1.635
25264WAT      O76033   5.201   6.605   4.812
25264WAT     H176034   5.287   6.597   4.862
25264WAT     H276035   5.206   6.681   4.748
25265WAT      O76036   0.193   0.090   7.902
25265WAT     H176037   0.202  -0.009   7.915
25265WAT     H276038   0.113   0.108   7.845
25266WAT      O76039   2.244   1.643   5.274
25266WAT     H176040   2.194   1.639   5.187
25266WAT     H276041   2.185   1.685   5.343
25267WAT      O76042   0.168   0.556   6.183
25267WAT     H176043   0.247   0.500   6.159
25267WAT     H276044   0.116   0.578   6.100
25268WAT      O76045   4.144   2.320   3.236
25268WAT     H176046   4.061   2.277   3.203
25268WAT     H276047   4.222   2.258   3.222
25269WAT      O76048   4.218   8.269   3.993
25269WAT     H176049   4.262   8.261   3.904
25269WAT     H276050   4.121   8.289   3.980
25270WAT      O76051   9.557   5.905   6.792
25270WAT     H176052   9.585   5.980   6.852
25270WAT     H276053   9.617   5.827   6.806
25271WAT      O76054   7.771   4.025   6.370
25271WAT     H176055   7.868   4.011   6.351
25271WAT     H276056   7.735   4.094   6.308
25272WAT      O76057   5.124   9.658   8.672
25272WAT     H176058   5.119   9.564   8.706
25272WAT     H276059   5.212   9.673   8.628
25273WAT      O76060   0.893   4.560   8.070
25273WAT     H176061   0.873   4.658   8.072
25273WAT     H276062   0.889   4.528   7.976
25274WAT      O76063   8.238   2.839   4.048
25274WAT     H176064   8.139   2.852   4.051
25274WAT     H276065   8.268   2.792   4.130
25275WAT      O76066   5.525   1.443   1.943
25275WAT     H176067   5.538   1.472   2.038
25275WAT     H276068   5.614   1.431   1.900
25276WAT      O76069   4.682   1.585   0.746
25276WAT     H176070   4.654   1.507   0.802
25276WAT     H276071   4.643   1.669   0.783
25277WAT      O76072   7.812   2.263   6.414
25277WAT     H176073   7.788   2.219   6.501
25277WAT     H276074   7.745   2.237   6.344
25278WAT      O76075   4.871   7.142   8.506
25278WAT     H176076   4.871   7.242   8.515
25278WAT     H276077   4.952   7.114   8.455
25279WAT      O76078   6.586   0.743   2.337
25279WAT     H176079   6.566   0.760   2.241
25279WAT     H276080   6.552   0.652   2.363
25280WAT      O76081   4.504   4.745   9.599
25280WAT     H176082   4.407   4.744   9.621
25280WAT     H276083   4.516   4.753   9.500
25281WAT      O76084   4.963   4.751   0.052
25281WAT     H176085   4.882   4.806   0.030
25281WAT     H276086   4.973   4.744   0.151
25282WAT      O76087   2.629   9.147   2.578
25282WAT     H176088   2.622   9.085   2.500
25282WAT     H276089   2.699   9.216   2.559
25283WAT      O76090   0.476   1.499   5.446
25283WAT     H176091   0.420   1.575   5.413
25283WAT     H276092   0.489   1.507   5.545
25284WAT      O76093   4.106   7.563   8.874
25284WAT     H176094   4.174   7.558   8.947
25284WAT     H276095   4.059   7.650   8.877
25285WAT      O76096   2.515   4.373   1.833
25285WAT     H176097   2.434   4.347   1.886
25285WAT     H276098   2.562   4.449   1.879
25286WAT      O76099   3.652   4.844   9.156
25286WAT     H176100   3.614   4.922   9.206
25286WAT     H276101   3.589   4.817   9.083
25287WAT      O76102   2.812   3.943   7.045
25287WAT     H176103   2.758   3.932   7.129
25287WAT     H276104   2.821   4.040   7.023
25288WAT      O76105   6.504   2.927   6.903
25288WAT     H176106   6.456   2.842   6.926
25288WAT     H276107   6.545   2.966   6.985
25289WAT      O76108   4.810   4.414   5.406
25289WAT     H176109   4.784   4.323   5.436
25289WAT     H276110   4.910   4.422   5.408
25290WAT      O76111   2.378   6.830   0.848
25290WAT     H176112   2.367   6.735   0.877
25290WAT     H276113   2.475   6.851   0.836
25291WAT      O76114   7.985   2.623   3.955
25291WAT     H176115   7.982   2.688   4.031
25291WAT     H276116   7.960   2.532   3.988
25292WAT      O76117   0.347   8.692   5.554
25292WAT     H176118   0.393   8.636   5.622
25292WAT     H276119   0.378   8.666   5.462
25293WAT      O76120   9.350   5.880   8.076
25293WAT     H176121   9.356   5.967   8.027
25293WAT     H276122   9.440   5.836   8.076
25294WAT      O76123   9.253   2.697   1.438
25294WAT     H176124   9.324   2.634   1.406
25294WAT     H276125   9.292   2.759   1.506
25295WAT      O76126   3.451   2.718   2.145
25295WAT     H176127   3.532   2.751   2.193
25295WAT     H276128   3.438   2.621   2.165
25296WAT      O76129   5.801   3.292   7.782
25296WAT     H176130   5.832   3.362   7.846
25296WAT     H276131   5.880   3.259   7.729
25297WAT      O76132   4.871   6.149   6.803
25297WAT     H176133   4.781   6.166   6.844
25297WAT     H276134   4.913   6.236   6.777
25298WAT      O76135   2.235   6.415   0.244
25298WAT     H176136   2.192   6.337   0.290
25298WAT     H276137   2.257   6.485   0.311
25299WAT      O76138   8.208   2.589   1.489
25299WAT     H176139   8.238   2.676   1.527
25299WAT     H276140   8.232   2.585   1.392
25300WAT      O76141   7.913   1.151   7.530
25300WAT     H176142   7.960   1.067   7.557
25300WAT     H276143   7.826   1.127   7.486
25301WAT      O76144   0.307   1.488   2.499
25301WAT     H176145   0.330   1.507   2.403
25301WAT     H276146   0.243   1.411   2.504
25302WAT      O76147   0.795   5.684   5.966
25302WAT     H176148   0.717   5.622   5.957
25302WAT     H276149   0.789   5.755   5.895
25303WAT      O76150   9.293   2.871   9.615
25303WAT     H176151   9.390   2.894   9.608
25303WAT     H276152   9.239   2.942   9.569
25304WAT      O76153   5.196   6.619   2.672
25304WAT     H176154   5.146   6.706   2.670
25304WAT     H276155   5.218   6.590   2.579
25305WAT      O76156   5.318   0.303   4.109
25305WAT     H176157   5.283   0.213   4.084
25305WAT     H276158   5.286   0.371   4.043
25306WAT      O76159   1.406   6.799   1.830
25306WAT     H176160   1.488   6.741   1.825
25306WAT     H276161   1.432   6.890   1.862
25307WAT      O76162   3.752   5.889   7.756
25307WAT     H176163   3.767   5.985   7.780
25307WAT     H276164   3.757   5.878   7.657
25308WAT      O76165   9.704   8.208   1.468
25308WAT     H176166   9.736   8.275   1.534
25308WAT     H276167   9.717   8.243   1.375
25309WAT      O76168   9.155   3.723   2.053
25309WAT     H176169   9.185   3.769   1.970
25309WAT     H276170   9.123   3.631   2.030
25310WAT      O76171   7.114   0.049   8.931
25310WAT     H176172   7.191  -0.013   8.939
25310WAT     H276173   7.126   0.108   8.851
25311WAT      O76174   1.863   4.290   7.749
25311WAT     H176175   1.788   4.225   7.758
25311WAT     H276176   1.926   4.279   7.827
25312WAT      O76177   2.665   6.620   7.146
25312WAT     H176178   2.637   6.637   7.240
25312WAT     H276179   2.589   6.641   7.084
25313WAT      O76180   8.683   1.585   1.340
25313WAT     H176181   8.728   1.527   1.409
25313WAT     H276182   8.622   1.529   1.284
25314WAT      O76183   2.132   6.042   7.967
25314WAT     H176184   2.060   5.981   7.999
25314WAT     H276185   2.221   6.007   7.996
25315WAT      O76186   5.517   7.050   2.370
25315WAT     H176187   5.599   7.044   2.312
25315WAT     H276188   5.517   6.973   2.434
25316WAT      O76189   0.627   4.640   9.264
25316WAT     H176190   0.628   4.545   9.233
25316WAT     H276191   0.554   4.653   9.331
25317WAT      O76192   3.305   1.166   3.689
25317WAT     H176193   3.371   1.094   3.708
25317WAT     H276194   3.219   1.125   3.658
25318WAT      O76195   3.583   6.385   5.568
25318WAT     H176196   3.571   6.296   5.613
25318WAT     H276197   3.524   6.390   5.488
25319WAT      O76198   5.717   9.040   9.185
25319WAT     H176199   5.741   9.114   9.247
25319WAT     H276200   5.739   8.952   9.227
25320WAT      O76201   1.438   2.158   9.792
25320WAT     H176202   1.381   2.081   9.822
25320WAT     H276203   1.379   2.231   9.757
25321WAT      O76204   8.464   5.486   3.195
25321WAT     H176205   8.397   5.414   3.176
25321WAT     H276206   8.451   5.520   3.288
25322WAT      O76207   8.205   3.498   4.055
25322WAT     H176208   8.236   3.587   4.020
25322WAT     H276209   8.264   3.426   4.020
25323WAT      O76210   1.632   9.521   0.436
25323WAT     H176211   1.630   9.501   0.534
25323WAT     H276212   1.546   9.563   0.409
25324WAT      O76213   3.154   3.999   1.692
25324WAT     H176214   3.064   3.960   1.709
25324WAT     H276215   3.174   4.068   1.761
25325WAT      O76216   1.292   2.543   6.733
25325WAT     H176217   1.206   2.539   6.681
25325WAT     H276218   1.356   2.476   6.694
25326WAT      O76219   7.603   8.690   8.352
25326WAT     H176220   7.629   8.652   8.441
25326WAT     H276221   7.519   8.647   8.321
25327WAT      O76222   0.290   8.165   5.674
25327WAT     H176223   0.281   8.264   5.678
25327WAT     H276224   0.382   8.138   5.702
25328WAT      O76225   8.828   4.300   6.887
25328WAT     H176226   8.926   4.313   6.875
25328WAT     H276227   8.786   4.282   6.798
25329WAT      O76228   6.838   6.976   4.126
25329WAT     H176229   6.793   6.964   4.215
25329WAT     H276230   6.844   7.073   4.105
25330WAT      O76231   8.708   3.892   5.971
25330WAT     H176232   8.769   3.959   5.929
25330WAT     H276233   8.618   3.934   5.988
25331WAT      O76234   0.703   9.810   6.128
25331WAT     H176235   0.658   9.776   6.211
25331WAT     H276236   0.750   9.896   6.149
25332WAT      O76237   9.286   0.133   1.420
25332WAT     H176238   9.346   0.054   1.432
25332WAT     H276239   9.294   0.166   1.326
25333WAT      O76240   2.876   5.413   6.002
25333WAT     H176241   2.826   5.417   5.916
25333WAT     H276242   2.887   5.505   6.040
25334WAT      O76243   6.045   3.053   8.939
25334WAT     H176244   6.096   2.986   8.992
25334WAT     H276245   5.947   3.035   8.947
25335WAT      O76246   0.815   7.789   9.190
25335WAT     H176247   0.827   7.885   9.165
25335WAT     H276248   0.719   7.763   9.177
25336WAT      O76249   5.780   8.217   1.489
25336WAT     H176250   5.806   8.244   1.397
25336WAT     H276251   5.726   8.133   1.486
25337WAT      O76252   3.853   0.379   6.742
25337WAT     H176253   3.775   0.340   6.694
25337WAT     H276254   3.834   0.382   6.840
25338WAT      O76255   9.373   3.767   9.484
25338WAT     H176256   9.309   3.692   9.464
25338WAT     H276257   9.413   3.754   9.574
25339WAT      O76258   3.659   5.125   2.116
25339WAT     H176259   3.561   5.110   2.129
25339WAT     H276260   3.694   5.065   2.045
25340WAT      O76261   6.824   5.411   6.198
25340WAT     H176262   6.921   5.423   6.216
25340WAT     H276263   6.770   5.460   6.267
25341WAT      O76264   7.139   2.856   7.506
25341WAT     H176265   7.073   2.817   7.442
25341WAT     H276266   7.223   2.878   7.458
25342WAT      O76267   0.117   0.915   5.225
25342WAT     H176268   0.211   0.936   5.254
25342WAT     H276269   0.078   0.995   5.181
25343WAT      O76270   6.010   8.668   7.636
25343WAT     H176271   6.024   8.614   7.719
25343WAT     H276272   5.959   8.615   7.569
25344WAT      O76273   4.706   6.098   8.973
25344WAT     H176274   4.720   6.088   8.875
25344WAT     H276275   4.699   6.195   8.997
25345WAT      O76276   0.525   6.975   5.984
25345WAT     H176277   0.595   6.906   6.003
25345WAT     H276278   0.465   6.984   6.063
25346WAT      O76279   4.517   1.864   6.720
25346WAT     H176280   4.488   1.796   6.652
25346WAT     H276281   4.572   1.820   6.790
25347WAT      O76282   7.691   1.377   2.800
25347WAT     H176283   7.752   1.305   2.834
25347WAT     H276284   7.667   1.439   2.875
25348WAT      O76285   9.182   8.029   6.312
25348WAT     H176286   9.221   8.120   6.330
25348WAT     H276287   9.087   8.027   6.342
25349WAT      O76288   3.265   3.926   8.254
25349WAT     H176289   3.344   3.919   8.315
25349WAT     H276290   3.236   4.021   8.249
25350WAT      O76291   5.650   3.668   0.132
25350WAT     H176292   5.600   3.581   0.125
25350WAT     H276293   5.591   3.743   0.104
25351WAT      O76294   8.210   7.862   4.745
25351WAT     H176295   8.230   7.834   4.652
25351WAT     H276296   8.198   7.782   4.803
25352WAT      O76297   6.264   1.811   3.413
25352WAT     H176298   6.337   1.806   3.346
25352WAT     H276299   6.235   1.906   3.424
25353WAT      O76300   6.251   7.787   5.173
25353WAT     H176301   6.180   7.853   5.151
25353WAT     H276302   6.210   7.697   5.189
25354WAT      O76303   5.119   7.340   8.365
25354WAT     H176304   5.118   7.241   8.379
25354WAT     H276305   5.046   7.382   8.418
25355WAT      O76306   3.289   3.937   9.794
25355WAT     H176307   3.389   3.945   9.795
25355WAT     H276308   3.254   3.970   9.706
25356WAT      O76309   2.572   8.156   6.196
25356WAT     H176310   2.502   8.121   6.259
25356WAT     H276311   2.606   8.081   6.140
25357WAT      O76312   9.153   6.495   0.645
25357WAT     H176313   9.204   6.421   0.688
25357WAT     H276314   9.213   6.573   0.630
25358WAT      O76315   0.596   4.400   8.625
25358WAT     H176316   0.548   4.344   8.557
25358WAT     H276317   0.645   4.474   8.580
25359WAT      O76318   0.202   9.729   6.185
25359WAT     H176319   0.196   9.635   6.151
25359WAT     H276320   0.294   9.764   6.170
25360WAT      O76321   9.799   1.931   6.343
25360WAT     H176322   9.839   1.854   6.393
25360WAT     H276323   9.835   2.017   6.382
25361WAT      O76324   8.479   9.697   6.651
25361WAT     H176325   8.430   9.772   6.606
25361WAT     H276326   8.570   9.729   6.677
25362WAT      O76327   9.516   8.699   8.633
25362WAT     H176328   9.417   8.715   8.637
25362WAT     H276329   9.534   8.607   8.599
25363WAT      O76330   7.248   0.345   3.969
25363WAT     H176331   7.326   0.360   4.031
25363WAT     H276332   7.281   0.337   3.875
25364WAT      O76333   8.458   2.761   0.223
25364WAT     H176334   8.391   2.791   0.156
25364WAT     H276335   8.525   2.834   0.238
25365WAT      O76336   1.076   5.462   8.041
25365WAT     H176337   1.126   5.512   7.971
25365WAT     H276338   0.979   5.459   8.016
25366WAT      O76339   5.245   6.526   8.940
25366WAT     H176340   5.273   6.435   8.910
25366WAT     H276341   5.257   6.534   9.039
25367WAT      O76342   6.895   9.542   6.561
25367WAT     H176343   6.822   9.541   6.630
25367WAT     H276344   6.863   9.592   6.480
25368WAT      O76345   9.700   0.010   2.265
25368WAT     H176346   9.673  -0.054   2.337
25368WAT     H276347   9.798   0.001   2.248
25369WAT      O76348   7.723   9.538   8.511
25369WAT     H176349   7.631   9.575   8.520
25369WAT     H276350   7.760   9.563   8.421
25370WAT      O76351   5.373   5.621   0.104
25370WAT     H176352   5.287   5.666   0.129
25370WAT     H276353   5.355   5.524   0.085
25371WAT      O76354   5.903   6.337   3.744
25371WAT     H176355   5.943   6.269   3.683
25371WAT     H276356   5.913   6.428   3.704
25372WAT      O76357   1.019   4.276   8.910
25372WAT     H176358   1.066   4.244   8.827
25372WAT     H276359   0.924   4.295   8.889
25373WAT      O76360   4.643   1.882   2.231
25373WAT     H176361   4.587   1.962   2.248
25373WAT     H276362   4.635   1.818   2.308
25374WAT      O76363   0.268   8.689   9.634
25374WAT     H176364   0.246   8.705   9.538
25374WAT     H276365   0.365   8.669   9.644
25375WAT      O76366   9.463   4.439   7.981
25375WAT     H176367   9.519   4.477   7.907
25375WAT     H276368   9.443   4.511   8.047
25376WAT      O76369   6.314   7.281   1.938
25376WAT     H176370   6.338   7.216   1.866
25376WAT     H276371   6.230   7.329   1.913
25377WAT      O76372   9.172   7.762   6.206
25377WAT     H176373   9.202   7.855   6.228
25377WAT     H276374   9.088   7.741   6.256
25378WAT      O76375   0.558   3.096   1.064
25378WAT     H176376   0.553   3.135   1.156
25378WAT     H276377   0.501   3.013   1.060
25379WAT      O76378   3.868   6.523   8.120
25379WAT     H176379   3.875   6.481   8.211
25379WAT     H276380   3.884   6.453   8.050
25380WAT      O76381   7.240   9.487   4.680
25380WAT     H176382   7.194   9.573   4.699
25380WAT     H276383   7.263   9.481   4.583
25381WAT      O76384   2.113   8.584   8.037
25381WAT     H176385   2.031   8.532   8.014
25381WAT     H276386   2.178   8.525   8.084
25382WAT      O76387   5.938   6.552   1.399
25382WAT     H176388   6.011   6.484   1.395
25382WAT     H276389   5.944   6.601   1.486
25383WAT      O76390   2.140   5.136   4.666
25383WAT     H176391   2.134   5.185   4.579
25383WAT     H276392   2.047   5.116   4.699
25384WAT      O76393   2.621   3.669   0.488
25384WAT     H176394   2.710   3.656   0.531
25384WAT     H276395   2.626   3.743   0.421
25385WAT      O76396   4.285   6.069   7.437
25385WAT     H176397   4.368   6.037   7.393
25385WAT     H276398   4.207   6.014   7.407
25386WAT      O76399   2.908   1.952   7.848
25386WAT     H176400   2.839   1.911   7.909
25386WAT     H276401   2.976   1.884   7.825
25387WAT      O76402   4.278   6.911   9.374
25387WAT     H176403   4.302   6.838   9.439
25387WAT     H276404   4.217   6.976   9.418
25388WAT      O76405   7.358   1.900   8.368
25388WAT     H176406   7.260   1.903   8.350
25388WAT     H276407   7.408   1.919   8.284
25389WAT      O76408   7.106   5.592   0.983
25389WAT     H176409   7.142   5.639   1.063
25389WAT     H276410   7.029   5.534   1.009
25390WAT      O76411   1.607   7.635   8.986
25390WAT     H176412   1.607   7.565   9.057
25390WAT     H276413   1.699   7.674   8.977
25391WAT      O76414   4.922   7.017   9.790
25391WAT     H176415   4.882   6.928   9.809
25391WAT     H276416   4.861   7.089   9.822
25392WAT      O76417   5.721   9.234   2.047
25392WAT     H176418   5.667   9.315   2.021
25392WAT     H276419   5.779   9.207   1.969
25393WAT      O76420   8.387   5.409   1.066
25393WAT     H176421   8.317   5.348   1.103
25393WAT     H276422   8.373   5.502   1.101
25394WAT      O76423   5.695   0.091   0.260
25394WAT     H176424   5.760   0.015   0.263
25394WAT     H276425   5.741   0.172   0.225
25395WAT      O76426   4.156   8.534   5.229
25395WAT     H176427   4.107   8.451   5.203
25395WAT     H276428   4.243   8.538   5.180
25396WAT      O76429   4.438   2.187   7.607
25396WAT     H176430   4.407   2.133   7.529
25396WAT     H276431   4.533   2.165   7.628
25397WAT      O76432   3.281   6.298   7.035
25397WAT     H176433   3.367   6.317   6.988
25397WAT     H276434   3.212   6.365   7.006
25398WAT      O76435   9.360   1.923   0.784
25398WAT     H176436   9.331   1.849   0.723
25398WAT     H276437   9.337   1.899   0.879
25399WAT      O76438   4.688   2.195   8.257
25399WAT     H176439   4.783   2.222   8.248
25399WAT     H276440   4.632   2.275   8.278
25400WAT      O76441   8.686   0.739   1.769
25400WAT     H176442   8.766   0.696   1.728
25400WAT     H276443   8.605   0.719   1.713
25401WAT      O76444   3.575   5.949   0.852
25401WAT     H176445   3.604   6.029   0.800
25401WAT     H276446   3.476   5.951   0.864
25402WAT      O76447   7.081   5.779   7.881
25402WAT     H176448   7.095   5.757   7.977
25402WAT     H276449   7.044   5.871   7.873
25403WAT      O76450   6.023   9.616   8.264
25403WAT     H176451   6.008   9.631   8.361
25403WAT     H276452   5.961   9.674   8.211
25404WAT      O76453   9.731   6.321   1.389
25404WAT     H176454   9.685   6.238   1.358
25404WAT     H276455   9.664   6.388   1.420
25405WAT      O76456   4.275   5.454   3.058
25405WAT     H176457   4.310   5.362   3.076
25405WAT     H276458   4.176   5.455   3.071
25406WAT      O76459   8.147   1.042   8.805
25406WAT     H176460   8.171   1.090   8.721
25406WAT     H276461   8.201   1.078   8.881
25407WAT      O76462   0.340   4.609   2.533
25407WAT     H176463   0.249   4.579   2.559
25407WAT     H276464   0.405   4.533   2.545
25408WAT      O76465   8.876   1.742   3.677
25408WAT     H176466   8.842   1.804   3.748
25408WAT     H276467   8.967   1.771   3.648
25409WAT      O76468   9.564   4.127   9.229
25409WAT     H176469   9.481   4.153   9.180
25409WAT     H276470   9.574   4.027   9.226
25410WAT      O76471   2.150   3.536   0.577
25410WAT     H176472   2.119   3.630   0.573
25410WAT     H276473   2.084   3.476   0.531
25411WAT      O76474   0.610   9.748   2.344
25411WAT     H176475   0.551   9.776   2.268
25411WAT     H276476   0.634   9.827   2.399
25412WAT      O76477   2.807   3.828   7.819
25412WAT     H176478   2.853   3.843   7.906
25412WAT     H276479   2.801   3.730   7.800
25413WAT      O76480   6.534   8.462   6.004
25413WAT     H176481   6.623   8.451   6.050
25413WAT     H276482   6.477   8.525   6.057
25414WAT      O76483   4.876   8.324   4.345
25414WAT     H176484   4.839   8.313   4.253
25414WAT     H276485   4.976   8.319   4.341
25415WAT      O76486   4.230   6.699   2.925
25415WAT     H176487   4.290   6.766   2.882
25415WAT     H276488   4.152   6.746   2.966
25416WAT      O76489   8.598   3.363   7.754
25416WAT     H176490   8.624   3.268   7.737
25416WAT     H276491   8.512   3.383   7.706
25417WAT      O76492   1.982   8.722   5.305
25417WAT     H176493   1.905   8.711   5.242
25417WAT     H276494   2.067   8.720   5.253
25418WAT      O76495   3.926   1.335   3.831
25418WAT     H176496   3.946   1.370   3.923
25418WAT     H276497   3.856   1.264   3.837
25419WAT      O76498   1.510   7.509   3.913
25419WAT     H176499   1.573   7.462   3.851
25419WAT     H276500   1.430   7.541   3.862
25420WAT      O76501   1.004   0.866   0.269
25420WAT     H176502   1.019   0.795   0.200
25420WAT     H276503   1.086   0.877   0.325
25421WAT      O76504   5.980   3.227   4.966
25421WAT     H176505   5.998   3.298   4.899
25421WAT     H276506   5.909   3.166   4.933
25422WAT      O76507   8.559   0.594   5.011
25422WAT     H176508   8.517   0.668   5.063
25422WAT     H276509   8.488   0.535   4.973
25423WAT      O76510   7.696   2.177   6.697
25423WAT     H176511   7.714   2.231   6.779
25423WAT     H276512   7.755   2.096   6.697
25424WAT      O76513   8.494   2.066   3.441
25424WAT     H176514   8.447   2.024   3.518
25424WAT     H276515   8.502   2.000   3.366
25425WAT      O76516   6.236   0.417   2.141
25425WAT     H176517   6.265   0.395   2.048
25425WAT     H276518   6.136   0.418   2.145
25426WAT      O76519   5.648   8.800   7.680
25426WAT     H176520   5.652   8.882   7.622
25426WAT     H276521   5.565   8.803   7.735
25427WAT      O76522   2.887   3.093   3.195
25427WAT     H176523   2.959   3.080   3.127
25427WAT     H276524   2.901   3.179   3.244
25428WAT      O76525   8.017   2.181   8.952
25428WAT     H176526   8.061   2.105   8.906
25428WAT     H276527   8.034   2.175   9.051
25429WAT      O76528   5.957   9.612   0.847
25429WAT     H176529   5.953   9.608   0.747
25429WAT     H276530   5.864   9.621   0.883
25430WAT      O76531   5.665   6.791   4.767
25430WAT     H176532   5.599   6.852   4.811
25430WAT     H276533   5.616   6.716   4.721
25431WAT      O76534   9.441   4.332   0.172
25431WAT     H176535   9.383   4.413   0.165
25431WAT     H276536   9.519   4.351   0.232
25432WAT      O76537   6.321   8.853   8.914
25432WAT     H176538   6.394   8.906   8.958
25432WAT     H276539   6.253   8.827   8.983
25433WAT      O76540   7.695   7.244   5.193
25433WAT     H176541   7.657   7.196   5.272
25433WAT     H276542   7.718   7.178   5.122
25434WAT      O76543   7.105   0.761   1.316
25434WAT     H176544   7.030   0.826   1.309
25434WAT     H276545   7.153   0.756   1.228
25435WAT      O76546   4.061   3.998   5.904
25435WAT     H176547   4.026   4.083   5.866
25435WAT     H276548   4.143   3.970   5.854
25436WAT      O76549   1.237   1.987   4.098
25436WAT     H176550   1.215   2.048   4.173
25436WAT     H276551   1.161   1.925   4.081
25437WAT      O76552   6.117   4.057   0.502
25437WAT     H176553   6.105   4.098   0.411
25437WAT     H276554   6.032   4.015   0.532
25438WAT      O76555   6.185   2.839   4.418
25438WAT     H176556   6.093   2.852   4.456
25438WAT     H276557   6.250   2.890   4.474
25439WAT      O76558   0.486   9.394   4.089
25439WAT     H176559   0.516   9.301   4.109
25439WAT     H276560   0.563   9.446   4.052
25440WAT      O76561   5.351   2.009   0.853
25440WAT     H176562   5.257   1.981   0.838
25440WAT     H276563   5.409   1.970   0.782
25441WAT      O76564   2.596   5.827   3.885
25441WAT     H176565   2.580   5.899   3.818
25441WAT     H276566   2.600   5.867   3.977
25442WAT      O76567   7.311   7.758   9.842
25442WAT     H176568   7.268   7.815   9.772
25442WAT     H276569   7.337   7.815   9.920
25443WAT      O76570   0.213   8.296   6.566
25443WAT     H176571   0.188   8.253   6.480
25443WAT     H276572   0.305   8.334   6.559
25444WAT      O76573   5.543   8.311   2.370
25444WAT     H176574   5.504   8.392   2.325
25444WAT     H276575   5.549   8.236   2.304
25445WAT      O76576   0.809   2.354   2.594
25445WAT     H176577   0.871   2.290   2.639
25445WAT     H276578   0.721   2.308   2.576
25446WAT      O76579   6.990   4.337   7.059
25446WAT     H176580   6.932   4.295   6.989
25446WAT     H276581   7.016   4.429   7.030
25447WAT      O76582   2.859   0.099   4.404
25447WAT     H176583   2.920   0.105   4.483
25447WAT     H276584   2.910   0.062   4.326
25448WAT      O76585   2.550   7.628   0.204
25448WAT     H176586   2.553   7.575   0.289
25448WAT     H276587   2.640   7.626   0.160
25449WAT      O76588   2.271   3.178   2.517
25449WAT     H176589   2.336   3.105   2.495
25449WAT     H276590   2.260   3.238   2.438
25450WAT      O76591   1.934   7.371   5.000
25450WAT     H176592   2.021   7.353   5.045
25450WAT     H276593   1.947   7.438   4.926
25451WAT      O76594   0.333   0.212   1.972
25451WAT     H176595   0.329   0.112   1.978
25451WAT     H276596   0.255   0.251   2.022
25452WAT      O76597   7.054   0.610   9.330
25452WAT     H176598   7.132   0.634   9.272
25452WAT     H276599   7.012   0.694   9.365
25453WAT      O76600   5.479   3.817   7.756
25453WAT     H176601   5.429   3.903   7.744
25453WAT     H276602   5.483   3.794   7.853
25454WAT      O76603   5.898   8.792   3.250
25454WAT     H176604   5.821   8.735   3.221
25454WAT     H276605   5.945   8.749   3.326
25455WAT      O76606   3.760   3.152   0.156
25455WAT     H176607   3.695   3.200   0.097
25455WAT     H276608   3.724   3.148   0.249
25456WAT      O76609   7.909   9.377   3.122
25456WAT     H176610   7.830   9.396   3.064
25456WAT     H276611   7.977   9.325   3.070
25457WAT      O76612   5.952   1.890   4.889
25457WAT     H176613   5.897   1.959   4.843
25457WAT     H276614   6.036   1.931   4.923
25458WAT      O76615   9.870   6.428   3.903
25458WAT     H176616   9.900   6.385   3.988
25458WAT     H276617   9.796   6.373   3.863
25459WAT      O76618   9.076   3.011   6.611
25459WAT     H176619   9.085   2.992   6.513
25459WAT     H276620   9.076   2.925   6.662
25460WAT      O76621   4.854   0.012   1.997
25460WAT     H176622   4.765  -0.033   2.005
25460WAT     H276623   4.926  -0.048   2.031
25461WAT      O76624   8.503   1.959   9.706
25461WAT     H176625   8.412   1.997   9.718
25461WAT     H276626   8.539   1.929   9.794
25462WAT      O76627   2.481   4.857   7.964
25462WAT     H176628   2.472   4.763   7.996
25462WAT     H276629   2.571   4.893   7.990
25463WAT      O76630   1.679   1.093   2.436
25463WAT     H176631   1.695   1.173   2.379
25463WAT     H276632   1.583   1.090   2.463
25464WAT      O76633   3.912   8.832   4.150
25464WAT     H176634   3.955   8.741   4.143
25464WAT     H276635   3.889   8.865   4.058
25465WAT      O76636   6.119   2.313   9.695
25465WAT     H176637   6.204   2.287   9.740
25465WAT     H276638   6.137   2.388   9.630
25466WAT      O76639   3.653   3.415   3.641
25466WAT     H176640   3.586   3.437   3.712
25466WAT     H276641   3.701   3.331   3.666
25467WAT      O76642   4.069   3.160   2.430
25467WAT     H176643   4.066   3.061   2.446
25467WAT     H276644   4.067   3.177   2.332
25468WAT      O76645   2.683   4.545   4.148
25468WAT     H176646   2.669   4.487   4.228
25468WAT     H276647   2.779   4.575   4.145
25469WAT      O76648   3.559   7.895   4.771
25469WAT     H176649   3.474   7.942   4.795
25469WAT     H276650   3.546   7.796   4.778
25470WAT      O76651   0.260   2.603   2.548
25470WAT     H176652   0.317   2.684   2.563
25470WAT     H276653   0.307   2.540   2.487
25471WAT      O76654   8.456   8.439   0.554
25471WAT     H176655   8.554   8.458   0.558
25471WAT     H276656   8.406   8.525   0.540
25472WAT      O76657   6.826   0.885   5.398
25472WAT     H176658   6.846   0.980   5.423
25472WAT     H276659   6.869   0.823   5.464
25473WAT      O76660   3.702   2.448   8.316
25473WAT     H176661   3.702   2.517   8.388
25473WAT     H276662   3.755   2.369   8.346
25474WAT      O76663   2.448   3.586   8.898
25474WAT     H176664   2.496   3.617   8.815
25474WAT     H276665   2.442   3.661   8.963
25475WAT      O76666   7.896   8.702   3.601
25475WAT     H176667   7.895   8.759   3.519
25475WAT     H276668   7.961   8.740   3.667
25476WAT      O76669   2.102   4.853   3.854
25476WAT     H176670   2.010   4.813   3.862
25476WAT     H276671   2.105   4.912   3.773
25477WAT      O76672   5.449   9.676   7.538
25477WAT     H176673   5.451   9.684   7.638
25477WAT     H276674   5.472   9.764   7.497
25478WAT      O76675   4.061   4.373   2.032
25478WAT     H176676   4.007   4.289   2.024
25478WAT     H276677   4.104   4.393   1.944
25479WAT      O76678   7.752   7.557   3.066
25479WAT     H176679   7.848   7.534   3.083
25479WAT     H276680   7.723   7.629   3.129
25480WAT      O76681   0.612   2.627   7.018
25480WAT     H176682   0.556   2.631   7.101
25480WAT     H276683   0.702   2.591   7.041
25481WAT      O76684   3.349   6.848   0.538
25481WAT     H176685   3.310   6.865   0.448
25481WAT     H276686   3.347   6.931   0.592
25482WAT      O76687   6.218   7.780   7.276
25482WAT     H176688   6.274   7.721   7.333
25482WAT     H276689   6.274   7.855   7.239
25483WAT      O76690   1.051   4.574   7.582
25483WAT     H176691   1.118   4.577   7.656
25483WAT     H276692   1.093   4.531   7.501
25484WAT      O76693   5.130   8.040   4.067
25484WAT     H176694   5.176   7.984   4.136
25484WAT     H276695   5.031   8.032   4.077
25485WAT      O76696   1.900   7.844   0.006
25485WAT     H176697   1.846   7.808   0.082
25485WAT     H276698   1.889   7.785  -0.074
25486WAT      O76699   2.823   8.495   0.285
25486WAT     H176700   2.739   8.502   0.339
25486WAT     H276701   2.818   8.558   0.207
25487WAT      O76702   6.204   6.796   5.326
25487WAT     H176703   6.172   6.792   5.421
25487WAT     H276704   6.130   6.766   5.266
25488WAT      O76705   8.489   6.665   9.853
25488WAT     H176706   8.413   6.627   9.905
25488WAT     H276707   8.529   6.742   9.903
25489WAT      O76708   9.766   8.176   4.749
25489WAT     H176709   9.677   8.163   4.705
25489WAT     H276710   9.753   8.181   4.849
25490WAT      O76711   6.585   9.377   3.788
25490WAT     H176712   6.541   9.382   3.878
25490WAT     H276713   6.540   9.441   3.726
25491WAT      O76714   7.914   5.337   9.264
25491WAT     H176715   7.989   5.287   9.221
25491WAT     H276716   7.908   5.311   9.360
25492WAT      O76717   1.448   4.983   0.524
25492WAT     H176718   1.350   4.993   0.542
25492WAT     H276719   1.500   5.016   0.603
25493WAT      O76720   1.015   5.253   3.106
25493WAT     H176721   1.033   5.303   3.191
25493WAT     H276722   0.917   5.242   3.094
25494WAT      O76723   3.207   2.278   1.497
25494WAT     H176724   3.236   2.233   1.412
25494WAT     H276725   3.161   2.364   1.475
25495WAT      O76726   7.297   6.418   4.950
25495WAT     H176727   7.370   6.381   5.008
25495WAT     H276728   7.275   6.353   4.878
25496WAT      O76729   7.994   6.414   5.217
25496WAT     H176730   8.025   6.474   5.291
25496WAT     H276731   7.946   6.468   5.148
25497WAT      O76732   2.492   6.977   7.334
25497WAT     H176733   2.398   6.981   7.367
25497WAT     H276734   2.523   6.882   7.332
25498WAT      O76735   1.268   0.548   1.523
25498WAT     H176736   1.358   0.505   1.524
25498WAT     H276737   1.271   0.628   1.463
25499WAT      O76738   3.721   4.136   2.409
25499WAT     H176739   3.788   4.062   2.412
25499WAT     H276740   3.710   4.168   2.315
25500WAT      O76741   7.914   9.649   7.098
25500WAT     H176742   7.969   9.604   7.169
25500WAT     H276743   7.915   9.593   7.016
25501WAT      O76744   4.850   4.467   7.403
25501WAT     H176745   4.824   4.516   7.486
25501WAT     H276746   4.888   4.531   7.337
25502WAT      O76747   3.483   6.274   4.258
25502WAT     H176748   3.457   6.367   4.284
25502WAT     H276749   3.555   6.278   4.189
25503WAT      O76750   7.345   1.077   5.632
25503WAT     H176751   7.317   1.172   5.649
25503WAT     H276752   7.274   1.015   5.665
25504WAT      O76753   6.164   9.051   5.058
25504WAT     H176754   6.108   9.090   5.131
25504WAT     H276755   6.249   9.102   5.050
25505WAT      O76756   7.839   7.136   0.858
25505WAT     H176757   7.744   7.120   0.887
25505WAT     H276758   7.853   7.093   0.769
25506WAT      O76759   0.277   5.224   2.054
25506WAT     H176760   0.352   5.278   2.091
25506WAT     H276761   0.297   5.127   2.064
25507WAT      O76762   8.023   7.536   2.825
25507WAT     H176763   7.960   7.471   2.782
25507WAT     H276764   7.977   7.624   2.836
25508WAT      O76765   6.199   7.635   4.439
25508WAT     H176766   6.284   7.590   4.413
25508WAT     H276767   6.138   7.641   4.360
25509WAT      O76768   2.025   1.753   3.517
25509WAT     H176769   2.047   1.658   3.492
25509WAT     H276770   2.002   1.805   3.434
25510WAT      O76771   4.618   4.709   6.228
25510WAT     H176772   4.551   4.783   6.217
25510WAT     H276773   4.608   4.643   6.154
25511WAT      O76774   6.527   5.419   7.418
25511WAT     H176775   6.438   5.372   7.416
25511WAT     H276776   6.597   5.354   7.448
25512WAT      O76777   8.343   1.508   9.227
25512WAT     H176778   8.277   1.561   9.174
25512WAT     H276779   8.300   1.474   9.311
25513WAT      O76780   0.624   0.675   6.010
25513WAT     H176781   0.618   0.694   5.912
25513WAT     H276782   0.679   0.594   6.025
25514WAT      O76783   1.696   4.408   4.725
25514WAT     H176784   1.790   4.390   4.753
25514WAT     H276785   1.669   4.342   4.656
25515WAT      O76786   7.683   2.713   6.808
25515WAT     H176787   7.729   2.706   6.720
25515WAT     H276788   7.747   2.690   6.882
25516WAT      O76789   0.609   5.316   8.383
25516WAT     H176790   0.665   5.381   8.332
25516WAT     H276791   0.582   5.357   8.470
25517WAT      O76792   2.741   4.380   2.398
25517WAT     H176793   2.780   4.316   2.465
25517WAT     H276794   2.677   4.442   2.445
25518WAT      O76795   3.987   3.620   0.158
25518WAT     H176796   4.025   3.704   0.119
25518WAT     H276797   3.927   3.576   0.091
25519WAT      O76798   0.029   3.457   7.219
25519WAT     H176799   0.063   3.466   7.313
25519WAT     H276800   0.097   3.407   7.164
25520WAT      O76801   6.132   8.325   6.112
25520WAT     H176802   6.051   8.271   6.135
25520WAT     H276803   6.114   8.377   6.028
25521WAT      O76804   2.685   3.364   2.421
25521WAT     H176805   2.655   3.447   2.466
25521WAT     H276806   2.634   3.286   2.457
25522WAT      O76807   6.209   7.620   2.794
25522WAT     H176808   6.266   7.626   2.876
25522WAT     H276809   6.227   7.699   2.735
25523WAT      O76810   3.651   7.555   2.399
25523WAT     H176811   3.616   7.526   2.310
25523WAT     H276812   3.735   7.607   2.387
25524WAT      O76813   7.034   8.463   7.543
25524WAT     H176814   6.945   8.418   7.549
25524WAT     H276815   7.092   8.413   7.478
25525WAT      O76816   0.487   1.938   8.961
25525WAT     H176817   0.540   2.012   9.004
25525WAT     H276818   0.502   1.853   9.011
25526WAT      O76819   7.051   4.779   9.526
25526WAT     H176820   7.018   4.871   9.548
25526WAT     H276821   6.994   4.711   9.572
25527WAT      O76822   2.544   8.975   6.295
25527WAT     H176823   2.606   8.972   6.374
25527WAT     H276824   2.455   8.937   6.321
25528WAT      O76825   2.440   7.665   8.198
25528WAT     H176826   2.389   7.585   8.167
25528WAT     H276827   2.493   7.704   8.123
25529WAT      O76828   8.699   1.206   4.174
25529WAT     H176829   8.709   1.124   4.117
25529WAT     H276830   8.633   1.268   4.132
25530WAT      O76831   9.307   8.537   9.718
25530WAT     H176832   9.392   8.579   9.688
25530WAT     H276833   9.286   8.566   9.811
25531WAT      O76834   0.121   8.151   6.741
25531WAT     H176835   0.163   8.196   6.662
25531WAT     H276836   0.048   8.090   6.710
25532WAT      O76837   0.601   6.350   9.461
25532WAT     H176838   0.587   6.346   9.560
25532WAT     H276839   0.560   6.269   9.418
25533WAT      O76840   4.188   5.527   4.797
25533WAT     H176841   4.229   5.551   4.709
25533WAT     H276842   4.217   5.595   4.866
25534WAT      O76843   6.007   6.580   9.031
25534WAT     H176844   5.949   6.499   9.019
25534WAT     H276845   5.953   6.663   9.017
25535WAT      O76846   8.256   3.394   8.880
25535WAT     H176847   8.255   3.420   8.976
25535WAT     H276848   8.196   3.456   8.828
25536WAT      O76849   8.471   1.422   1.595
25536WAT     H176850   8.526   1.343   1.567
25536WAT     H276851   8.482   1.495   1.528
25537WAT      O76852   6.640   5.920   0.935
25537WAT     H176853   6.700   5.872   0.871
25537WAT     H276854   6.547   5.922   0.899
25538WAT      O76855   3.019   6.225   5.104
25538WAT     H176856   2.953   6.233   5.029
25538WAT     H276857   2.976   6.178   5.181
25539WAT      O76858   1.288   9.458   4.725
25539WAT     H176859   1.307   9.551   4.756
25539WAT     H276860   1.370   9.420   4.682
25540WAT      O76861   4.120   7.986   7.932
25540WAT     H176862   4.206   8.033   7.914
25540WAT     H276863   4.087   8.010   8.024
25541WAT      O76864   7.404   0.824   9.550
25541WAT     H176865   7.367   0.866   9.633
25541WAT     H276866   7.408   0.892   9.477
25542WAT      O76867   8.971   9.048   3.166
25542WAT     H176868   8.985   9.144   3.190
25542WAT     H276869   8.961   8.994   3.250
25543WAT      O76870   5.764   9.214   9.618
25543WAT     H176871   5.863   9.195   9.615
25543WAT     H276872   5.747   9.287   9.684
25544WAT      O76873   8.773   2.916   4.163
25544WAT     H176874   8.785   2.952   4.255
25544WAT     H276875   8.695   2.853   4.162
25545WAT      O76876   2.934   8.962   4.878
25545WAT     H176877   2.931   9.027   4.954
25545WAT     H276878   2.888   9.001   4.799
25546WAT      O76879   4.388   1.991   0.810
25546WAT     H176880   4.301   1.987   0.762
25546WAT     H276881   4.413   2.086   0.827
25547WAT      O76882   3.719   6.682   9.264
25547WAT     H176883   3.673   6.594   9.251
25547WAT     H276884   3.672   6.752   9.210
25548WAT      O76885   0.546   8.334   1.816
25548WAT     H176886   0.513   8.316   1.909
25548WAT     H276887   0.478   8.388   1.766
25549WAT      O76888   8.256   7.305   7.554
25549WAT     H176889   8.298   7.274   7.469
25549WAT     H276890   8.294   7.254   7.631
25550WAT      O76891   7.243   2.660   7.181
25550WAT     H176892   7.280   2.569   7.165
25550WAT     H276893   7.305   2.711   7.242
25551WAT      O76894   9.720   1.979   3.061
25551WAT     H176895   9.735   1.907   3.128
25551WAT     H276896   9.799   1.985   3.000
25552WAT      O76897   1.951   0.253   3.969
25552WAT     H176898   1.947   0.337   4.024
25552WAT     H276899   1.914   0.272   3.878
25553WAT      O76900   4.883   1.094   7.957
25553WAT     H176901   4.828   1.015   7.986
25553WAT     H276902   4.825   1.175   7.955
25554WAT      O76903   2.989   4.317   1.546
25554WAT     H176904   2.898   4.319   1.588
25554WAT     H276905   3.028   4.225   1.556
25555WAT      O76906   6.141   7.466   7.827
25555WAT     H176907   6.129   7.383   7.772
25555WAT     H276908   6.054   7.492   7.868
25556WAT      O76909   7.391   4.604   0.033
25556WAT     H176910   7.459   4.574   0.100
25556WAT     H276911   7.400   4.703   0.018
25557WAT      O76912   2.318   1.939   8.750
25557WAT     H176913   2.231   1.974   8.714
25557WAT     H276914   2.300   1.862   8.812
25558WAT      O76915   0.679   0.484   1.819
25558WAT     H176916   0.653   0.393   1.849
25558WAT     H276917   0.735   0.478   1.736
25559WAT      O76918   9.786   7.093   4.538
25559WAT     H176919   9.843   7.173   4.522
25559WAT     H276920   9.844   7.016   4.568
25560WAT      O76921   2.441   9.622   9.404
25560WAT     H176922   2.540   9.608   9.399
25560WAT     H276923   2.419   9.670   9.489
25561WAT      O76924   9.423   5.372   3.142
25561WAT     H176925   9.520   5.394   3.146
25561WAT     H276926   9.374   5.444   3.094
25562WAT      O76927   0.455   6.690   2.401
25562WAT     H176928   0.464   6.662   2.305
25562WAT     H276929   0.449   6.790   2.406
25563WAT      O76930   7.583   6.932   8.311
25563WAT     H176931   7.544   6.850   8.355
25563WAT     H276932   7.581   7.008   8.375
25564WAT      O76933   8.946   5.080   4.991
25564WAT     H176934   9.027   5.022   4.992
25564WAT     H276935   8.927   5.112   5.084
25565WAT      O76936   7.544   4.676   5.901
25565WAT     H176937   7.620   4.663   5.836
25565WAT     H276938   7.495   4.589   5.912
25566WAT      O76939   0.800   2.136   7.473
25566WAT     H176940   0.829   2.101   7.561
25566WAT     H276941   0.746   2.219   7.486
25567WAT      O76942   5.467   4.327   7.485
25567WAT     H176943   5.389   4.374   7.444
25567WAT     H276944   5.524   4.289   7.413
25568WAT      O76945   7.645   5.392   0.319
25568WAT     H176946   7.618   5.475   0.367
25568WAT     H276947   7.628   5.403   0.221
25569WAT      O76948   2.600   3.962   9.579
25569WAT     H176949   2.581   4.055   9.611
25569WAT     H276950   2.528   3.901   9.611
25570WAT      O76951   1.350   2.105   9.370
25570WAT     H176952   1.437   2.104   9.420
25570WAT     H276953   1.307   2.195   9.380
25571WAT      O76954   8.888   1.877   6.229
25571WAT     H176955   8.850   1.938   6.159
25571WAT     H276956   8.968   1.920   6.271
25572WAT      O76957   7.551   0.266   4.010
25572WAT     H176958   7.498   0.205   3.950
25572WAT     H276959   7.634   0.219   4.040
25573WAT      O76960   2.638   9.034   8.616
25573WAT     H176961   2.602   8.965   8.679
25573WAT     H276962   2.592   9.025   8.528
25574WAT      O76963   0.569   5.249   0.601
25574WAT     H176964   0.551   5.229   0.697
25574WAT     H276965   0.496   5.210   0.544
25575WAT      O76966   1.016   7.812   1.408
25575WAT     H176967   0.943   7.814   1.476
25575WAT     H276968   1.025   7.719   1.371
25576WAT      O76969   9.207   2.068   9.321
25576WAT     H176970   9.112   2.099   9.327
25576WAT     H276971   9.218   1.984   9.374
25577WAT      O76972   2.085   2.309   2.849
25577WAT     H176973   2.034   2.227   2.824
25577WAT     H276974   2.064   2.334   2.943
25578WAT      O76975   8.830   0.572   5.731
25578WAT     H176976   8.801   0.513   5.656
25578WAT     H276977   8.869   0.657   5.694
25579WAT      O76978   0.163   7.831   4.628
25579WAT     H176979   0.158   7.786   4.539
25579WAT     H276980   0.172   7.762   4.700
25580WAT      O76981   5.974   8.929   3.041
25580WAT     H176982   6.034   9.002   3.073
25580WAT     H276983   5.948   8.870   3.118
25581WAT      O76984   0.466   2.249   0.054
25581WAT     H176985   0.469   2.162   0.103
25581WAT     H276986   0.474   2.325   0.119
25582WAT      O76987   8.046   8.072   4.741
25582WAT     H176988   7.961   8.074   4.794
25582WAT     H276989   8.090   7.983   4.752
25583WAT      O76990   6.333   6.956   2.533
25583WAT     H176991   6.245   6.912   2.549
25583WAT     H276992   6.319   7.048   2.496
25584WAT      O76993   6.913   7.970   5.920
25584WAT     H176994   6.949   7.964   6.013
25584WAT     H276995   6.843   8.041   5.916
25585WAT      O76996   4.980   8.732   5.135
25585WAT     H176997   5.021   8.816   5.101
25585WAT     H276998   4.970   8.667   5.060
25586WAT      O76999   5.328   3.236   5.397
25586WAT     H177000   5.237   3.208   5.367
25586WAT     H277001   5.322   3.283   5.485
25587WAT      O77002   5.094   3.168   6.285
25587WAT     H177003   5.127   3.079   6.315
25587WAT     H277004   5.036   3.208   6.356
25588WAT      O77005   0.772   4.043   1.636
25588WAT     H177006   0.834   4.041   1.715
25588WAT     H277007   0.697   3.978   1.651
25589WAT      O77008   7.427   2.271   9.758
25589WAT     H177009   7.491   2.237   9.826
25589WAT     H277010   7.475   2.331   9.693
25590WAT      O77011   3.071   0.125   5.398
25590WAT     H177012   3.146   0.090   5.454
25590WAT     H277013   2.991   0.139   5.456
25591WAT      O77014   0.635   7.234   1.121
25591WAT     H177015   0.604   7.184   1.040
25591WAT     H277016   0.735   7.234   1.123
25592WAT      O77017   2.791   7.409   9.623
25592WAT     H177018   2.699   7.444   9.609
25592WAT     H277019   2.850   7.441   9.549
25593WAT      O77020   3.666   1.470   4.627
25593WAT     H177021   3.754   1.512   4.651
25593WAT     H277022   3.637   1.409   4.700
25594WAT      O77023   0.780   6.765   0.382
25594WAT     H177024   0.790   6.864   0.391
25594WAT     H277025   0.785   6.723   0.473
25595WAT      O77026   9.613   0.016   6.181
25595WAT     H177027   9.520  -0.012   6.203
25595WAT     H277028   9.672  -0.065   6.180
25596WAT      O77029   0.065   0.082   3.266
25596WAT     H177030  -0.014   0.072   3.205
25596WAT     H277031   0.040   0.139   3.344
25597WAT      O77032   6.606   1.740   3.583
25597WAT     H177033   6.538   1.811   3.603
25597WAT     H277034   6.694   1.767   3.621
25598WAT      O77035   2.762   0.111   6.419
25598WAT     H177036   2.696   0.183   6.440
25598WAT     H277037   2.809   0.132   6.334
25599WAT      O77038   0.467   1.498   4.974
25599WAT     H177039   0.428   1.588   4.953
25599WAT     H277040   0.556   1.510   5.017
25600WAT      O77041   9.708   5.609   0.568
25600WAT     H177042   9.784   5.600   0.504
25600WAT     H277043   9.737   5.661   0.648
25601WAT      O77044   6.431   2.962   5.118
25601WAT     H177045   6.391   2.873   5.097
25601WAT     H277046   6.360   3.032   5.115
25602WAT      O77047   4.321   5.311   4.374
25602WAT     H177048   4.290   5.219   4.398
25602WAT     H277049   4.375   5.348   4.450
25603WAT      O77050   6.853   1.532   0.057
25603WAT     H177051   6.948   1.505   0.074
25603WAT     H277052   6.804   1.458   0.012
25604WAT      O77053   6.807   2.779   5.829
25604WAT     H177054   6.831   2.834   5.749
25604WAT     H277055   6.885   2.776   5.892
25605WAT      O77056   3.279   3.666   9.334
25605WAT     H177057   3.338   3.650   9.414
25605WAT     H277058   3.335   3.698   9.258
25606WAT      O77059   8.265   7.257   2.400
25606WAT     H177060   8.225   7.196   2.469
25606WAT     H277061   8.321   7.326   2.446
25607WAT      O77062   8.795   1.872   3.079
25607WAT     H177063   8.816   1.969   3.093
25607WAT     H277064   8.848   1.817   3.144
25608WAT      O77065   3.195   1.707   4.570
25608WAT     H177066   3.256   1.628   4.581
25608WAT     H277067   3.223   1.760   4.490
25609WAT      O77068   1.460   5.277   4.472
25609WAT     H177069   1.448   5.188   4.427
25609WAT     H277070   1.460   5.349   4.403
25610WAT      O77071   2.127   6.750   9.420
25610WAT     H177072   2.129   6.736   9.519
25610WAT     H277073   2.078   6.674   9.376
25611WAT      O77074   3.322   1.368   3.922
25611WAT     H177075   3.351   1.313   3.844
25611WAT     H277076   3.336   1.316   4.006
25612WAT      O77077   3.169   9.429   5.368
25612WAT     H177078   3.178   9.466   5.461
25612WAT     H277079   3.185   9.330   5.370
25613WAT      O77080   1.554   3.019   2.564
25613WAT     H177081   1.634   2.977   2.520
25613WAT     H277082   1.475   2.959   2.553
25614WAT      O77083   6.214   0.479   6.395
25614WAT     H177084   6.192   0.576   6.403
25614WAT     H277085   6.268   0.463   6.312
25615WAT      O77086   2.836   3.097   6.513
25615WAT     H177087   2.833   3.181   6.460
25615WAT     H277088   2.776   3.029   6.471
25616WAT      O77089   2.486   2.647   5.264
25616WAT     H177090   2.556   2.718   5.258
25616WAT     H277091   2.465   2.613   5.172
25617WAT      O77092   4.241   2.290   8.584
25617WAT     H177093   4.260   2.354   8.658
25617WAT     H277094   4.282   2.201   8.606
25618WAT      O77095   0.883   8.139   1.721
25618WAT     H177096   0.823   8.131   1.641
25618WAT     H277097   0.973   8.102   1.699
25619WAT      O77098   0.246   7.055   8.256
25619WAT     H177099   0.233   7.145   8.215
25619WAT     H277100   0.343   7.041   8.275
25620WAT      O77101   6.295   0.271   2.856
25620WAT     H177102   6.207   0.224   2.845
25620WAT     H277103   6.319   0.274   2.953
25621WAT      O77104   2.321   0.718   0.560
25621WAT     H177105   2.345   0.765   0.475
25621WAT     H277106   2.256   0.644   0.541
25622WAT      O77107   0.707   2.581   8.716
25622WAT     H177108   0.779   2.615   8.655
25622WAT     H277109   0.641   2.528   8.663
25623WAT      O77110   2.044   7.121   3.995
25623WAT     H177111   2.006   7.185   4.061
25623WAT     H277112   2.133   7.153   3.965
25624WAT      O77113   8.252   4.111   6.945
25624WAT     H177114   8.184   4.057   6.897
25624WAT     H277115   8.317   4.149   6.880
25625WAT      O77116   7.904   7.163   9.139
25625WAT     H177117   7.998   7.131   9.127
25625WAT     H277118   7.880   7.159   9.236
25626WAT      O77119   7.781   4.995   2.613
25626WAT     H177120   7.709   4.945   2.662
25626WAT     H277121   7.773   4.976   2.515
25627WAT      O77122   4.756   0.837   0.459
25627WAT     H177123   4.775   0.819   0.555
25627WAT     H277124   4.771   0.934   0.440
25628WAT      O77125   7.458   6.853   6.682
25628WAT     H177126   7.542   6.817   6.721
25628WAT     H277127   7.401   6.890   6.755
25629WAT      O77128   8.004   4.868   7.322
25629WAT     H177129   7.975   4.888   7.229
25629WAT     H277130   8.071   4.936   7.352
25630WAT      O77131   1.047   6.711   2.925
25630WAT     H177132   0.980   6.782   2.902
25630WAT     H277133   1.023   6.670   3.013
25631WAT      O77134   5.973   9.267   1.152
25631WAT     H177135   5.910   9.334   1.191
25631WAT     H277136   5.996   9.293   1.059
25632WAT      O77137   0.679   0.717   6.510
25632WAT     H177138   0.611   0.782   6.545
25632WAT     H277139   0.637   0.662   6.437
25633WAT      O77140   1.018   0.420   4.699
25633WAT     H177141   1.018   0.486   4.774
25633WAT     H277142   1.026   0.468   4.612
25634WAT      O77143   9.554   7.837   2.190
25634WAT     H177144   9.524   7.828   2.285
25634WAT     H277145   9.568   7.933   2.168
25635WAT      O77146   0.866   5.577   4.473
25635WAT     H177147   0.933   5.533   4.532
25635WAT     H277148   0.913   5.639   4.409
25636WAT      O77149   8.452   5.520   5.594
25636WAT     H177150   8.438   5.422   5.602
25636WAT     H277151   8.462   5.544   5.498
25637WAT      O77152   9.644   2.612   0.014
25637WAT     H177153   9.603   2.526  -0.015
25637WAT     H277154   9.691   2.599   0.101
25638WAT      O77155   3.725   3.509   1.581
25638WAT     H177156   3.732   3.511   1.681
25638WAT     H277157   3.645   3.562   1.553
25639WAT      O77158   8.543   3.747   6.409
25639WAT     H177159   8.535   3.844   6.386
25639WAT     H277160   8.468   3.721   6.470
25640WAT      O77161   8.377   1.581   6.883
25640WAT     H177162   8.287   1.557   6.920
25640WAT     H277163   8.397   1.522   6.805
25641WAT      O77164   7.394   2.847   1.023
25641WAT     H177165   7.392   2.758   1.068
25641WAT     H277166   7.302   2.886   1.020
25642WAT      O77167   0.957   8.285   4.023
25642WAT     H177168   0.981   8.247   4.112
25642WAT     H277169   0.887   8.229   3.980
25643WAT      O77170   0.257   4.591   0.445
25643WAT     H177171   0.230   4.678   0.487
25643WAT     H277172   0.203   4.517   0.483
25644WAT      O77173   5.339   5.124   7.601
25644WAT     H177174   5.281   5.145   7.680
25644WAT     H277175   5.413   5.192   7.596
25645WAT      O77176   5.865   0.016   7.385
25645WAT     H177177   5.893   0.111   7.368
25645WAT     H277178   5.934  -0.046   7.346
25646WAT      O77179   2.285   8.341   0.940
25646WAT     H177180   2.374   8.382   0.922
25646WAT     H277181   2.244   8.311   0.854
25647WAT      O77182   4.078   8.718   3.359
25647WAT     H177183   4.089   8.790   3.291
25647WAT     H277184   3.986   8.680   3.352
25648WAT      O77185   2.256   7.506   8.867
25648WAT     H177186   2.187   7.502   8.795
25648WAT     H277187   2.243   7.589   8.922
25649WAT      O77188   8.713   0.738   1.362
25649WAT     H177189   8.798   0.780   1.391
25649WAT     H277190   8.705   0.647   1.402
25650WAT      O77191   2.593   4.201   5.418
25650WAT     H177192   2.554   4.127   5.364
25650WAT     H277193   2.553   4.288   5.388
25651WAT      O77194   3.162   4.705   3.279
25651WAT     H177195   3.142   4.789   3.230
25651WAT     H277196   3.242   4.718   3.337
25652WAT      O77197   6.483   9.734   8.209
25652WAT     H177198   6.520   9.809   8.263
25652WAT     H277199   6.551   9.702   8.143
25653WAT      O77200   0.762   4.049   4.378
25653WAT     H177201   0.857   4.054   4.349
25653WAT     H277202   0.730   3.955   4.374
25654WAT      O77203   1.909   9.805   5.021
25654WAT     H177204   1.965   9.754   5.087
25654WAT     H277205   1.857   9.876   5.069
25655WAT      O77206   5.809   1.655   6.371
25655WAT     H177207   5.744   1.662   6.447
25655WAT     H277208   5.901   1.676   6.404
25656WAT      O77209   7.851   0.336   6.298
25656WAT     H177210   7.859   0.290   6.210
25656WAT     H277211   7.788   0.414   6.289
25657WAT      O77212   3.809   4.713   7.080
25657WAT     H177213   3.757   4.768   7.014
25657WAT     H277214   3.752   4.695   7.160
25658WAT      O77215   2.558   8.660   4.927
25658WAT     H177216   2.633   8.645   4.862
25658WAT     H277217   2.492   8.722   4.886
25659WAT      O77218   8.949   2.947   4.823
25659WAT     H177219   8.888   3.014   4.865
25659WAT     H277220   8.928   2.856   4.859
25660WAT      O77221   4.987   2.229   7.024
25660WAT     H177222   5.025   2.184   7.105
25660WAT     H277223   4.908   2.177   6.990
25661WAT      O77224   1.714   7.780   7.524
25661WAT     H177225   1.780   7.712   7.555
25661WAT     H277226   1.760   7.846   7.465
25662WAT      O77227   9.786   8.243   9.667
25662WAT     H177228   9.857   8.215   9.733
25662WAT     H277229   9.827   8.254   9.577
25663WAT      O77230   8.952   8.406   9.387
25663WAT     H177231   8.862   8.379   9.421
25663WAT     H277232   8.975   8.350   9.307
25664WAT      O77233   1.598   8.794   8.181
25664WAT     H177234   1.568   8.809   8.275
25664WAT     H277235   1.692   8.825   8.171
25665WAT      O77236   5.560   9.762   2.149
25665WAT     H177237   5.641   9.707   2.125
25665WAT     H277238   5.533   9.743   2.243
25666WAT      O77239   3.197   3.231   3.918
25666WAT     H177240   3.133   3.157   3.900
25666WAT     H277241   3.159   3.292   3.987
25667WAT      O77242   1.702   6.451   2.478
25667WAT     H177243   1.761   6.500   2.541
25667WAT     H277244   1.745   6.447   2.388
25668WAT      O77245   9.253   3.362   8.194
25668WAT     H177246   9.208   3.436   8.244
25668WAT     H277247   9.295   3.299   8.259
25669WAT      O77248   8.707   9.359   0.119
25669WAT     H177249   8.803   9.361   0.146
25669WAT     H277250   8.696   9.294   0.044
25670WAT      O77251   2.933   8.154   1.732
25670WAT     H177252   2.870   8.198   1.668
25670WAT     H277253   2.995   8.093   1.682
25671WAT      O77254   0.118   6.898   0.445
25671WAT     H177255   0.036   6.904   0.502
25671WAT     H277256   0.192   6.950   0.488
25672WAT      O77257   3.971   2.895   8.711
25672WAT     H177258   3.912   2.947   8.773
25672WAT     H277259   3.960   2.797   8.729
25673WAT      O77260   8.937   8.118   4.620
25673WAT     H177261   9.030   8.156   4.612
25673WAT     H277262   8.884   8.143   4.539
25674WAT      O77263   8.160   9.231   7.972
25674WAT     H177264   8.152   9.250   7.874
25674WAT     H277265   8.095   9.287   8.023
25675WAT      O77266   8.761   3.750   5.756
25675WAT     H177267   8.738   3.653   5.761
25675WAT     H277268   8.741   3.795   5.843
25676WAT      O77269   2.220   2.217   5.095
25676WAT     H177270   2.177   2.239   5.007
25676WAT     H277271   2.162   2.251   5.169
25677WAT      O77272   2.616   9.678   4.792
25677WAT     H177273   2.675   9.698   4.714
25677WAT     H277274   2.611   9.759   4.852
25678WAT      O77275   6.479   1.388   7.860
25678WAT     H177276   6.487   1.413   7.957
25678WAT     H277277   6.533   1.451   7.805
25679WAT      O77278   5.610   1.568   2.171
25679WAT     H177279   5.611   1.607   2.263
25679WAT     H277280   5.615   1.642   2.104
25680WAT      O77281   2.421   2.938   3.219
25680WAT     H177282   2.389   3.007   3.283
25680WAT     H277283   2.474   2.869   3.268
25681WAT      O77284   9.380   3.663   2.572
25681WAT     H177285   9.340   3.719   2.644
25681WAT     H277286   9.480   3.664   2.580
25682WAT      O77287   9.272   8.267   8.388
25682WAT     H177288   9.323   8.313   8.316
25682WAT     H277289   9.305   8.296   8.478
25683WAT      O77290   7.686   0.672   2.991
25683WAT     H177291   7.748   0.680   3.069
25683WAT     H277292   7.677   0.575   2.966
25684WAT      O77293   3.817   6.360   6.949
25684WAT     H177294   3.769   6.344   7.035
25684WAT     H277295   3.901   6.307   6.947
25685WAT      O77296   4.925   0.944   1.981
25685WAT     H177297   4.905   1.023   1.923
25685WAT     H277298   5.014   0.955   2.024
25686WAT      O77299   0.468   8.886   3.050
25686WAT     H177300   0.397   8.815   3.049
25686WAT     H277301   0.470   8.928   3.141
25687WAT      O77302   2.746   4.836   5.667
25687WAT     H177303   2.766   4.779   5.587
25687WAT     H277304   2.795   4.923   5.659
25688WAT      O77305   8.253   1.749   0.932
25688WAT     H177306   8.212   1.829   0.977
25688WAT     H277307   8.181   1.698   0.884
25689WAT      O77308   9.840   6.775   3.035
25689WAT     H177309   9.902   6.834   3.087
25689WAT     H277310   9.759   6.757   3.089
25690WAT      O77311   8.611   6.868   9.365
25690WAT     H177312   8.532   6.838   9.312
25690WAT     H277313   8.584   6.881   9.460
25691WAT      O77314   9.402   1.878   4.403
25691WAT     H177315   9.422   1.945   4.475
25691WAT     H277316   9.483   1.822   4.386
25692WAT      O77317   1.350   1.397   0.352
25692WAT     H177318   1.298   1.340   0.289
25692WAT     H277319   1.310   1.489   0.355
25693WAT      O77320   3.194   3.816   3.229
25693WAT     H177321   3.281   3.839   3.185
25693WAT     H277322   3.122   3.874   3.192
25694WAT      O77323   1.327   5.597   4.076
25694WAT     H177324   1.228   5.613   4.074
25694WAT     H277325   1.374   5.685   4.082
25695WAT      O77326   5.920   2.266   4.070
25695WAT     H177327   5.908   2.286   4.167
25695WAT     H277328   5.846   2.307   4.018
25696WAT      O77329   7.339   4.266   0.171
25696WAT     H177330   7.287   4.346   0.201
25696WAT     H277331   7.313   4.187   0.227
25697WAT      O77332   6.629   8.671   3.825
25697WAT     H177333   6.542   8.634   3.858
25697WAT     H277334   6.617   8.709   3.734
25698WAT      O77335   5.292   4.850   7.560
25698WAT     H177336   5.270   4.946   7.580
25698WAT     H277337   5.366   4.846   7.493
25699WAT      O77338   3.223   2.886   8.412
25699WAT     H177339   3.309   2.875   8.461
25699WAT     H277340   3.167   2.804   8.424
25700WAT      O77341   3.537   0.658   0.005
25700WAT     H177342   3.591   0.584   0.046
25700WAT     H277343   3.504   0.719   0.077
25701WAT      O77344   6.038   1.186   2.478
25701WAT     H177345   6.055   1.282   2.498
25701WAT     H277346   6.048   1.132   2.562
25702WAT      O77347   1.445   5.851   2.367
25702WAT     H177348   1.518   5.872   2.302
25702WAT     H277349   1.452   5.911   2.446
25703WAT      O77350   1.553   8.245   8.277
25703WAT     H177351   1.504   8.253   8.190
25703WAT     H277352   1.618   8.169   8.272
25704WAT      O77353   7.474   6.653   5.427
25704WAT     H177354   7.445   6.604   5.344
25704WAT     H277355   7.418   6.735   5.438
25705WAT      O77356   9.115   3.914   0.343
25705WAT     H177357   9.202   3.864   0.344
25705WAT     H277358   9.130   4.007   0.312
25706WAT      O77359   2.533   9.572   5.163
25706WAT     H177360   2.584   9.657   5.170
25706WAT     H277361   2.447   9.588   5.116
25707WAT      O77362   9.632   5.827   9.290
25707WAT     H177363   9.550   5.875   9.259
25707WAT     H277364   9.671   5.874   9.369
25708WAT      O77365   3.252   8.950   5.662
25708WAT     H177366   3.250   8.859   5.702
25708WAT     H277367   3.315   8.952   5.585
25709WAT      O77368   4.687   1.692   8.423
25709WAT     H177369   4.690   1.622   8.351
25709WAT     H277370   4.717   1.652   8.510
25710WAT      O77371   9.853   0.803   9.331
25710WAT     H177372   9.882   0.819   9.426
25710WAT     H277373   9.934   0.790   9.274
25711WAT      O77374   6.740   8.271   7.899
25711WAT     H177375   6.685   8.354   7.909
25711WAT     H277376   6.716   8.206   7.970
25712WAT      O77377   7.353   2.993   5.272
25712WAT     H177378   7.399   3.035   5.351
25712WAT     H277379   7.299   3.063   5.225
25713WAT      O77380   1.074   3.106   6.444
25713WAT     H177381   1.096   3.084   6.539
25713WAT     H277382   1.157   3.094   6.388
25714WAT      O77383   2.180   4.880   7.864
25714WAT     H177384   2.176   4.944   7.787
25714WAT     H277385   2.271   4.884   7.906
25715WAT      O77386   5.388   6.714   5.226
25715WAT     H177387   5.314   6.677   5.283
25715WAT     H277388   5.349   6.773   5.156
25716WAT      O77389   6.361   0.968   2.191
25716WAT     H177390   6.361   0.868   2.186
25716WAT     H277391   6.299   1.005   2.121
25717WAT      O77392   8.571   8.082   0.893
25717WAT     H177393   8.637   8.158   0.899
25717WAT     H277394   8.607   8.012   0.832
25718WAT      O77395   2.715   8.758   2.160
25718WAT     H177396   2.722   8.741   2.062
25718WAT     H277397   2.785   8.823   2.188
25719WAT      O77398   1.802   1.491   5.683
25719WAT     H177399   1.874   1.465   5.747
25719WAT     H277400   1.790   1.590   5.684
25720WAT      O77401   8.236   8.085   7.444
25720WAT     H177402   8.147   8.117   7.476
25720WAT     H277403   8.301   8.087   7.519
25721WAT      O77404   2.205   4.787   9.582
25721WAT     H177405   2.225   4.880   9.612
25721WAT     H277406   2.170   4.734   9.660
25722WAT      O77407   2.611   4.421   0.735
25722WAT     H177408   2.520   4.445   0.768
25722WAT     H277409   2.666   4.385   0.810
25723WAT      O77410   6.826   2.762   8.701
25723WAT     H177411   6.801   2.741   8.796
25723WAT     H277412   6.920   2.733   8.684
25724WAT      O77413   0.656   1.844   0.889
25724WAT     H177414   0.670   1.799   0.977
25724WAT     H277415   0.596   1.788   0.832
25725WAT      O77416   4.104   4.456   6.697
25725WAT     H177417   4.073   4.371   6.654
25725WAT     H277418   4.036   4.485   6.764
25726WAT      O77419   3.819   3.750   5.701
25726WAT     H177420   3.858   3.837   5.670
25726WAT     H277421   3.893   3.688   5.726
25727WAT      O77422   0.631   3.782   3.013
25727WAT     H177423   0.608   3.782   2.916
25727WAT     H277424   0.701   3.713   3.032
25728WAT      O77425   6.133   6.882   1.676
25728WAT     H177426   6.182   6.887   1.590
25728WAT     H277427   6.183   6.823   1.740
25729WAT      O77428   7.921   1.663   7.061
25729WAT     H177429   7.887   1.692   6.972
25729WAT     H277430   7.928   1.741   7.122
25730WAT      O77431   7.987   6.668   8.950
25730WAT     H177432   7.990   6.734   8.875
25730WAT     H277433   7.953   6.713   9.033
25731WAT      O77434   3.808   1.442   3.624
25731WAT     H177435   3.865   1.385   3.683
25731WAT     H277436   3.825   1.418   3.529
25732WAT      O77437   1.880   4.540   0.388
25732WAT     H177438   1.905   4.576   0.477
25732WAT     H277439   1.873   4.440   0.393
25733WAT      O77440   0.106   8.289   4.050
25733WAT     H177441   0.086   8.353   3.976
25733WAT     H277442   0.022   8.244   4.079
25734WAT      O77443   5.546   8.187   1.095
25734WAT     H177444   5.530   8.178   0.997
25734WAT     H277445   5.493   8.118   1.144
25735WAT      O77446   9.197   3.445   9.062
25735WAT     H177447   9.212   3.373   9.130
25735WAT     H277448   9.104   3.480   9.071
25736WAT      O77449   0.738   7.946   7.943
25736WAT     H177450   0.801   7.998   8.000
25736WAT     H277451   0.658   8.003   7.921
25737WAT      O77452   4.950   5.416   6.718
25737WAT     H177453   4.934   5.475   6.638
25737WAT     H277454   4.921   5.465   6.801
25738WAT      O77455   7.245   1.762   1.450
25738WAT     H177456   7.201   1.712   1.525
25738WAT     H277457   7.320   1.818   1.487
25739WAT      O77458   0.064   7.479   6.798
25739WAT     H177459  -0.035   7.485   6.811
25739WAT     H277460   0.108   7.560   6.838
25740WAT      O77461   9.043   2.839   6.120
25740WAT     H177462   8.951   2.832   6.081
25740WAT     H277463   9.109   2.854   6.046
25741WAT      O77464   3.499   7.684   7.974
25741WAT     H177465   3.569   7.652   7.910
25741WAT     H277466   3.447   7.758   7.932
25742WAT      O77467   7.314   5.918   2.641
25742WAT     H177468   7.368   5.852   2.589
25742WAT     H277469   7.220   5.919   2.606
25743WAT      O77470   8.605   0.641   5.841
25743WAT     H177471   8.588   0.738   5.829
25743WAT     H277472   8.692   0.617   5.797
25744WAT      O77473   2.094   1.152   9.388
25744WAT     H177474   2.141   1.204   9.316
25744WAT     H277475   2.138   1.169   9.476
25745WAT      O77476   8.331   4.482   0.969
25745WAT     H177477   8.235   4.480   0.940
25745WAT     H277478   8.386   4.524   0.896
25746WAT      O77479   9.594   4.956   1.771
25746WAT     H177480   9.503   4.932   1.737
25746WAT     H277481   9.589   4.978   1.869
25747WAT      O77482   0.109   0.532   6.834
25747WAT     H177483   0.160   0.597   6.777
25747WAT     H277484   0.052   0.475   6.775
25748WAT      O77485   1.802   7.490   0.547
25748WAT     H177486   1.848   7.564   0.596
25748WAT     H277487   1.704   7.495   0.563
25749WAT      O77488   3.975   2.590   8.594
25749WAT     H177489   4.025   2.542   8.522
25749WAT     H277490   3.880   2.603   8.565
25750WAT      O77491   2.050   2.773   9.095
25750WAT     H177492   2.090   2.685   9.069
25750WAT     H277493   2.106   2.816   9.166
25751WAT      O77494   6.854   4.089   5.810
25751WAT     H177495   6.945   4.118   5.839
25751WAT     H277496   6.838   4.116   5.716
25752WAT      O77497   0.039   6.882   4.577
25752WAT     H177498  -0.008   6.798   4.549
25752WAT     H277499   0.050   6.882   4.677
25753WAT      O77500   3.583   5.933   2.228
25753WAT     H177501   3.674   5.893   2.232
25753WAT     H277502   3.579   6.002   2.157
25754WAT      O77503   5.651   3.251   3.631
25754WAT     H177504   5.652   3.347   3.601
25754WAT     H277505   5.653   3.191   3.551
25755WAT      O77506   2.593   2.985   4.722
25755WAT     H177507   2.676   2.977   4.777
25755WAT     H277508   2.573   2.897   4.679
25756WAT      O77509   7.717   2.291   4.215
25756WAT     H177510   7.671   2.314   4.129
25756WAT     H277511   7.651   2.296   4.290
25757WAT      O77512   0.839   6.512   6.505
25757WAT     H177513   0.752   6.535   6.461
25757WAT     H277514   0.821   6.480   6.598
25758WAT      O77515   5.613   7.680   6.631
25758WAT     H177516   5.579   7.735   6.554
25758WAT     H277517   5.557   7.597   6.639
25759WAT      O77518   0.942   8.575   4.573
25759WAT     H177519   0.887   8.492   4.574
25759WAT     H277520   1.013   8.569   4.644
25760WAT      O77521   8.958   2.720   8.696
25760WAT     H177522   8.958   2.644   8.761
25760WAT     H277523   9.049   2.728   8.655
25761WAT      O77524   2.302   0.075   9.096
25761WAT     H177525   2.341   0.063   9.004
25761WAT     H277526   2.207   0.106   9.087
25762WAT      O77527   5.626   4.768   7.137
25762WAT     H177528   5.625   4.832   7.061
25762WAT     H277529   5.720   4.738   7.154
25763WAT      O77530   0.398   4.304   3.386
25763WAT     H177531   0.442   4.215   3.395
25763WAT     H277532   0.452   4.373   3.433
25764WAT      O77533   0.985   5.793   9.773
25764WAT     H177534   1.049   5.778   9.848
25764WAT     H277535   0.893   5.802   9.809
25765WAT      O77536   3.727   4.406   0.861
25765WAT     H177537   3.645   4.443   0.817
25765WAT     H277538   3.788   4.482   0.886
25766WAT      O77539   8.782   6.270   1.895
25766WAT     H177540   8.874   6.303   1.870
25766WAT     H277541   8.740   6.336   1.957
25767WAT      O77542   6.869   6.046   3.863
25767WAT     H177543   6.892   5.954   3.831
25767WAT     H277544   6.945   6.108   3.842
25768WAT      O77545   6.891   1.416   9.057
25768WAT     H177546   6.984   1.432   9.024
25768WAT     H277547   6.882   1.321   9.088
25769WAT      O77548   3.872   3.857   1.730
25769WAT     H177549   3.934   3.784   1.758
25769WAT     H277550   3.785   3.849   1.779
25770WAT      O77551   0.642   1.953   1.642
25770WAT     H177552   0.651   1.871   1.699
25770WAT     H277553   0.604   1.928   1.553
25771WAT      O77554   7.762   0.172   7.891
25771WAT     H177555   7.779   0.262   7.930
25771WAT     H277556   7.816   0.104   7.939
25772WAT      O77557   6.188   9.293   6.601
25772WAT     H177558   6.239   9.259   6.680
25772WAT     H277559   6.232   9.376   6.567
25773WAT      O77560   0.110   0.754   2.961
25773WAT     H177561   0.159   0.781   2.878
25773WAT     H277562   0.048   0.678   2.940
25774WAT      O77563   8.346   4.373   8.643
25774WAT     H177564   8.280   4.346   8.713
25774WAT     H277565   8.438   4.364   8.679
25775WAT      O77566   1.065   9.468   0.151
25775WAT     H177567   1.015   9.479   0.066
25775WAT     H277568   1.083   9.371   0.168
25776WAT      O77569   4.626   2.585   9.817
25776WAT     H177570   4.666   2.626   9.899
25776WAT     H277571   4.696   2.576   9.747
25777WAT      O77572   1.518   8.238   9.247
25777WAT     H177573   1.477   8.198   9.165
25777WAT     H277574   1.460   8.219   9.326
25778WAT      O77575   2.563   4.988   7.631
25778WAT     H177576   2.502   5.026   7.701
25778WAT     H277577   2.509   4.958   7.553
25779WAT      O77578   9.625   6.264   8.640
25779WAT     H177579   9.552   6.308   8.693
25779WAT     H277580   9.691   6.334   8.611
25780WAT      O77581   6.959   6.024   7.828
25780WAT     H177582   6.890   6.041   7.898
25780WAT     H277583   6.981   6.109   7.780
25781WAT      O77584   6.586   9.069   1.724
25781WAT     H177585   6.577   8.981   1.770
25781WAT     H277586   6.497   9.112   1.715
25782WAT      O77587   0.381   8.735   0.962
25782WAT     H177588   0.395   8.826   0.923
25782WAT     H277589   0.290   8.729   1.002
25783WAT      O77590   5.668   8.652   5.652
25783WAT     H177591   5.654   8.667   5.750
25783WAT     H277592   5.640   8.734   5.602
25784WAT      O77593   6.810   3.704   1.558
25784WAT     H177594   6.776   3.610   1.565
25784WAT     H277595   6.737   3.767   1.585
25785WAT      O77596   6.010   7.577   4.227
25785WAT     H177597   5.936   7.641   4.209
25785WAT     H277598   5.982   7.485   4.200
25786WAT      O77599   7.874   5.847   6.676
25786WAT     H177600   7.829   5.920   6.727
25786WAT     H277601   7.889   5.877   6.582
25787WAT      O77602   2.639   0.181   8.682
25787WAT     H177603   2.645   0.086   8.715
25787WAT     H277604   2.581   0.184   8.600
25788WAT      O77605   5.465   3.103   6.451
25788WAT     H177606   5.544   3.042   6.457
25788WAT     H277607   5.381   3.049   6.460
25789WAT      O77608   6.138   6.250   8.243
25789WAT     H177609   6.192   6.270   8.325
25789WAT     H277610   6.067   6.183   8.266
25790WAT      O77611   3.337   9.065   1.645
25790WAT     H177612   3.409   9.034   1.583
25790WAT     H277613   3.268   8.993   1.654
25791WAT      O77614   5.964   4.748   1.407
25791WAT     H177615   5.931   4.720   1.317
25791WAT     H277616   6.030   4.681   1.441
25792WAT      O77617   4.626   8.407   8.586
25792WAT     H177618   4.575   8.371   8.508
25792WAT     H277619   4.630   8.338   8.659
25793WAT      O77620   1.017   8.522   7.774
25793WAT     H177621   1.006   8.513   7.873
25793WAT     H277622   1.090   8.462   7.743
25794WAT      O77623   5.985   4.312   1.315
25794WAT     H177624   5.902   4.364   1.334
25794WAT     H277625   6.016   4.267   1.398
25795WAT      O77626   3.396   8.723   1.716
25795WAT     H177627   3.406   8.789   1.790
25795WAT     H277628   3.406   8.630   1.752
25796WAT      O77629   2.495   7.253   0.968
25796WAT     H177630   2.567   7.210   1.020
25796WAT     H277631   2.442   7.314   1.027
25797WAT      O77632   1.978   7.972   1.926
25797WAT     H177633   1.934   8.037   1.988
25797WAT     H277634   1.993   7.886   1.973
25798WAT      O77635   0.936   2.303   1.325
25798WAT     H177636   0.846   2.262   1.310
25798WAT     H277637   0.954   2.370   1.253
25799WAT      O77638   7.837   7.623   0.081
25799WAT     H177639   7.875   7.663  -0.003
25799WAT     H277640   7.816   7.696   0.146
25800WAT      O77641   9.047   1.091   3.543
25800WAT     H177642   8.964   1.034   3.543
25800WAT     H277643   9.052   1.142   3.628
25801WAT      O77644   3.500   5.777   5.345
25801WAT     H177645   3.561   5.750   5.270
25801WAT     H277646   3.514   5.715   5.423
25802WAT      O77647   5.796   0.037   8.677
25802WAT     H177648   5.767   0.083   8.761
25802WAT     H277649   5.857   0.098   8.625
25803WAT      O77650   1.590   9.075   7.845
25803WAT     H177651   1.623   8.996   7.896
25803WAT     H277652   1.536   9.043   7.767
25804WAT      O77653   7.860   0.151   6.500
25804WAT     H177654   7.786   0.088   6.518
25804WAT     H277655   7.842   0.200   6.414
25805WAT      O77656   4.613   5.488   4.828
25805WAT     H177657   4.571   5.569   4.867
25805WAT     H277658   4.556   5.408   4.847
25806WAT      O77659   9.691   0.354   1.271
25806WAT     H177660   9.619   0.423   1.258
25806WAT     H277661   9.746   0.347   1.187
25807WAT      O77662   2.950   7.051   8.101
25807WAT     H177663   2.917   6.984   8.167
25807WAT     H277664   2.881   7.122   8.088
25808WAT      O77665   7.644   7.862   0.021
25808WAT     H177666   7.647   7.819   0.111
25808WAT     H277667   7.616   7.795  -0.047
25809WAT      O77668   2.187   2.857   0.384
25809WAT     H177669   2.142   2.829   0.469
25809WAT     H277670   2.285   2.838   0.391
25810WAT      O77671   3.039   5.192   7.982
25810WAT     H177672   3.042   5.258   8.057
25810WAT     H277673   3.132   5.167   7.956
25811WAT      O77674   9.785   7.147   0.686
25811WAT     H177675   9.873   7.161   0.732
25811WAT     H277676   9.784   7.056   0.643
25812WAT      O77677   5.947   9.418   6.984
25812WAT     H177678   6.003   9.337   7.000
25812WAT     H277679   5.975   9.461   6.898
25813WAT      O77680   1.450   5.678   1.985
25813WAT     H177681   1.504   5.633   2.056
25813WAT     H277682   1.465   5.632   1.898
25814WAT      O77683   8.739   0.835   2.159
25814WAT     H177684   8.668   0.904   2.168
25814WAT     H277685   8.766   0.801   2.250
25815WAT      O77686   9.549   8.250   5.737
25815WAT     H177687   9.570   8.237   5.640
25815WAT     H277688   9.558   8.162   5.785
25816WAT      O77689   2.537   7.471   9.494
25816WAT     H177690   2.548   7.508   9.402
25816WAT     H277691   2.539   7.371   9.491
25817WAT      O77692   9.733   1.079   1.250
25817WAT     H177693   9.674   1.134   1.310
25817WAT     H277694   9.678   1.042   1.176
25818WAT      O77695   1.356   9.068   3.131
25818WAT     H177696   1.443   9.080   3.083
25818WAT     H277697   1.359   9.115   3.219
25819WAT      O77698   4.921   2.747   1.692
25819WAT     H177699   4.884   2.823   1.639
25819WAT     H277700   4.901   2.762   1.789
25820WAT      O77701   1.884   4.458   1.356
25820WAT     H177702   1.798   4.436   1.309
25820WAT     H277703   1.873   4.444   1.454
25821WAT      O77704   4.771   3.385   8.710
25821WAT     H177705   4.701   3.329   8.665
25821WAT     H277706   4.861   3.356   8.679
25822WAT      O77707   0.287   7.038   0.624
25822WAT     H177708   0.256   7.117   0.678
25822WAT     H277709   0.340   6.977   0.682
25823WAT      O77710   4.206   2.395   2.838
25823WAT     H177711   4.154   2.315   2.866
25823WAT     H277712   4.166   2.434   2.755
25824WAT      O77713   4.925   7.959   0.276
25824WAT     H177714   4.889   8.038   0.226
25824WAT     H277715   4.914   7.975   0.375
25825WAT      O77716   3.239   6.236   9.642
25825WAT     H177717   3.168   6.269   9.579
25825WAT     H277718   3.222   6.140   9.663
25826WAT      O77719   7.109   2.927   9.347
25826WAT     H177720   7.097   3.019   9.310
25826WAT     H277721   7.086   2.928   9.445
25827WAT      O77722   1.393   4.104   9.270
25827WAT     H177723   1.316   4.070   9.216
25827WAT     H277724   1.474   4.108   9.211
25828WAT      O77725   6.203   7.103   8.718
25828WAT     H177726   6.104   7.095   8.708
25828WAT     H277727   6.247   7.019   8.684
25829WAT      O77728   0.700   2.206   1.674
25829WAT     H177729   0.692   2.110   1.646
25829WAT     H277730   0.790   2.221   1.715
25830WAT      O77731   5.462   2.091   5.242
25830WAT     H177732   5.536   2.032   5.210
25830WAT     H277733   5.498   2.162   5.302
25831WAT      O77734   9.227   0.216   8.936
25831WAT     H177735   9.244   0.143   9.001
25831WAT     H277736   9.180   0.179   8.855
25832WAT      O77737   1.707   2.714   8.922
25832WAT     H177738   1.665   2.799   8.954
25832WAT     H277739   1.652   2.676   8.848
25833WAT      O77740   7.223   8.830   6.189
25833WAT     H177741   7.151   8.899   6.199
25833WAT     H277742   7.235   8.808   6.092
25834WAT      O77743   1.729   3.751   8.836
25834WAT     H177744   1.723   3.702   8.923
25834WAT     H277745   1.686   3.841   8.846
25835WAT      O77746   4.017   1.521   6.327
25835WAT     H177747   4.057   1.478   6.408
25835WAT     H277748   4.087   1.533   6.257
25836WAT      O77749   4.290   7.010   1.649
25836WAT     H177750   4.221   7.040   1.714
25836WAT     H277751   4.356   7.083   1.634
25837WAT      O77752   7.362   3.568   3.571
25837WAT     H177753   7.436   3.538   3.632
25837WAT     H277754   7.274   3.548   3.614
25838WAT      O77755   0.277   1.561   3.340
25838WAT     H177756   0.264   1.463   3.321
25838WAT     H277757   0.301   1.573   3.436
25839WAT      O77758   2.609   9.172   1.089
25839WAT     H177759   2.541   9.170   1.162
25839WAT     H277760   2.661   9.257   1.093
25840WAT      O77761   5.629   5.358   6.323
25840WAT     H177762   5.615   5.378   6.420
25840WAT     H277763   5.725   5.373   6.299
25841WAT      O77764   1.036   7.279   8.749
25841WAT     H177765   0.938   7.299   8.754
25841WAT     H277766   1.084   7.332   8.819
25842WAT      O77767   5.184   2.651   2.955
25842WAT     H177768   5.187   2.720   2.883
25842WAT     H277769   5.130   2.686   3.032
25843WAT      O77770   4.440   7.675   1.747
25843WAT     H177771   4.484   7.701   1.661
25843WAT     H277772   4.498   7.703   1.823
25844WAT      O77773   9.480   2.191   8.299
25844WAT     H177774   9.576   2.220   8.306
25844WAT     H277775   9.457   2.174   8.204
25845WAT      O77776   7.632   3.408   4.250
25845WAT     H177777   7.678   3.468   4.184
25845WAT     H277778   7.644   3.444   4.342
25846WAT      O77779   7.340   2.147   7.351
25846WAT     H177780   7.282   2.211   7.302
25846WAT     H277781   7.428   2.140   7.305
25847WAT      O77782   3.537   1.120   7.109
25847WAT     H177783   3.567   1.187   7.041
25847WAT     H277784   3.457   1.072   7.074
25848WAT      O77785   6.355   5.512   4.177
25848WAT     H177786   6.277   5.450   4.175
25848WAT     H277787   6.434   5.466   4.218
25849WAT      O77788   2.140   7.810   4.695
25849WAT     H177789   2.078   7.816   4.773
25849WAT     H277790   2.225   7.860   4.716
25850WAT      O77791   9.687   3.811   0.646
25850WAT     H177792   9.637   3.810   0.733
25850WAT     H277793   9.785   3.799   0.663
25851WAT      O77794   7.812   3.626   6.187
25851WAT     H177795   7.781   3.676   6.268
25851WAT     H277796   7.765   3.538   6.182
25852WAT      O77797   1.108   4.464   3.606
25852WAT     H177798   1.069   4.519   3.531
25852WAT     H277799   1.201   4.494   3.625
25853WAT      O77800   9.085   3.715   1.683
25853WAT     H177801   9.072   3.661   1.767
25853WAT     H277802   8.997   3.724   1.636
25854WAT      O77803   8.729   2.182   1.360
25854WAT     H177804   8.716   2.122   1.439
25854WAT     H277805   8.776   2.265   1.389
25855WAT      O77806   3.613   4.645   2.058
25855WAT     H177807   3.591   4.717   2.123
25855WAT     H277808   3.705   4.611   2.077
25856WAT      O77809   5.997   3.980   7.364
25856WAT     H177810   5.900   3.968   7.345
25856WAT     H277811   6.018   3.945   7.455
25857WAT      O77812   5.583   8.903   1.685
25857WAT     H177813   5.546   8.968   1.751
25857WAT     H277814   5.679   8.883   1.708
25858WAT      O77815   9.429   0.591   3.100
25858WAT     H177816   9.330   0.601   3.106
25858WAT     H277817   9.472   0.654   3.164
25859WAT      O77818   6.206   2.975   0.404
25859WAT     H177819   6.139   3.049   0.409
25859WAT     H277820   6.230   2.959   0.308
25860WAT      O77821   2.292   1.134   0.833
25860WAT     H177822   2.353   1.063   0.799
25860WAT     H277823   2.283   1.206   0.764
25861WAT      O77824   4.386   6.716   9.533
25861WAT     H177825   4.452   6.643   9.514
25861WAT     H277826   4.333   6.692   9.614
25862WAT      O77827   1.066   7.871   6.067
25862WAT     H177828   1.067   7.781   6.023
25862WAT     H277829   1.002   7.870   6.144
25863WAT      O77830   1.741   0.129   2.584
25863WAT     H177831   1.790   0.215   2.566
25863WAT     H277832   1.648   0.150   2.614
25864WAT      O77833   0.642   6.293   1.657
25864WAT     H177834   0.610   6.387   1.650
25864WAT     H277835   0.651   6.269   1.754
25865WAT      O77836   0.443   6.851   7.101
25865WAT     H177837   0.530   6.816   7.066
25865WAT     H277838   0.412   6.793   7.177
25866WAT      O77839   3.257   6.997   0.330
25866WAT     H177840   3.184   7.052   0.290
25866WAT     H277841   3.315   7.055   0.388
25867WAT      O77842   6.727   2.314   0.681
25867WAT     H177843   6.729   2.351   0.588
25867WAT     H277844   6.712   2.388   0.746
25868WAT      O77845   4.931   3.321   6.439
25868WAT     H177846   4.850   3.305   6.496
25868WAT     H277847   5.011   3.334   6.498
25869WAT      O77848   7.300   4.688   7.373
25869WAT     H177849   7.268   4.696   7.467
25869WAT     H277850   7.301   4.592   7.346
25870WAT      O77851   0.331   6.097   8.583
25870WAT     H177852   0.237   6.104   8.551
25870WAT     H277853   0.390   6.073   8.506
25871WAT      O77854   8.005   3.286   8.422
25871WAT     H177855   7.973   3.269   8.329
25871WAT     H277856   7.943   3.242   8.487
25872WAT      O77857   9.345   1.561   9.076
25872WAT     H177858   9.352   1.562   9.176
25872WAT     H277859   9.268   1.504   9.049
25873WAT      O77860   0.465   7.935   5.154
25873WAT     H177861   0.476   8.032   5.172
25873WAT     H277862   0.455   7.920   5.056
25874WAT      O77863   4.572   0.224   8.127
25874WAT     H177864   4.640   0.239   8.199
25874WAT     H277865   4.589   0.288   8.052
25875WAT      O77866   2.624   8.347   6.670
25875WAT     H177867   2.645   8.333   6.573
25875WAT     H277868   2.694   8.305   6.727
25876WAT      O77869   9.080   0.247   0.206
25876WAT     H177870   9.064   0.217   0.112
25876WAT     H277871   9.108   0.343   0.206
25877WAT      O77872   2.905   1.068   4.970
25877WAT     H177873   2.989   1.119   4.989
25877WAT     H277874   2.861   1.044   5.056
25878WAT      O77875   6.069   9.508   0.308
25878WAT     H177876   6.040   9.595   0.346
25878WAT     H277877   6.149   9.475   0.358
25879WAT      O77878   5.053   2.738   4.807
25879WAT     H177879   5.123   2.752   4.877
25879WAT     H277880   5.054   2.642   4.778
25880WAT      O77881   1.459   5.632   8.714
25880WAT     H177882   1.386   5.649   8.648
25880WAT     H277883   1.466   5.710   8.776
25881WAT      O77884   1.853   6.923   5.759
25881WAT     H177885   1.788   6.939   5.833
25881WAT     H277886   1.849   6.828   5.731
25882WAT      O77887   3.287   7.139   2.837
25882WAT     H177888   3.354   7.074   2.874
25882WAT     H277889   3.325   7.181   2.754
25883WAT      O77890   6.619   4.778   4.493
25883WAT     H177891   6.698   4.840   4.499
25883WAT     H277892   6.535   4.831   4.491
25884WAT      O77893   4.815   2.484   6.468
25884WAT     H177894   4.805   2.583   6.469
25884WAT     H277895   4.843   2.454   6.377
25885WAT      O77896   7.853   5.182   6.783
25885WAT     H177897   7.907   5.250   6.832
25885WAT     H277898   7.792   5.135   6.848
25886WAT      O77899   7.838   2.856   8.248
25886WAT     H177900   7.819   2.768   8.291
25886WAT     H277901   7.753   2.908   8.239
25887WAT      O77902   4.853   6.567   1.956
25887WAT     H177903   4.892   6.505   2.024
25887WAT     H277904   4.840   6.658   1.996
25888WAT      O77905   1.433   3.471   3.825
25888WAT     H177906   1.459   3.523   3.906
25888WAT     H277907   1.352   3.512   3.783
25889WAT      O77908   6.306   2.741   9.572
25889WAT     H177909   6.235   2.793   9.621
25889WAT     H277910   6.388   2.797   9.564
25890WAT      O77911   6.393   0.351   4.181
25890WAT     H177912   6.453   0.387   4.109
25890WAT     H277913   6.426   0.381   4.270
25891WAT      O77914   8.933   4.277   5.464
25891WAT     H177915   8.909   4.235   5.377
25891WAT     H277916   8.872   4.354   5.483
25892WAT      O77917   9.401   9.184   6.030
25892WAT     H177918   9.340   9.263   6.024
25892WAT     H277919   9.495   9.212   6.010
25893WAT      O77920   0.074   3.471   4.720
25893WAT     H177921   0.155   3.461   4.778
25893WAT     H277922   0.003   3.520   4.771
25894WAT      O77923   2.808   4.885   6.633
25894WAT     H177924   2.899   4.878   6.673
25894WAT     H277925   2.739   4.874   6.705
25895WAT      O77926   3.271   4.966   4.544
25895WAT     H177927   3.263   4.885   4.485
25895WAT     H277928   3.319   5.039   4.496
25896WAT      O77929   1.679   3.005   7.509
25896WAT     H177930   1.701   3.016   7.606
25896WAT     H277931   1.737   2.933   7.470
25897WAT      O77932   9.311   9.411   8.903
25897WAT     H177933   9.409   9.422   8.885
25897WAT     H277934   9.298   9.358   8.987
25898WAT      O77935   0.876   5.290   2.087
25898WAT     H177936   0.972   5.263   2.082
25898WAT     H277937   0.865   5.366   2.150
25899WAT      O77938   4.725   9.558   1.655
25899WAT     H177939   4.661   9.571   1.580
25899WAT     H277940   4.678   9.515   1.732
25900WAT      O77941   1.746   0.410   2.971
25900WAT     H177942   1.828   0.423   3.028
25900WAT     H277943   1.689   0.339   3.011
25901WAT      O77944   1.429   2.846   0.353
25901WAT     H177945   1.412   2.761   0.402
25901WAT     H277946   1.482   2.908   0.412
25902WAT      O77947   2.630   4.107   9.187
25902WAT     H177948   2.615   4.008   9.189
25902WAT     H277949   2.552   4.153   9.229
25903WAT      O77950   7.559   7.054   4.805
25903WAT     H177951   7.464   7.070   4.831
25903WAT     H277952   7.574   6.956   4.794
25904WAT      O77953   0.472   0.253   2.874
25904WAT     H177954   0.474   0.351   2.855
25904WAT     H277955   0.464   0.238   2.972
25905WAT      O77956   6.625   2.515   2.157
25905WAT     H177957   6.649   2.418   2.165
25905WAT     H277958   6.690   2.570   2.209
25906WAT      O77959   4.910   4.585   4.567
25906WAT     H177960   4.867   4.634   4.492
25906WAT     H277961   4.850   4.511   4.598
25907WAT      O77962   3.856   4.470   4.036
25907WAT     H177963   3.907   4.493   3.953
25907WAT     H277964   3.807   4.551   4.069
25908WAT      O77965   1.103   9.505   8.381
25908WAT     H177966   1.145   9.572   8.441
25908WAT     H277967   1.173   9.447   8.340
25909WAT      O77968   1.262   4.871   8.307
25909WAT     H177969   1.250   4.947   8.371
25909WAT     H277970   1.180   4.814   8.306
25910WAT      O77971   8.613   5.975   5.596
25910WAT     H177972   8.645   5.885   5.566
25910WAT     H277973   8.525   5.995   5.554
25911WAT      O77974   3.539   8.688   3.615
25911WAT     H177975   3.514   8.592   3.619
25911WAT     H277976   3.472   8.738   3.560
25912WAT      O77977   1.917   6.238   1.364
25912WAT     H177978   1.949   6.222   1.457
25912WAT     H277979   1.913   6.151   1.314
25913WAT      O77980   0.196   5.386   5.055
25913WAT     H177981   0.138   5.305   5.055
25913WAT     H277982   0.233   5.401   4.963
25914WAT      O77983   3.079   7.527   4.654
25914WAT     H177984   3.033   7.479   4.729
25914WAT     H277985   3.053   7.484   4.567
25915WAT      O77986   5.920   6.891   4.748
25915WAT     H177987   5.830   6.847   4.744
25915WAT     H277988   5.922   6.957   4.822
25916WAT      O77989   3.723   2.163   1.335
25916WAT     H177990   3.740   2.240   1.274
25916WAT     H277991   3.792   2.161   1.407
25917WAT      O77992   6.906   7.187   2.933
25917WAT     H177993   6.970   7.196   3.010
25917WAT     H277994   6.958   7.168   2.849
25918WAT      O77995   3.242   0.184   2.781
25918WAT     H177996   3.173   0.200   2.710
25918WAT     H277997   3.208   0.219   2.868
25919WAT      O77998   3.440   7.215   5.654
25919WAT     H177999   3.434   7.149   5.578
25919WAT     H278000   3.530   7.211   5.695
25920WAT      O78001   6.514   6.968   2.016
25920WAT     H178002   6.488   7.021   1.935
25920WAT     H278003   6.439   6.967   2.081
25921WAT      O78004   9.021   8.608   6.975
25921WAT     H178005   8.949   8.600   7.044
25921WAT     H278006   8.991   8.565   6.890
25922WAT      O78007   2.350   9.003   6.766
25922WAT     H178008   2.394   8.998   6.856
25922WAT     H278009   2.383   8.928   6.709
25923WAT      O78010   2.032   3.540   6.245
25923WAT     H178011   1.992   3.504   6.161
25923WAT     H278012   1.978   3.510   6.323
25924WAT      O78013   7.765   1.689   3.254
25924WAT     H178014   7.850   1.709   3.302
25924WAT     H278015   7.752   1.590   3.247
25925WAT      O78016   6.702   5.725   5.140
25925WAT     H178017   6.718   5.743   5.237
25925WAT     H278018   6.606   5.698   5.127
25926WAT      O78019   2.308   6.808   4.780
25926WAT     H178020   2.264   6.789   4.692
25926WAT     H278021   2.404   6.780   4.776
25927WAT      O78022   5.673   6.813   6.871
25927WAT     H178023   5.761   6.766   6.868
25927WAT     H278024   5.686   6.911   6.858
25928WAT      O78025   9.462   1.635   2.978
25928WAT     H178026   9.382   1.605   2.925
25928WAT     H278027   9.534   1.664   2.916
25929WAT      O78028   5.082   9.707   1.638
25929WAT     H178029   5.135   9.623   1.624
25929WAT     H278030   5.032   9.700   1.724
25930WAT      O78031   4.016   9.169   0.813
25930WAT     H178032   4.000   9.144   0.717
25930WAT     H278033   3.946   9.127   0.871
25931WAT      O78034   8.699   8.082   9.163
25931WAT     H178035   8.787   8.127   9.153
25931WAT     H278036   8.630   8.131   9.110
25932WAT      O78037   4.243   4.818   9.633
25932WAT     H178038   4.217   4.758   9.558
25932WAT     H278039   4.252   4.912   9.599
25933WAT      O78040   6.566   2.980   7.947
25933WAT     H178041   6.514   2.962   7.864
25933WAT     H278042   6.602   2.894   7.983
25934WAT      O78043   9.603   4.415   3.183
25934WAT     H178044   9.666   4.463   3.244
25934WAT     H278045   9.565   4.481   3.117
25935WAT      O78046   7.262   6.792   2.145
25935WAT     H178047   7.345   6.738   2.134
25935WAT     H278048   7.270   6.849   2.227
25936WAT      O78049   5.479   3.292   9.029
25936WAT     H178050   5.405   3.342   9.075
25936WAT     H278051   5.558   3.352   9.017
25937WAT      O78052   9.321   3.951   6.749
25937WAT     H178053   9.245   3.998   6.793
25937WAT     H278054   9.325   3.856   6.780
25938WAT      O78055   8.745   7.702   6.013
25938WAT     H178056   8.660   7.652   6.025
25938WAT     H278057   8.757   7.767   6.088
25939WAT      O78058   9.213   3.599   3.824
25939WAT     H178059   9.116   3.607   3.799
25939WAT     H278060   9.220   3.569   3.920
25940WAT      O78061   1.802   8.694   5.499
25940WAT     H178062   1.786   8.765   5.568
25940WAT     H278063   1.879   8.722   5.441
25941WAT      O78064   4.943   5.040   9.406
25941WAT     H178065   4.938   4.981   9.487
25941WAT     H278066   4.904   4.991   9.328
25942WAT      O78067   8.029   1.298   5.476
25942WAT     H178068   8.028   1.202   5.505
25942WAT     H278069   7.941   1.322   5.434
25943WAT      O78070   6.735   7.728   8.426
25943WAT     H178071   6.707   7.663   8.356
25943WAT     H278072   6.826   7.703   8.460
25944WAT      O78073   1.809   7.266   5.938
25944WAT     H178074   1.736   7.276   5.870
25944WAT     H278075   1.897   7.282   5.896
25945WAT      O78076   7.244   7.864   2.360
25945WAT     H178077   7.341   7.849   2.340
25945WAT     H278078   7.193   7.780   2.340
25946WAT      O78079   5.889   2.707   9.831
25946WAT     H178080   5.795   2.736   9.815
25946WAT     H278081   5.898   2.611   9.805
25947WAT      O78082   8.755   0.480   6.851
25947WAT     H178083   8.821   0.439   6.913
25947WAT     H278084   8.803   0.519   6.773
25948WAT      O78085   8.789   7.899   9.642
25948WAT     H178086   8.740   7.944   9.568
25948WAT     H278087   8.833   7.967   9.700
25949WAT      O78088   6.927   6.275   8.787
25949WAT     H178089   6.887   6.344   8.847
25949WAT     H278090   7.016   6.248   8.823
25950WAT      O78091   7.743   1.946   5.049
25950WAT     H178092   7.674   2.017   5.036
25950WAT     H278093   7.763   1.902   4.962
25951WAT      O78094   2.686   6.354   7.420
25951WAT     H178095   2.747   6.429   7.444
25951WAT     H278096   2.727   6.301   7.345
25952WAT      O78097   3.286   6.003   1.379
25952WAT     H178098   3.289   6.002   1.279
25952WAT     H278099   3.257   6.093   1.411
25953WAT      O78100   5.390   1.320   5.919
25953WAT     H178101   5.464   1.338   5.854
25953WAT     H278102   5.379   1.398   5.980
25954WAT      O78103   5.855   8.931   3.661
25954WAT     H178104   5.867   8.832   3.669
25954WAT     H278105   5.825   8.968   3.749
25955WAT      O78106   9.680   1.718   2.807
25955WAT     H178107   9.698   1.807   2.848
25955WAT     H278108   9.705   1.719   2.711
25956WAT      O78109   3.618   2.899   7.184
25956WAT     H178110   3.605   2.858   7.274
25956WAT     H278111   3.713   2.886   7.155
25957WAT      O78112   5.207   7.044   2.636
25957WAT     H178113   5.181   7.139   2.617
25957WAT     H278114   5.290   7.022   2.586
25958WAT      O78115   9.725   0.230   8.889
25958WAT     H178116   9.819   0.199   8.873
25958WAT     H278117   9.661   0.162   8.853
25959WAT      O78118   3.351   5.234   3.793
25959WAT     H178119   3.264   5.191   3.771
25959WAT     H278120   3.353   5.326   3.753
25960WAT      O78121   0.009   6.455   0.327
25960WAT     H178122  -0.059   6.411   0.268
25960WAT     H278123   0.021   6.550   0.299
25961WAT      O78124   3.943   0.421   5.383
25961WAT     H178125   3.862   0.461   5.425
25961WAT     H278126   3.961   0.467   5.296
25962WAT      O78127   9.544   4.121   8.245
25962WAT     H178128   9.585   4.113   8.154
25962WAT     H278129   9.589   4.195   8.295
25963WAT      O78130   3.217   8.090   1.982
25963WAT     H178131   3.206   8.037   1.897
25963WAT     H278132   3.155   8.168   1.980
25964WAT      O78133   8.609   5.021   5.294
25964WAT     H178134   8.526   5.037   5.240
25964WAT     H278135   8.584   4.984   5.383
25965WAT      O78136   2.165   0.818   2.584
25965WAT     H178137   2.199   0.912   2.581
25965WAT     H278138   2.170   0.778   2.492
25966WAT      O78139   6.516   0.679   1.206
25966WAT     H178140   6.479   0.629   1.129
25966WAT     H278141   6.615   0.666   1.211
25967WAT      O78142   3.754   9.137   7.777
25967WAT     H178143   3.680   9.191   7.736
25967WAT     H278144   3.776   9.175   7.867
25968WAT      O78145   4.549   2.384   9.392
25968WAT     H178146   4.618   2.419   9.456
25968WAT     H278147   4.559   2.284   9.385
25969WAT      O78148   1.122   0.568   0.497
25969WAT     H178149   1.185   0.569   0.575
25969WAT     H278150   1.170   0.598   0.415
25970WAT      O78151   1.766   1.803   3.356
25970WAT     H178152   1.732   1.757   3.274
25970WAT     H278153   1.865   1.813   3.350
25971WAT      O78154   7.703   4.404   5.855
25971WAT     H178155   7.720   4.390   5.952
25971WAT     H278156   7.604   4.404   5.838
25972WAT      O78157   8.817   4.614   5.769
25972WAT     H178158   8.844   4.583   5.861
25972WAT     H278159   8.750   4.688   5.778
25973WAT      O78160   2.270   8.416   6.572
25973WAT     H178161   2.351   8.470   6.550
25973WAT     H278162   2.195   8.441   6.511
25974WAT      O78163   5.611   5.433   3.911
25974WAT     H178164   5.679   5.379   3.962
25974WAT     H278165   5.620   5.529   3.936
25975WAT      O78166   8.126   1.636   2.490
25975WAT     H178167   8.104   1.731   2.512
25975WAT     H278168   8.163   1.591   2.570
25976WAT      O78169   2.381   9.169   1.763
25976WAT     H178170   2.370   9.131   1.855
25976WAT     H278171   2.295   9.210   1.733
25977WAT      O78172   8.488   6.109   7.512
25977WAT     H178173   8.456   6.146   7.599
25977WAT     H278174   8.428   6.140   7.438
25978WAT      O78175   9.237   3.873   1.833
25978WAT     H178176   9.180   3.825   1.767
25978WAT     H278177   9.218   3.971   1.830
25979WAT      O78178   8.343   6.558   4.232
25979WAT     H178179   8.286   6.587   4.155
25979WAT     H278180   8.333   6.460   4.246
25980WAT      O78181   7.458   8.752   9.252
25980WAT     H178182   7.380   8.733   9.311
25980WAT     H278183   7.496   8.841   9.276
25981WAT      O78184   2.529   5.422   4.970
25981WAT     H178185   2.608   5.361   4.978
25981WAT     H278186   2.459   5.395   5.035
25982WAT      O78187   5.290   7.658   3.887
25982WAT     H178188   5.225   7.702   3.949
25982WAT     H278189   5.378   7.705   3.891
25983WAT      O78190   8.080   5.074   1.490
25983WAT     H178191   8.137   5.133   1.548
25983WAT     H278192   7.990   5.115   1.477
25984WAT      O78193   0.966   4.948   6.913
25984WAT     H178194   1.017   4.862   6.922
25984WAT     H278195   0.930   4.955   6.820
25985WAT      O78196   0.473   6.531   0.804
25985WAT     H178197   0.412   6.552   0.880
25985WAT     H278198   0.505   6.616   0.762
25986WAT      O78199   1.467   7.573   4.523
25986WAT     H178200   1.440   7.478   4.509
25986WAT     H278201   1.495   7.586   4.618
25987WAT      O78202   6.143   3.824   5.363
25987WAT     H178203   6.234   3.783   5.357
25987WAT     H278204   6.092   3.781   5.438
25988WAT      O78205   2.360   5.029   3.487
25988WAT     H178206   2.357   4.962   3.562
25988WAT     H278207   2.313   4.992   3.407
25989WAT      O78208   2.672   6.764   2.218
25989WAT     H178209   2.731   6.689   2.192
25989WAT     H278210   2.603   6.779   2.147
25990WAT      O78211   7.357   6.752   1.302
25990WAT     H178212   7.438   6.808   1.286
25990WAT     H278213   7.331   6.756   1.398
25991WAT      O78214   0.415   8.911   3.628
25991WAT     H178215   0.332   8.862   3.600
25991WAT     H278216   0.488   8.892   3.562
25992WAT      O78217   4.450   0.288   4.997
25992WAT     H178218   4.479   0.205   4.950
25992WAT     H278219   4.358   0.275   5.034
25993WAT      O78220   1.268   3.802   6.320
25993WAT     H178221   1.191   3.738   6.321
25993WAT     H278222   1.236   3.893   6.347
25994WAT      O78223   8.696   5.707   5.992
25994WAT     H178224   8.767   5.776   6.007
25994WAT     H278225   8.705   5.634   6.059
25995WAT      O78226   4.449   7.967   2.534
25995WAT     H178227   4.441   7.971   2.634
25995WAT     H278228   4.543   7.941   2.509
25996WAT      O78229   3.830   2.680   2.142
25996WAT     H178230   3.829   2.672   2.042
25996WAT     H278231   3.918   2.717   2.171
25997WAT      O78232   6.557   8.577   3.248
25997WAT     H178233   6.612   8.598   3.329
25997WAT     H278234   6.460   8.583   3.272
25998WAT      O78235   0.575   1.987   7.403
25998WAT     H178236   0.564   1.962   7.499
25998WAT     H278237   0.667   2.025   7.388
25999WAT      O78238   2.384   5.946   2.040
25999WAT     H178239   2.439   5.863   2.033
25999WAT     H278240   2.287   5.923   2.027
26000WAT      O78241   6.897   8.203   6.553
26000WAT     H178242   6.973   8.210   6.617
26000WAT     H278243   6.821   8.154   6.596
26001WAT      O78244   9.438   4.474   2.584
26001WAT     H178245   9.505   4.401   2.598
26001WAT     H278246   9.469   4.534   2.510
26002WAT      O78247   9.524   1.124   3.093
26002WAT     H178248   9.572   1.045   3.054
26002WAT     H278249   9.426   1.114   3.078
26003WAT      O78250   8.541   7.179   7.843
26003WAT     H178251   8.594   7.264   7.847
26003WAT     H278252   8.563   7.129   7.760
26004WAT      O78253   4.966   3.958   1.562
26004WAT     H178254   4.971   3.861   1.537
26004WAT     H278255   4.995   3.969   1.657
26005WAT      O78256   6.067   0.156   5.036
26005WAT     H178257   6.091   0.067   4.998
26005WAT     H278258   6.146   0.217   5.030
26006WAT      O78259   6.454   3.389   5.610
26006WAT     H178260   6.546   3.410   5.578
26006WAT     H278261   6.388   3.406   5.537
26007WAT      O78262   6.274   3.471   2.288
26007WAT     H178263   6.331   3.496   2.209
26007WAT     H278264   6.185   3.439   2.257
26008WAT      O78265   5.805   0.979   7.316
26008WAT     H178266   5.799   1.005   7.412
26008WAT     H278267   5.785   1.059   7.258
26009WAT      O78268   9.041   6.128   8.195
26009WAT     H178269   9.010   6.052   8.139
26009WAT     H278270   9.072   6.203   8.137
26010WAT      O78271   0.276   5.681   9.243
26010WAT     H178272   0.201   5.694   9.308
26010WAT     H278273   0.356   5.731   9.274
26011WAT      O78274   1.348   9.556   2.580
26011WAT     H178275   1.279   9.499   2.536
26011WAT     H278276   1.385   9.508   2.660
26012WAT      O78277   3.945   0.747   4.199
26012WAT     H178278   3.928   0.830   4.146
26012WAT     H278279   4.014   0.766   4.269
26013WAT      O78280   4.241   6.723   1.635
26013WAT     H178281   4.320   6.684   1.588
26013WAT     H278282   4.246   6.823   1.633
26014WAT      O78283   1.766   3.263   9.479
26014WAT     H178284   1.807   3.282   9.390
26014WAT     H278285   1.735   3.167   9.481
26015WAT      O78286   9.003   0.263   2.831
26015WAT     H178287   8.918   0.298   2.794
26015WAT     H278288   8.995   0.164   2.844
26016WAT      O78289   5.189   7.648   9.247
26016WAT     H178290   5.132   7.715   9.295
26016WAT     H278291   5.285   7.674   9.256
26017WAT      O78292   1.043   0.048   5.244
26017WAT     H178293   0.972  -0.023   5.243
26017WAT     H278294   1.055   0.081   5.338
26018WAT      O78295   5.754   6.422   1.674
26018WAT     H178296   5.837   6.456   1.718
26018WAT     H278297   5.711   6.498   1.624
26019WAT      O78298   8.920   2.367   8.103
26019WAT     H178299   8.879   2.386   8.193
26019WAT     H278300   8.907   2.446   8.043
26020WAT      O78301   1.263   0.088   4.686
26020WAT     H178302   1.225   0.073   4.595
26020WAT     H278303   1.190   0.115   4.749
26021WAT      O78304   8.137   4.325   2.935
26021WAT     H178305   8.081   4.243   2.944
26021WAT     H278306   8.094   4.400   2.984
26022WAT      O78307   5.879   2.903   8.440
26022WAT     H178308   5.900   2.947   8.528
26022WAT     H278309   5.886   2.971   8.367
26023WAT      O78310   5.482   1.772   1.789
26023WAT     H178311   5.396   1.723   1.805
26023WAT     H278312   5.464   1.851   1.730
26024WAT      O78313   8.321   0.801   4.212
26024WAT     H178314   8.383   0.873   4.244
26024WAT     H278315   8.248   0.787   4.279
26025WAT      O78316   8.820   6.520   3.254
26025WAT     H178317   8.859   6.577   3.181
26025WAT     H278318   8.857   6.549   3.342
26026WAT      O78319   2.386   0.566   7.687
26026WAT     H178320   2.410   0.513   7.605
26026WAT     H278321   2.322   0.514   7.743
26027WAT      O78322   8.583   1.706   7.840
26027WAT     H178323   8.550   1.627   7.788
26027WAT     H278324   8.548   1.701   7.933
26028WAT      O78325   2.371   7.167   4.397
26028WAT     H178326   2.351   7.069   4.401
26028WAT     H278327   2.352   7.201   4.305
26029WAT      O78328   7.171   0.316   0.814
26029WAT     H178329   7.224   0.291   0.732
26029WAT     H278330   7.230   0.309   0.894
26030WAT      O78331   7.093   9.494   3.160
26030WAT     H178332   7.134   9.582   3.187
26030WAT     H278333   7.164   9.424   3.159
26031WAT      O78334   3.614   3.794   1.812
26031WAT     H178335   3.524   3.810   1.772
26031WAT     H278336   3.611   3.714   1.872
26032WAT      O78337   8.259   2.628   0.780
26032WAT     H178338   8.177   2.573   0.762
26032WAT     H278339   8.268   2.698   0.709
26033WAT      O78340   5.694   4.879   4.171
26033WAT     H178341   5.772   4.884   4.109
26033WAT     H278342   5.613   4.850   4.121
26034WAT      O78343   9.611   8.016   5.007
26034WAT     H178344   9.561   8.032   4.921
26034WAT     H278345   9.662   8.098   5.031
26035WAT      O78346   9.825   3.337   4.098
26035WAT     H178347   9.804   3.330   4.196
26035WAT     H278348   9.765   3.276   4.046
26036WAT      O78349   2.152   5.940   6.326
26036WAT     H178350   2.158   6.029   6.372
26036WAT     H278351   2.071   5.891   6.359
26037WAT      O78352   0.732   7.294   4.060
26037WAT     H178353   0.661   7.300   3.990
26037WAT     H278354   0.692   7.260   4.145
26038WAT      O78355   5.017   3.953   2.542
26038WAT     H178356   5.063   3.982   2.626
26038WAT     H278357   5.031   3.855   2.528
26039WAT      O78358   0.371   5.917   6.037
26039WAT     H178359   0.451   5.906   6.096
26039WAT     H278360   0.397   5.967   5.955
26040WAT      O78361   6.381   5.825   4.771
26040WAT     H178362   6.397   5.879   4.854
26040WAT     H278363   6.286   5.793   4.770
26041WAT      O78364   3.269   0.393   5.965
26041WAT     H178365   3.320   0.426   5.885
26041WAT     H278366   3.332   0.345   6.026
26042WAT      O78367   4.289   7.670   9.673
26042WAT     H178368   4.367   7.728   9.694
26042WAT     H278369   4.303   7.579   9.713
26043WAT      O78370   4.391   3.347   9.278
26043WAT     H178371   4.491   3.357   9.279
26043WAT     H278372   4.364   3.271   9.337
26044WAT      O78373   5.452   6.221   8.426
26044WAT     H178374   5.502   6.275   8.359
26044WAT     H278375   5.445   6.272   8.512
26045WAT      O78376   8.067   6.883   7.984
26045WAT     H178377   8.143   6.825   7.954
26045WAT     H278378   8.104   6.972   8.013
26046WAT      O78379   7.542   1.234   0.245
26046WAT     H178380   7.477   1.218   0.319
26046WAT     H278381   7.633   1.204   0.274
26047WAT      O78382   2.102   5.035   1.349
26047WAT     H178383   2.145   5.059   1.436
26047WAT     H278384   2.169   4.987   1.291
26048WAT      O78385   0.062   9.822   6.390
26048WAT     H178386   0.133   9.809   6.320
26048WAT     H278387   0.019   9.911   6.377
26049WAT      O78388   9.860   5.906   1.452
26049WAT     H178389   9.777   5.902   1.509
26049WAT     H278390   9.840   5.958   1.369
26050WAT      O78391   1.966   5.647   6.898
26050WAT     H178392   1.901   5.573   6.913
26050WAT     H278393   1.973   5.703   6.981
26051WAT      O78394   8.969   1.965   8.036
26051WAT     H178395   8.919   1.954   7.950
26051WAT     H278396   8.906   1.998   8.106
26052WAT      O78397   4.790   0.124   7.047
26052WAT     H178398   4.695   0.109   7.074
26052WAT     H278399   4.849   0.056   7.091
26053WAT      O78400   4.992   2.749   0.480
26053WAT     H178401   4.956   2.773   0.570
26053WAT     H278402   4.986   2.650   0.467
26054WAT      O78403   7.034   9.566   2.727
26054WAT     H178404   6.937   9.588   2.712
26054WAT     H278405   7.063   9.498   2.660
26055WAT      O78406   7.499   6.284   5.696
26055WAT     H178407   7.494   6.273   5.795
26055WAT     H278408   7.539   6.373   5.674
26056WAT      O78409   7.178   5.442   5.245
26056WAT     H178410   7.116   5.516   5.271
26056WAT     H278411   7.127   5.369   5.201
26057WAT      O78412   9.691   3.049   7.977
26057WAT     H178413   9.750   2.992   7.921
26057WAT     H278414   9.695   3.019   8.072
26058WAT      O78415   8.296   0.230   8.961
26058WAT     H178416   8.268   0.250   9.055
26058WAT     H278417   8.337   0.139   8.958
26059WAT      O78418   7.173   1.316   7.800
26059WAT     H178419   7.074   1.325   7.812
26059WAT     H278420   7.192   1.255   7.723
26060WAT      O78421   9.455   6.976   8.444
26060WAT     H178422   9.536   7.022   8.408
26060WAT     H278423   9.449   6.885   8.404
26061WAT      O78424   1.243   7.254   1.739
26061WAT     H178425   1.322   7.315   1.731
26061WAT     H278426   1.161   7.308   1.757
26062WAT      O78427   4.459   3.914   8.522
26062WAT     H178428   4.383   3.867   8.478
26062WAT     H278429   4.427   4.002   8.558
26063WAT      O78430   7.373   1.243   6.642
26063WAT     H178431   7.451   1.306   6.653
26063WAT     H278432   7.362   1.189   6.725
26064WAT      O78433   8.647   4.677   4.590
26064WAT     H178434   8.715   4.698   4.659
26064WAT     H278435   8.632   4.758   4.533
26065WAT      O78436   6.810   4.426   4.940
26065WAT     H178437   6.806   4.523   4.916
26065WAT     H278438   6.719   4.396   4.971
26066WAT      O78439   7.920   1.418   0.671
26066WAT     H178440   7.867   1.422   0.586
26066WAT     H278441   7.924   1.323   0.704
26067WAT      O78442   5.045   6.261   3.793
26067WAT     H178443   5.034   6.271   3.694
26067WAT     H278444   5.116   6.193   3.812
26068WAT      O78445   7.063   6.297   0.214
26068WAT     H178446   7.036   6.351   0.134
26068WAT     H278447   7.139   6.236   0.189
26069WAT      O78448   1.071   7.482   2.964
26069WAT     H178449   1.076   7.562   3.024
26069WAT     H278450   1.061   7.512   2.869
26070WAT      O78451   1.542   1.601   6.214
26070WAT     H178452   1.572   1.638   6.302
26070WAT     H278453   1.442   1.595   6.213
26071WAT      O78454   3.524   2.373   8.135
26071WAT     H178455   3.607   2.399   8.184
26071WAT     H278456   3.499   2.279   8.158
26072WAT      O78457   6.707   5.214   3.972
26072WAT     H178458   6.695   5.244   3.877
26072WAT     H278459   6.673   5.284   4.034
26073WAT      O78460   1.265   9.236   4.896
26073WAT     H178461   1.313   9.309   4.846
26073WAT     H278462   1.318   9.211   4.976
26074WAT      O78463   3.155   3.548   4.486
26074WAT     H178464   3.207   3.559   4.571
26074WAT     H278465   3.115   3.456   4.485
26075WAT      O78466   6.452   6.024   1.247
26075WAT     H178467   6.415   5.947   1.195
26075WAT     H278468   6.525   5.992   1.307
26076WAT      O78469   3.074   9.231   9.651
26076WAT     H178470   3.166   9.238   9.691
26076WAT     H278471   3.018   9.171   9.707
26077WAT      O78472   8.792   9.037   6.972
26077WAT     H178473   8.828   8.953   6.932
26077WAT     H278474   8.835   9.053   7.061
26078WAT      O78475   2.306   4.707   6.433
26078WAT     H178476   2.367   4.646   6.485
26078WAT     H278477   2.339   4.714   6.339
26079WAT      O78478   1.690   5.100   4.363
26079WAT     H178479   1.648   5.076   4.450
26079WAT     H278480   1.787   5.078   4.365
26080WAT      O78481   7.670   3.866   7.337
26080WAT     H178482   7.688   3.775   7.374
26080WAT     H278483   7.755   3.919   7.338
26081WAT      O78484   2.772   5.081   7.012
26081WAT     H178485   2.741   5.050   7.102
26081WAT     H278486   2.870   5.063   7.002
26082WAT      O78487   0.074   8.979   1.230
26082WAT     H178488   0.091   8.889   1.271
26082WAT     H278489  -0.001   8.972   1.165
26083WAT      O78490   8.603   0.157   3.553
26083WAT     H178491   8.682   0.095   3.560
26083WAT     H278492   8.561   0.167   3.643
26084WAT      O78493   1.259   4.806   6.212
26084WAT     H178494   1.226   4.893   6.248
26084WAT     H278495   1.182   4.743   6.203
26085WAT      O78496   1.745   7.907   1.180
26085WAT     H178497   1.695   7.823   1.158
26085WAT     H278498   1.773   7.905   1.276
26086WAT      O78499   6.308   3.174   8.026
26086WAT     H178500   6.276   3.266   8.052
26086WAT     H278501   6.337   3.174   7.931
26087WAT      O78502   0.434   0.987   2.771
26087WAT     H178503   0.381   0.902   2.764
26087WAT     H278504   0.505   0.988   2.700
26088WAT      O78505   1.433   6.225   0.587
26088WAT     H178506   1.335   6.243   0.586
26088WAT     H278507   1.458   6.185   0.675
26089WAT      O78508   4.819   5.271   9.430
26089WAT     H178509   4.757   5.255   9.507
26089WAT     H278510   4.877   5.190   9.416
26090WAT      O78511   8.847   2.770   0.329
26090WAT     H178512   8.852   2.865   0.359
26090WAT     H278513   8.777   2.722   0.382
26091WAT      O78514   4.799   9.224   7.346
26091WAT     H178515   4.750   9.287   7.405
26091WAT     H278516   4.735   9.177   7.286
26092WAT      O78517   4.443   3.184   4.314
26092WAT     H178518   4.364   3.157   4.258
26092WAT     H278519   4.516   3.116   4.302
26093WAT      O78520   3.248   4.199   5.187
26093WAT     H178521   3.346   4.205   5.169
26093WAT     H278522   3.233   4.175   5.283
26094WAT      O78523   7.959   7.538   6.998
26094WAT     H178524   8.028   7.493   7.055
26094WAT     H278525   7.997   7.556   6.907
26095WAT      O78526   3.088   3.471   4.044
26095WAT     H178527   3.187   3.474   4.062
26095WAT     H278528   3.038   3.468   4.130
26096WAT      O78529   4.305   4.166   9.197
26096WAT     H178530   4.255   4.192   9.114
26096WAT     H278531   4.247   4.108   9.254
26097WAT      O78532   8.994   0.049   0.569
26097WAT     H178533   8.969   0.073   0.475
26097WAT     H278534   8.967   0.123   0.630
26098WAT      O78535   0.147   0.527   3.665
26098WAT     H178536   0.192   0.583   3.595
26098WAT     H278537   0.120   0.584   3.742
26099WAT      O78538   8.035   6.322   4.142
26099WAT     H178539   8.065   6.323   4.238
26099WAT     H278540   8.011   6.229   4.116
26100WAT      O78541   0.185   0.645   9.186
26100WAT     H178542   0.189   0.562   9.130
26100WAT     H278543   0.242   0.633   9.267
26101WAT      O78544   1.348   7.164   0.600
26101WAT     H178545   1.295   7.248   0.612
26101WAT     H278546   1.418   7.158   0.672
26102WAT      O78547   5.306   3.227   3.042
26102WAT     H178548   5.373   3.157   3.068
26102WAT     H278549   5.342   3.317   3.065
26103WAT      O78550   0.672   2.308   6.036
26103WAT     H178551   0.684   2.369   5.958
26103WAT     H278552   0.577   2.309   6.066
26104WAT      O78553   4.590   4.940   3.324
26104WAT     H178554   4.615   4.846   3.304
26104WAT     H278555   4.643   5.002   3.265
26105WAT      O78556   7.373   6.813   0.483
26105WAT     H178557   7.347   6.900   0.524
26105WAT     H278558   7.405   6.827   0.389
26106WAT      O78559   1.109   3.374   7.000
26106WAT     H178560   1.182   3.439   6.977
26106WAT     H278561   1.026   3.398   6.948
26107WAT      O78562   9.161   6.103   2.353
26107WAT     H178563   9.213   6.028   2.312
26107WAT     H278564   9.153   6.087   2.452
26108WAT      O78565   9.817   3.255   3.786
26108WAT     H178566   9.810   3.355   3.789
26108WAT     H278567   9.896   3.226   3.840
26109WAT      O78568   2.572   1.949   2.655
26109WAT     H178569   2.510   2.014   2.609
26109WAT     H278570   2.572   1.863   2.605
26110WAT      O78571   0.023   4.479   6.657
26110WAT     H178572  -0.034   4.560   6.649
26110WAT     H278573   0.118   4.503   6.634
26111WAT      O78574   5.106   6.081   5.863
26111WAT     H178575   5.072   6.172   5.885
26111WAT     H278576   5.205   6.079   5.876
26112WAT      O78577   6.798   7.547   2.921
26112WAT     H178578   6.807   7.492   3.004
26112WAT     H278579   6.888   7.579   2.891
26113WAT      O78580   3.263   8.426   1.496
26113WAT     H178581   3.265   8.524   1.478
26113WAT     H278582   3.191   8.383   1.441
26114WAT      O78583   5.981   8.043   5.804
26114WAT     H178584   5.935   8.059   5.717
26114WAT     H278585   5.983   8.128   5.857
26115WAT      O78586   7.164   6.519   5.930
26115WAT     H178587   7.195   6.488   6.019
26115WAT     H278588   7.150   6.618   5.931
26116WAT      O78589   4.125   1.822   3.796
26116WAT     H178590   4.208   1.813   3.741
26116WAT     H278591   4.125   1.755   3.869
26117WAT      O78592   6.875   2.775   3.088
26117WAT     H178593   6.846   2.781   2.993
26117WAT     H278594   6.974   2.756   3.092
26118WAT      O78595   0.571   5.840   1.545
26118WAT     H178596   0.622   5.769   1.497
26118WAT     H278597   0.603   5.930   1.515
26119WAT      O78598   5.389   4.405   6.586
26119WAT     H178599   5.479   4.422   6.547
26119WAT     H278600   5.396   4.340   6.662
26120WAT      O78601   4.228   8.170   9.602
26120WAT     H178602   4.208   8.266   9.582
26120WAT     H278603   4.215   8.153   9.700
26121WAT      O78604   4.147   8.784   0.656
26121WAT     H178605   4.158   8.704   0.598
26121WAT     H278606   4.084   8.763   0.731
26122WAT      O78607   2.380   2.614   1.797
26122WAT     H178608   2.368   2.516   1.785
26122WAT     H278609   2.474   2.639   1.774
26123WAT      O78610   7.444   6.655   3.685
26123WAT     H178611   7.460   6.753   3.680
26123WAT     H278612   7.405   6.632   3.774
26124WAT      O78613   0.925   9.801   9.411
26124WAT     H178614   0.956   9.710   9.384
26124WAT     H278615   0.893   9.799   9.506
26125WAT      O78616   9.440   5.589   5.166
26125WAT     H178617   9.431   5.671   5.111
26125WAT     H278618   9.480   5.612   5.255
26126WAT      O78619   0.854   0.351   0.290
26126WAT     H178620   0.877   0.440   0.329
26126WAT     H278621   0.756   0.346   0.273
26127WAT      O78622   1.908   3.909   7.835
26127WAT     H178623   1.823   3.942   7.793
26127WAT     H278624   1.986   3.959   7.796
26128WAT      O78625   7.037   5.366   3.594
26128WAT     H178626   6.939   5.383   3.605
26128WAT     H278627   7.081   5.446   3.553
26129WAT      O78628   1.320   5.281   5.536
26129WAT     H178629   1.275   5.192   5.544
26129WAT     H278630   1.252   5.352   5.521
26130WAT      O78631   8.388   2.194   6.727
26130WAT     H178632   8.346   2.179   6.637
26130WAT     H278633   8.409   2.106   6.770
26131WAT      O78634   2.859   4.409   9.845
26131WAT     H178635   2.931   4.454   9.793
26131WAT     H278636   2.842   4.460   9.929
26132WAT      O78637   1.706   7.422   3.709
26132WAT     H178638   1.681   7.335   3.665
26132WAT     H278639   1.804   7.423   3.727
26133WAT      O78640   6.707   2.759   4.395
26133WAT     H178641   6.647   2.734   4.319
26133WAT     H278642   6.704   2.688   4.465
26134WAT      O78643   9.009   5.151   2.137
26134WAT     H178644   9.027   5.247   2.156
26134WAT     H278645   9.039   5.095   2.215
26135WAT      O78646   8.071   8.874   1.758
26135WAT     H178647   8.146   8.809   1.741
26135WAT     H278648   8.043   8.915   1.671
26136WAT      O78649   4.080   7.649   9.499
26136WAT     H178650   3.990   7.667   9.538
26136WAT     H278651   4.150   7.664   9.568
26137WAT      O78652   4.646   5.382   8.597
26137WAT     H178653   4.730   5.432   8.574
26137WAT     H278654   4.592   5.368   8.514
26138WAT      O78655   3.519   3.067   4.983
26138WAT     H178656   3.466   3.148   4.958
26138WAT     H278657   3.609   3.095   5.014
26139WAT      O78658   4.447   6.626   1.477
26139WAT     H178659   4.423   6.643   1.382
26139WAT     H278660   4.498   6.540   1.484
26140WAT      O78661   5.018   6.469   5.110
26140WAT     H178662   4.946   6.481   5.041
26140WAT     H278663   4.976   6.438   5.196
26141WAT      O78664   1.460   6.270   0.964
26141WAT     H178665   1.443   6.182   0.919
26141WAT     H278666   1.500   6.254   1.054
26142WAT      O78667   7.200   3.630   0.551
26142WAT     H178668   7.103   3.653   0.551
26142WAT     H278669   7.234   3.631   0.646
26143WAT      O78670   2.252   0.892   7.843
26143WAT     H178671   2.325   0.959   7.836
26143WAT     H278672   2.204   0.885   7.755
26144WAT      O78673   4.175   2.591   1.772
26144WAT     H178674   4.099   2.640   1.729
26144WAT     H278675   4.244   2.656   1.802
26145WAT      O78676   1.791   1.642   7.292
26145WAT     H178677   1.782   1.580   7.370
26145WAT     H278678   1.838   1.596   7.217
26146WAT      O78679   4.920   2.305   0.042
26146WAT     H178680   5.002   2.247   0.037
26146WAT     H278681   4.948   2.399   0.062
26147WAT      O78682   2.665   0.454   7.650
26147WAT     H178683   2.611   0.419   7.726
26147WAT     H278684   2.755   0.413   7.651
26148WAT      O78685   5.537   8.317   9.818
26148WAT     H178686   5.465   8.337   9.886
26148WAT     H278687   5.494   8.290   9.732
26149WAT      O78688   9.736   1.723   1.008
26149WAT     H178689   9.778   1.634   0.989
26149WAT     H278690   9.766   1.756   1.098
26150WAT      O78691   0.752   2.555   6.285
26150WAT     H178692   0.812   2.634   6.273
26150WAT     H278693   0.737   2.511   6.196
26151WAT      O78694   9.882   4.192   9.574
26151WAT     H178695   9.869   4.275   9.627
26151WAT     H278696   9.844   4.205   9.482
26152WAT      O78697   7.378   5.539   6.618
26152WAT     H178698   7.450   5.588   6.570
26152WAT     H278699   7.370   5.446   6.581
26153WAT      O78700   4.226   7.478   4.942
26153WAT     H178701   4.157   7.416   4.980
26153WAT     H278702   4.233   7.463   4.843
26154WAT      O78703   8.251   3.893   4.774
26154WAT     H178704   8.246   3.912   4.676
26154WAT     H278705   8.287   3.974   4.821
26155WAT      O78706   1.246   1.641   0.385
26155WAT     H178707   1.323   1.693   0.422
26155WAT     H278708   1.181   1.620   0.458
26156WAT      O78709   2.149   0.023   5.479
26156WAT     H178710   2.214   0.095   5.452
26156WAT     H278711   2.056   0.060   5.481
26157WAT      O78712   8.128   8.827   4.781
26157WAT     H178713   8.084   8.895   4.722
26157WAT     H278714   8.059   8.781   4.836
26158WAT      O78715   0.545   0.229   1.038
26158WAT     H178716   0.590   0.297   0.980
26158WAT     H278717   0.589   0.140   1.024
26159WAT      O78718   7.938   7.609   1.423
26159WAT     H178719   7.967   7.514   1.414
26159WAT     H278720   8.002   7.659   1.481
26160WAT      O78721   5.764   0.375   2.686
26160WAT     H178722   5.709   0.360   2.603
26160WAT     H278723   5.743   0.465   2.724
26161WAT      O78724   4.369   3.103   3.538
26161WAT     H178725   4.354   3.070   3.631
26161WAT     H278726   4.436   3.045   3.492
26162WAT      O78727   5.668   4.351   1.494
26162WAT     H178728   5.759   4.331   1.533
26162WAT     H278729   5.610   4.392   1.565
26163WAT      O78730   8.670   6.041   4.448
26163WAT     H178731   8.590   6.016   4.393
26163WAT     H278732   8.643   6.104   4.520
26164WAT      O78733   3.551   8.945   4.967
26164WAT     H178734   3.501   9.024   4.933
26164WAT     H278735   3.594   8.896   4.891
26165WAT      O78736   9.847   5.992   0.675
26165WAT     H178737   9.932   6.004   0.625
26165WAT     H278738   9.841   5.898   0.710
26166WAT      O78739   4.017   1.128   3.556
26166WAT     H178740   4.046   1.223   3.544
26166WAT     H278741   3.928   1.115   3.512
26167WAT      O78742   6.210   4.655   0.235
26167WAT     H178743   6.188   4.711   0.315
26167WAT     H278744   6.166   4.693   0.154
26168WAT      O78745   7.868   7.402   8.945
26168WAT     H178746   7.874   7.435   9.039
26168WAT     H278747   7.951   7.352   8.921
26169WAT      O78748   7.250   0.719   1.081
26169WAT     H178749   7.199   0.713   0.995
26169WAT     H278750   7.336   0.767   1.066
26170WAT      O78751   4.843   7.192   5.861
26170WAT     H178752   4.829   7.094   5.846
26170WAT     H278753   4.772   7.226   5.922
26171WAT      O78754   8.065   3.410   2.987
26171WAT     H178755   8.114   3.491   2.954
26171WAT     H278756   8.045   3.350   2.910
26172WAT      O78757   0.999   5.201   0.642
26172WAT     H178758   0.965   5.294   0.628
26172WAT     H278759   1.054   5.173   0.563
26173WAT      O78760   2.523   8.827   9.199
26173WAT     H178761   2.542   8.920   9.167
26173WAT     H278762   2.605   8.771   9.191
26174WAT      O78763   2.168   3.184   2.961
26174WAT     H178764   2.136   3.092   2.982
26174WAT     H278765   2.119   3.219   2.880
26175WAT      O78766   7.765   7.131   4.958
26175WAT     H178767   7.834   7.176   4.902
26175WAT     H278768   7.699   7.083   4.900
26176WAT      O78769   3.121   4.257   6.687
26176WAT     H178770   3.201   4.210   6.651
26176WAT     H278771   3.046   4.192   6.697
26177WAT      O78772   7.327   3.493   0.323
26177WAT     H178773   7.332   3.539   0.235
26177WAT     H278774   7.287   3.554   0.391
26178WAT      O78775   9.183   9.372   0.812
26178WAT     H178776   9.248   9.439   0.847
26178WAT     H278777   9.207   9.348   0.718
26179WAT      O78778   3.424   9.437   2.752
26179WAT     H178779   3.366   9.357   2.737
26179WAT     H278780   3.447   9.443   2.849
26180WAT      O78781   7.096   5.087   5.426
26180WAT     H178782   7.112   5.024   5.350
26180WAT     H278783   7.039   5.043   5.495
26181WAT      O78784   9.119   8.966   2.043
26181WAT     H178785   9.205   9.014   2.031
26181WAT     H278786   9.098   8.958   2.140
26182WAT      O78787   3.864   4.749   9.836
26182WAT     H178788   3.956   4.759   9.798
26182WAT     H278789   3.866   4.687   9.914
26183WAT      O78790   1.806   4.702   7.498
26183WAT     H178791   1.883   4.639   7.513
26183WAT     H278792   1.743   4.663   7.431
26184WAT      O78793   1.722   7.751   1.654
26184WAT     H178794   1.727   7.820   1.582
26184WAT     H278795   1.723   7.796   1.743
26185WAT      O78796   9.029   5.506   0.611
26185WAT     H178797   8.937   5.539   0.630
26185WAT     H278798   9.028   5.406   0.602
26186WAT      O78799   4.442   4.021   9.457
26186WAT     H178800   4.375   3.970   9.404
26186WAT     H278801   4.515   4.052   9.396
26187WAT      O78802   8.239   6.345   2.164
26187WAT     H178803   8.249   6.407   2.086
26187WAT     H278804   8.212   6.397   2.244
26188WAT      O78805   0.473   5.453   2.873
26188WAT     H178806   0.452   5.535   2.820
26188WAT     H278807   0.563   5.418   2.846
26189WAT      O78808   4.679   1.283   7.963
26189WAT     H178809   4.620   1.295   7.883
26189WAT     H278810   4.737   1.364   7.975
26190WAT      O78811   9.688   3.440   8.527
26190WAT     H178812   9.634   3.524   8.536
26190WAT     H278813   9.695   3.415   8.431
26191WAT      O78814   2.248   7.250   7.233
26191WAT     H178815   2.157   7.286   7.255
26191WAT     H278816   2.252   7.228   7.136
26192WAT      O78817   8.139   8.248   1.880
26192WAT     H178818   8.107   8.185   1.951
26192WAT     H278819   8.177   8.196   1.804
26193WAT      O78820   0.515   0.366   7.505
26193WAT     H178821   0.516   0.322   7.415
26193WAT     H278822   0.433   0.424   7.513
26194WAT      O78823   0.036   1.080   8.595
26194WAT     H178824   0.089   1.008   8.550
26194WAT     H278825  -0.020   1.040   8.668
26195WAT      O78826   6.430   9.480   5.474
26195WAT     H178827   6.359   9.419   5.506
26195WAT     H278828   6.393   9.542   5.405
26196WAT      O78829   8.108   0.332   8.556
26196WAT     H178830   8.125   0.297   8.648
26196WAT     H278831   8.044   0.272   8.508
26197WAT      O78832   6.743   1.561   6.509
26197WAT     H178833   6.797   1.640   6.535
26197WAT     H278834   6.738   1.498   6.587
26198WAT      O78835   2.976   1.655   5.293
26198WAT     H178836   2.914   1.681   5.219
26198WAT     H278837   3.069   1.683   5.271
26199WAT      O78838   7.380   0.328   1.027
26199WAT     H178839   7.343   0.348   1.118
26199WAT     H278840   7.451   0.395   1.004
26200WAT      O78841   0.499   4.507   8.850
26200WAT     H178842   0.575   4.561   8.886
26200WAT     H278843   0.529   4.460   8.767
26201WAT      O78844   1.536   1.724   2.836
26201WAT     H178845   1.605   1.796   2.824
26201WAT     H278846   1.447   1.758   2.807
26202WAT      O78847   5.545   3.539   0.674
26202WAT     H178848   5.478   3.503   0.739
26202WAT     H278849   5.497   3.587   0.600
26203WAT      O78850   2.287   3.271   7.433
26203WAT     H178851   2.318   3.190   7.482
26203WAT     H278852   2.344   3.349   7.459
26204WAT      O78853   1.782   1.525   6.030
26204WAT     H178854   1.760   1.483   6.118
26204WAT     H278855   1.850   1.470   5.982
26205WAT      O78856   8.847   6.674   2.621
26205WAT     H178857   8.909   6.750   2.600
26205WAT     H278858   8.890   6.613   2.687
26206WAT      O78859   1.147   8.648   3.024
26206WAT     H178860   1.122   8.554   3.048
26206WAT     H278861   1.209   8.646   2.945
26207WAT      O78862   3.125   3.862   5.307
26207WAT     H178863   3.067   3.904   5.377
26207WAT     H278864   3.220   3.883   5.327
26208WAT      O78865   0.391   1.165   9.464
26208WAT     H178866   0.320   1.226   9.429
26208WAT     H278867   0.440   1.211   9.538
26209WAT      O78868   2.506   0.385   6.213
26209WAT     H178869   2.578   0.434   6.163
26209WAT     H278870   2.487   0.299   6.168
26210WAT      O78871   9.826   5.509   7.764
26210WAT     H178872   9.887   5.442   7.806
26210WAT     H278873   9.860   5.534   7.673
26211WAT      O78874   8.706   8.942   8.034
26211WAT     H178875   8.800   8.922   8.062
26211WAT     H278876   8.690   8.903   7.943
26212WAT      O78877   9.442   4.339   5.268
26212WAT     H178878   9.439   4.372   5.362
26212WAT     H278879   9.354   4.297   5.245
26213WAT      O78880   5.373   1.276   0.666
26213WAT     H178881   5.331   1.274   0.757
26213WAT     H278882   5.380   1.183   0.630
26214WAT      O78883   6.129   6.391   9.706
26214WAT     H178884   6.052   6.331   9.683
26214WAT     H278885   6.213   6.338   9.710
26215WAT      O78886   2.638   4.138   4.886
26215WAT     H178887   2.721   4.193   4.892
26215WAT     H278888   2.600   4.144   4.794
26216WAT      O78889   3.541   7.301   6.321
26216WAT     H178890   3.583   7.245   6.392
26216WAT     H278891   3.478   7.366   6.363
26217WAT      O78892   6.419   3.456   9.492
26217WAT     H178893   6.334   3.471   9.440
26217WAT     H278894   6.497   3.488   9.437
26218WAT      O78895   6.746   4.855   9.330
26218WAT     H178896   6.753   4.899   9.241
26218WAT     H278897   6.678   4.903   9.386
26219WAT      O78898   6.029   2.315   2.395
26219WAT     H178899   5.982   2.258   2.328
26219WAT     H278900   5.976   2.398   2.412
26220WAT      O78901   4.162   4.568   8.341
26220WAT     H178902   4.173   4.476   8.303
26220WAT     H278903   4.215   4.576   8.426
26221WAT      O78904   1.619   7.265   5.738
26221WAT     H178905   1.607   7.220   5.650
26221WAT     H278906   1.533   7.308   5.767
26222WAT      O78907   8.272   4.085   1.761
26222WAT     H178908   8.266   4.074   1.860
26222WAT     H278909   8.365   4.068   1.731
26223WAT      O78910   3.066   7.073   3.367
26223WAT     H178911   2.987   7.127   3.396
26223WAT     H278912   3.134   7.134   3.326
26224WAT      O78913   6.462   7.213   9.566
26224WAT     H178914   6.533   7.145   9.548
26224WAT     H278915   6.466   7.241   9.662
26225WAT      O78916   5.444   4.574   9.875
26225WAT     H178917   5.415   4.663   9.837
26225WAT     H278918   5.367   4.532   9.923
26226WAT      O78919   5.246   7.821   7.330
26226WAT     H178920   5.171   7.776   7.281
26226WAT     H278921   5.292   7.754   7.389
26227WAT      O78922   1.528   3.736   0.933
26227WAT     H178923   1.460   3.766   1.000
26227WAT     H278924   1.504   3.645   0.900
26228WAT      O78925   0.721   2.024   5.979
26228WAT     H178926   0.702   2.110   6.026
26228WAT     H278927   0.695   2.033   5.883
26229WAT      O78928   6.366   0.756   1.585
26229WAT     H178929   6.294   0.750   1.516
26229WAT     H278930   6.455   0.739   1.542
26230WAT      O78931   1.261   0.775   8.731
26230WAT     H178932   1.315   0.703   8.688
26230WAT     H278933   1.164   0.751   8.727
26231WAT      O78934   1.279   0.716   8.288
26231WAT     H178935   1.185   0.714   8.323
26231WAT     H278936   1.313   0.810   8.291
26232WAT      O78937   5.554   7.097   1.557
26232WAT     H178938   5.494   7.074   1.481
26232WAT     H278939   5.500   7.142   1.629
26233WAT      O78940   9.624   4.576   7.802
26233WAT     H178941   9.685   4.652   7.821
26233WAT     H278942   9.677   4.493   7.786
26234WAT      O78943   8.258   0.795   0.211
26234WAT     H178944   8.297   0.815   0.122
26234WAT     H278945   8.332   0.776   0.276
26235WAT      O78946   5.068   7.388   4.556
26235WAT     H178947   5.047   7.485   4.562
26235WAT     H278948   5.055   7.357   4.462
26236WAT      O78949   7.848   9.327   1.992
26236WAT     H178950   7.828   9.255   1.926
26236WAT     H278951   7.772   9.335   2.057
26237WAT      O78952   2.173   4.641   4.896
26237WAT     H178953   2.172   4.571   4.825
26237WAT     H278954   2.104   4.711   4.875
26238WAT      O78955   2.583   9.118   9.152
26238WAT     H178956   2.654   9.139   9.086
26238WAT     H278957   2.497   9.159   9.123
26239WAT      O78958   8.176   4.159   0.529
26239WAT     H178959   8.199   4.215   0.609
26239WAT     H278960   8.134   4.073   0.560
26240WAT      O78961   5.259   9.329   6.688
26240WAT     H178962   5.174   9.334   6.635
26240WAT     H278963   5.262   9.404   6.754
26241WAT      O78964   4.415   1.857   3.958
26241WAT     H178965   4.357   1.927   3.999
26241WAT     H278966   4.361   1.774   3.942
26242WAT      O78967   5.131   9.307   2.006
26242WAT     H178968   5.168   9.291   2.098
26242WAT     H278969   5.037   9.339   2.012
26243WAT      O78970   9.001   8.380   8.213
26243WAT     H178971   8.923   8.391   8.152
26243WAT     H278972   9.079   8.433   8.177
26244WAT      O78973   7.292   8.979   4.104
26244WAT     H178974   7.388   8.966   4.077
26244WAT     H278975   7.234   8.917   4.051
26245WAT      O78976   7.453   7.648   9.272
26245WAT     H178977   7.410   7.696   9.348
26245WAT     H278978   7.393   7.650   9.192
26246WAT      O78979   7.277   6.566   4.262
26246WAT     H178980   7.299   6.639   4.197
26246WAT     H278981   7.189   6.586   4.306
26247WAT      O78982   0.688   5.832   0.352
26247WAT     H178983   0.662   5.738   0.373
26247WAT     H278984   0.637   5.864   0.272
26248WAT      O78985   2.329   2.157   4.827
26248WAT     H178986   2.316   2.066   4.866
26248WAT     H278987   2.243   2.209   4.836
26249WAT      O78988   4.971   3.008   0.073
26249WAT     H178989   4.908   3.011   0.151
26249WAT     H278990   4.921   2.980  -0.009
26250WAT      O78991   8.625   9.392   3.785
26250WAT     H178992   8.614   9.484   3.823
26250WAT     H278993   8.537   9.345   3.784
26251WAT      O78994   2.662   3.220   8.519
26251WAT     H178995   2.603   3.295   8.488
26251WAT     H278996   2.624   3.133   8.489
26252WAT      O78997   5.041   9.176   8.276
26252WAT     H178998   5.035   9.272   8.304
26252WAT     H278999   5.081   9.122   8.351
26253WAT      O79000   6.460   3.019   8.631
26253WAT     H179001   6.560   3.018   8.634
26253WAT     H279002   6.429   3.108   8.598
26254WAT      O79003   1.258   1.004   1.661
26254WAT     H179004   1.246   0.925   1.721
26254WAT     H279005   1.169   1.033   1.626
26255WAT      O79006   6.751   0.725   4.554
26255WAT     H179007   6.810   0.677   4.488
26255WAT     H279008   6.719   0.661   4.623
26256WAT      O79009   6.574   8.475   1.973
26256WAT     H179010   6.644   8.462   2.043
26256WAT     H279011   6.504   8.403   1.982
26257WAT      O79012   4.108   0.763   8.077
26257WAT     H179013   4.036   0.815   8.121
26257WAT     H279014   4.155   0.706   8.144
26258WAT      O79015   8.498   1.116   7.475
26258WAT     H179016   8.595   1.093   7.486
26258WAT     H279017   8.490   1.205   7.432
26259WAT      O79018   0.914   1.313   9.180
26259WAT     H179019   0.820   1.305   9.213
26259WAT     H279020   0.918   1.290   9.083
26260WAT      O79021   7.776   6.346   8.171
26260WAT     H179022   7.809   6.270   8.227
26260WAT     H279023   7.707   6.398   8.222
26261WAT      O79024   2.720   4.179   1.161
26261WAT     H179025   2.669   4.264   1.160
26261WAT     H279026   2.675   4.112   1.220
26262WAT      O79027   5.907   8.514   7.441
26262WAT     H179028   5.934   8.422   7.470
26262WAT     H279029   5.811   8.529   7.464
26263WAT      O79030   2.808   6.687   2.871
26263WAT     H179031   2.767   6.708   2.783
26263WAT     H279032   2.800   6.589   2.890
26264WAT      O79033   6.242   2.116   0.461
26264WAT     H179034   6.276   2.075   0.546
26264WAT     H279035   6.188   2.047   0.411
26265WAT      O79036   4.552   1.603   9.729
26265WAT     H179037   4.566   1.555   9.815
26265WAT     H279038   4.522   1.697   9.746
26266WAT      O79039   2.086   2.162   2.484
26266WAT     H179040   2.050   2.157   2.576
26266WAT     H279041   2.012   2.184   2.420
26267WAT      O79042   0.577   4.990   8.109
26267WAT     H179043   0.561   4.959   8.015
26267WAT     H279044   0.592   5.089   8.110
26268WAT      O79045   7.730   8.689   6.980
26268WAT     H179046   7.708   8.675   7.076
26268WAT     H279047   7.741   8.787   6.962
26269WAT      O79048   6.708   7.906   7.419
26269WAT     H179049   6.799   7.885   7.384
26269WAT     H279050   6.640   7.853   7.368
26270WAT      O79051   3.133   1.784   2.799
26270WAT     H179052   3.063   1.753   2.862
26270WAT     H279053   3.197   1.709   2.780
26271WAT      O79054   7.966   1.241   7.238
26271WAT     H179055   7.892   1.291   7.192
26271WAT     H279056   7.929   1.194   7.319
26272WAT      O79057   2.175   2.419   4.344
26272WAT     H179058   2.110   2.345   4.364
26272WAT     H279059   2.127   2.507   4.348
26273WAT      O79060   8.227   4.834   1.550
26273WAT     H179061   8.161   4.908   1.537
26273WAT     H279062   8.320   4.870   1.538
26274WAT      O79063   6.804   6.243   4.661
26274WAT     H179064   6.804   6.285   4.751
26274WAT     H279065   6.784   6.145   4.669
26275WAT      O79066   1.350   5.119   2.487
26275WAT     H179067   1.393   5.031   2.465
26275WAT     H279068   1.261   5.125   2.442
26276WAT      O79069   6.487   6.690   0.993
26276WAT     H179070   6.431   6.744   1.055
26276WAT     H279071   6.529   6.614   1.043
26277WAT      O79072   1.980   9.128   7.010
26277WAT     H179073   1.886   9.150   6.983
26277WAT     H279074   2.024   9.209   7.049
26278WAT      O79075   9.545   4.452   8.878
26278WAT     H179076   9.496   4.458   8.965
26278WAT     H279077   9.570   4.357   8.860
26279WAT      O79078   1.683   0.476   3.539
26279WAT     H179079   1.701   0.419   3.459
26279WAT     H279080   1.710   0.571   3.520
26280WAT      O79081   6.280   1.365   7.247
26280WAT     H179082   6.271   1.267   7.266
26280WAT     H279083   6.347   1.404   7.310
26281WAT      O79084   1.649   8.081   2.247
26281WAT     H179085   1.647   8.015   2.321
26281WAT     H279086   1.575   8.062   2.183
26282WAT      O79087   4.853   1.477   6.019
26282WAT     H179088   4.897   1.410   6.079
26282WAT     H279089   4.924   1.534   5.976
26283WAT      O79090   5.099   3.043   5.607
26283WAT     H179091   5.185   3.014   5.649
26283WAT     H279092   5.040   2.963   5.595
26284WAT      O79093   9.290   7.817   9.554
26284WAT     H179094   9.238   7.896   9.521
26284WAT     H279095   9.383   7.820   9.517
26285WAT      O79096   0.107   6.045   2.274
26285WAT     H179097   0.147   5.966   2.321
26285WAT     H279098   0.008   6.046   2.289
26286WAT      O79099   1.036   8.938   8.722
26286WAT     H179100   1.010   8.841   8.716
26286WAT     H279101   0.993   8.988   8.647
26287WAT      O79102   0.827   9.386   9.530
26287WAT     H179103   0.768   9.332   9.589
26287WAT     H279104   0.803   9.369   9.434
26288WAT      O79105   5.694   1.822   3.192
26288WAT     H179106   5.772   1.834   3.253
26288WAT     H279107   5.720   1.763   3.115
26289WAT      O79108   7.811   9.108   2.978
26289WAT     H179109   7.822   9.032   2.913
26289WAT     H279110   7.893   9.164   2.979
26290WAT      O79111   8.630   7.347   1.342
26290WAT     H179112   8.532   7.333   1.334
26290WAT     H279113   8.648   7.425   1.401
26291WAT      O79114   2.279   0.780   7.035
26291WAT     H179115   2.293   0.717   6.958
26291WAT     H279116   2.273   0.874   7.001
26292WAT      O79117   7.823   6.530   1.060
26292WAT     H179118   7.804   6.432   1.057
26292WAT     H279119   7.741   6.581   1.035
26293WAT      O79120   9.089   3.935   5.876
26293WAT     H179121   9.098   3.872   5.798
26293WAT     H279122   9.004   3.987   5.866
26294WAT      O79123   6.457   8.395   7.076
26294WAT     H179124   6.417   8.327   7.014
26294WAT     H279125   6.459   8.484   7.031
26295WAT      O79126   0.459   6.725   5.428
26295WAT     H179127   0.489   6.646   5.375
26295WAT     H279128   0.459   6.702   5.525
26296WAT      O79129   7.270   0.625   4.321
26296WAT     H179130   7.192   0.667   4.274
26296WAT     H279131   7.261   0.525   4.317
26297WAT      O79132   1.342   4.247   3.427
26297WAT     H179133   1.440   4.258   3.409
26297WAT     H279134   1.311   4.158   3.392
26298WAT      O79135   6.323   8.866   0.395
26298WAT     H179136   6.376   8.781   0.396
26298WAT     H279137   6.372   8.935   0.449
26299WAT      O79138   5.414   2.195   5.736
26299WAT     H179139   5.409   2.108   5.785
26299WAT     H279140   5.359   2.264   5.783
26300WAT      O79141   1.891   3.095   5.974
26300WAT     H179142   1.985   3.060   5.979
26300WAT     H279143   1.860   3.089   5.879
26301WAT      O79144   1.345   4.665   0.626
26301WAT     H179145   1.368   4.735   0.693
26301WAT     H279146   1.256   4.625   0.650
26302WAT      O79147   0.992   8.346   8.991
26302WAT     H179148   0.911   8.339   8.934
26302WAT     H279149   1.025   8.441   8.991
26303WAT      O79150   9.050   8.527   0.724
26303WAT     H179151   8.987   8.537   0.801
26303WAT     H279152   9.068   8.430   0.708
26304WAT      O79153   3.059   8.043   8.232
26304WAT     H179154   3.047   8.014   8.327
26304WAT     H279155   3.105   7.971   8.180
26305WAT      O79156   3.617   4.020   2.664
26305WAT     H179157   3.657   4.066   2.585
26305WAT     H279158   3.650   4.063   2.748
26306WAT      O79159   2.898   2.104   6.056
26306WAT     H179160   2.972   2.115   5.989
26306WAT     H279161   2.935   2.111   6.148
26307WAT      O79162   7.484   7.871   1.400
26307WAT     H179163   7.508   7.938   1.329
26307WAT     H279164   7.395   7.894   1.439
26308WAT      O79165   0.309   8.379   5.350
26308WAT     H179166   0.229   8.424   5.391
26308WAT     H279167   0.377   8.361   5.422
26309WAT      O79168   3.515   2.310   4.481
26309WAT     H179169   3.432   2.270   4.520
26309WAT     H279170   3.516   2.408   4.500
26310WAT      O79171   6.011   7.129   1.441
26310WAT     H179172   6.050   7.221   1.440
26310WAT     H279173   6.080   7.064   1.408
26311WAT      O79174   1.054   9.354   3.113
26311WAT     H179175   0.976   9.388   3.165
26311WAT     H279176   1.046   9.255   3.101
26312WAT      O79177   7.964   7.173   3.597
26312WAT     H179178   7.907   7.144   3.520
26312WAT     H279179   7.992   7.093   3.649
26313WAT      O79180   1.507   8.282   7.107
26313WAT     H179181   1.591   8.290   7.055
26313WAT     H279182   1.470   8.373   7.125
26314WAT      O79183   4.229   6.800   8.201
26314WAT     H179184   4.291   6.862   8.249
26314WAT     H279185   4.141   6.797   8.249
26315WAT      O79186   7.337   8.752   4.835
26315WAT     H179187   7.401   8.817   4.795
26315WAT     H279188   7.362   8.659   4.806
26316WAT      O79189   8.799   7.575   1.166
26316WAT     H179190   8.737   7.634   1.218
26316WAT     H279191   8.870   7.539   1.226
26317WAT      O79192   2.198   3.440   4.787
26317WAT     H179193   2.245   3.385   4.855
26317WAT     H279194   2.109   3.470   4.823
26318WAT      O79195   8.098   8.290   6.396
26318WAT     H179196   8.094   8.370   6.336
26318WAT     H279197   8.137   8.213   6.345
26319WAT      O79198   8.938   8.482   2.737
26319WAT     H179199   8.854   8.489   2.684
26319WAT     H279200   8.919   8.494   2.834
26320WAT      O79201   4.004   5.177   4.844
26320WAT     H179202   3.915   5.131   4.848
26320WAT     H279203   4.056   5.157   4.927
26321WAT      O79204   3.662   1.737   0.717
26321WAT     H179205   3.744   1.693   0.751
26321WAT     H279206   3.655   1.722   0.618
26322WAT      O79207   7.682   0.058   5.817
26322WAT     H179208   7.603   0.091   5.765
26322WAT     H279209   7.705   0.125   5.888
26323WAT      O79210   2.209   8.149   4.741
26323WAT     H179211   2.118   8.132   4.779
26323WAT     H279212   2.263   8.065   4.745
26324WAT      O79213   4.631   2.409   7.002
26324WAT     H179214   4.640   2.410   6.903
26324WAT     H279215   4.569   2.335   7.029
26325WAT      O79216   8.211   3.977   7.964
26325WAT     H179217   8.154   4.057   7.950
26325WAT     H279218   8.155   3.894   7.956
26326WAT      O79219   0.330   2.955   2.121
26326WAT     H179220   0.270   2.898   2.064
26326WAT     H279221   0.298   3.049   2.119
26327WAT      O79222   1.218   8.383   3.293
26327WAT     H179223   1.192   8.470   3.334
26327WAT     H279224   1.145   8.351   3.233
26328WAT      O79225   2.738   8.618   8.839
26328WAT     H179226   2.820   8.616   8.782
26328WAT     H279227   2.733   8.534   8.893
26329WAT      O79228   0.072   9.658   5.615
26329WAT     H179229  -0.016   9.706   5.619
26329WAT     H279230   0.064   9.581   5.551
26330WAT      O79231   8.574   7.569   2.665
26330WAT     H179232   8.628   7.573   2.749
26330WAT     H279233   8.633   7.544   2.588
26331WAT      O79234   5.998   4.798   3.104
26331WAT     H179235   5.964   4.717   3.057
26331WAT     H279236   6.019   4.775   3.199
26332WAT      O79237   1.704   3.343   1.251
26332WAT     H179238   1.639   3.381   1.317
26332WAT     H279239   1.788   3.397   1.252
26333WAT      O79240   2.885   2.587   7.119
26333WAT     H179241   2.976   2.587   7.161
26333WAT     H279242   2.817   2.559   7.187
26334WAT      O79243   4.920   4.121   9.268
26334WAT     H179244   4.987   4.047   9.263
26334WAT     H279245   4.888   4.143   9.176
26335WAT      O79246   7.117   0.247   1.900
26335WAT     H179247   7.140   0.342   1.879
26335WAT     H279248   7.124   0.232   1.998
26336WAT      O79249   4.005   9.319   0.477
26336WAT     H179250   4.065   9.368   0.540
26336WAT     H279251   3.992   9.226   0.510
26337WAT      O79252   1.859   0.801   2.770
26337WAT     H179253   1.943   0.818   2.823
26337WAT     H279254   1.866   0.846   2.681
26338WAT      O79255   9.747   1.703   6.004
26338WAT     H179256   9.740   1.780   6.067
26338WAT     H279257   9.796   1.628   6.049
26339WAT      O79258   6.378   1.413   1.420
26339WAT     H179259   6.324   1.471   1.481
26339WAT     H279260   6.329   1.400   1.334
26340WAT      O79261   0.048   9.177   8.943
26340WAT     H179262   0.017   9.083   8.931
26340WAT     H279263   0.009   9.214   9.027
26341WAT      O79264   4.962   4.560   6.269
26341WAT     H179265   4.906   4.632   6.228
26341WAT     H279266   4.927   4.537   6.360
26342WAT      O79267   4.746   4.351   5.971
26342WAT     H179268   4.835   4.391   5.951
26342WAT     H279269   4.746   4.315   6.065
26343WAT      O79270   5.526   3.070   3.056
26343WAT     H179271   5.557   2.978   3.080
26343WAT     H279272   5.603   3.134   3.065
26344WAT      O79273   3.010   3.260   9.138
26344WAT     H179274   3.095   3.262   9.087
26344WAT     H279275   3.024   3.303   9.227
26345WAT      O79276   7.094   0.190   5.872
26345WAT     H179277   7.013   0.141   5.840
26345WAT     H279278   7.133   0.142   5.951
26346WAT      O79279   0.050   3.487   9.803
26346WAT     H179280   0.142   3.471   9.838
26346WAT     H279281  -0.003   3.539   9.871
26347WAT      O79282   7.537   7.525   7.267
26347WAT     H179283   7.617   7.520   7.206
26347WAT     H279284   7.568   7.520   7.362
26348WAT      O79285   9.699   6.864   6.443
26348WAT     H179286   9.618   6.899   6.490
26348WAT     H279287   9.745   6.796   6.501
26349WAT      O79288   6.048   5.268   7.546
26349WAT     H179289   5.993   5.321   7.611
26349WAT     H279290   5.988   5.224   7.479
26350WAT      O79291   8.260   9.020   4.310
26350WAT     H179292   8.276   8.938   4.255
26350WAT     H279293   8.347   9.070   4.321
26351WAT      O79294   5.807   5.611   0.651
26351WAT     H179295   5.723   5.561   0.675
26351WAT     H279296   5.841   5.659   0.732
26352WAT      O79297   4.375   1.460   5.033
26352WAT     H179298   4.302   1.525   5.055
26352WAT     H279299   4.430   1.496   4.958
26353WAT      O79300   6.237   1.372   3.771
26353WAT     H179301   6.209   1.283   3.807
26353WAT     H279302   6.160   1.435   3.773
26354WAT      O79303   2.181   8.439   2.106
26354WAT     H179304   2.132   8.497   2.042
26354WAT     H279305   2.219   8.495   2.180
26355WAT      O79306   4.982   4.737   6.052
26355WAT     H179307   4.955   4.677   5.978
26355WAT     H279308   5.074   4.772   6.035
26356WAT      O79309   0.702   1.404   5.083
26356WAT     H179310   0.795   1.434   5.061
26356WAT     H279311   0.685   1.315   5.041
26357WAT      O79312   4.601   2.013   3.228
26357WAT     H179313   4.583   1.960   3.311
26357WAT     H279314   4.533   2.086   3.220
26358WAT      O79315   8.590   3.644   8.753
26358WAT     H179316   8.490   3.655   8.749
26358WAT     H279317   8.616   3.612   8.844
26359WAT      O79318   2.878   5.801   8.023
26359WAT     H179319   2.903   5.836   7.932
26359WAT     H279320   2.899   5.704   8.029
26360WAT      O79321   3.299   4.158   2.367
26360WAT     H179322   3.301   4.087   2.437
26360WAT     H279323   3.248   4.237   2.400
26361WAT      O79324   3.109   2.801   4.262
26361WAT     H179325   3.077   2.894   4.243
26361WAT     H279326   3.143   2.760   4.177
26362WAT      O79327   0.777   1.347   6.659
26362WAT     H179328   0.678   1.351   6.665
26362WAT     H279329   0.808   1.252   6.666
26363WAT      O79330   7.801   6.180   0.801
26363WAT     H179331   7.858   6.136   0.730
26363WAT     H279332   7.784   6.275   0.775
26364WAT      O79333   7.689   0.849   2.006
26364WAT     H179334   7.728   0.797   1.930
26364WAT     H279335   7.757   0.913   2.042
26365WAT      O79336   3.919   4.567   3.344
26365WAT     H179337   3.909   4.575   3.443
26365WAT     H279338   4.002   4.514   3.323
26366WAT      O79339   7.015   2.935   5.367
26366WAT     H179340   7.092   2.910   5.427
26366WAT     H279341   6.932   2.889   5.398
26367WAT      O79342   4.762   6.982   2.571
26367WAT     H179343   4.672   7.025   2.567
26367WAT     H279344   4.756   6.889   2.534
26368WAT      O79345   0.744   9.757   7.009
26368WAT     H179346   0.840   9.740   6.984
26368WAT     H279347   0.740   9.835   7.072
26369WAT      O79348   5.957   6.985   0.012
26369WAT     H179349   5.952   6.886   0.014
26369WAT     H279350   6.047   7.014  -0.021
26370WAT      O79351   9.853   4.856   2.232
26370WAT     H179352   9.780   4.873   2.165
26370WAT     H279353   9.937   4.831   2.183
26371WAT      O79354   2.838   7.084   3.097
26371WAT     H179355   2.793   6.994   3.099
26371WAT     H279356   2.835   7.126   3.187
26372WAT      O79357   2.590   9.174   4.401
26372WAT     H179358   2.532   9.256   4.408
26372WAT     H279359   2.532   9.093   4.395
26373WAT      O79360   0.821   0.812   7.384
26373WAT     H179361   0.743   0.792   7.444
26373WAT     H279362   0.809   0.903   7.344
26374WAT      O79363   5.108   4.476   8.247
26374WAT     H179364   5.025   4.514   8.205
26374WAT     H279365   5.135   4.534   8.324
26375WAT      O79366   9.872   7.698   2.758
26375WAT     H179367   9.862   7.601   2.780
26375WAT     H279368   9.941   7.739   2.817
26376WAT      O79369   9.267   1.139   4.913
26376WAT     H179370   9.367   1.139   4.917
26376WAT     H279371   9.230   1.165   5.002
26377WAT      O79372   7.107   4.679   2.784
26377WAT     H179373   7.085   4.634   2.870
26377WAT     H279374   7.024   4.719   2.745
26378WAT      O79375   3.683   4.107   5.895
26378WAT     H179376   3.698   4.035   5.963
26378WAT     H279377   3.770   4.153   5.876
26379WAT      O79378   7.077   3.907   8.348
26379WAT     H179379   7.059   3.965   8.269
26379WAT     H279380   6.991   3.890   8.397
26380WAT      O79381   3.686   4.212   2.126
26380WAT     H179382   3.770   4.252   2.089
26380WAT     H279383   3.649   4.146   2.060
26381WAT      O79384   0.940   1.353   8.002
26381WAT     H179385   0.970   1.334   7.908
26381WAT     H279386   1.014   1.396   8.053
26382WAT      O79387   2.916   5.029   1.373
26382WAT     H179388   2.987   5.018   1.442
26382WAT     H279389   2.832   5.061   1.417
26383WAT      O79390   4.918   3.725   6.904
26383WAT     H179391   4.864   3.665   6.846
26383WAT     H279392   4.901   3.820   6.880
26384WAT      O79393   1.827   2.826   7.387
26384WAT     H179394   1.895   2.896   7.364
26384WAT     H279395   1.872   2.737   7.391
26385WAT      O79396   6.664   7.076   9.452
26385WAT     H179397   6.632   6.981   9.458
26385WAT     H279398   6.764   7.077   9.448
26386WAT      O79399   8.503   1.494   3.423
26386WAT     H179400   8.483   1.520   3.329
26386WAT     H279401   8.585   1.544   3.454
26387WAT      O79402   5.319   5.292   8.355
26387WAT     H179403   5.322   5.352   8.434
26387WAT     H279404   5.405   5.298   8.305
26388WAT      O79405   3.771   3.297   6.054
26388WAT     H179406   3.847   3.350   6.017
26388WAT     H279407   3.718   3.354   6.118
26389WAT      O79408   1.150   0.215   9.057
26389WAT     H179409   1.137   0.199   9.155
26389WAT     H279410   1.084   0.283   9.025
26390WAT      O79411   9.486   8.267   9.551
26390WAT     H179412   9.570   8.216   9.530
26390WAT     H279413   9.420   8.253   9.477
26391WAT      O79414   8.289   4.754   5.219
26391WAT     H179415   8.366   4.817   5.212
26391WAT     H279416   8.285   4.695   5.139
26392WAT      O79417   0.228   1.194   1.831
26392WAT     H179418   0.316   1.152   1.852
26392WAT     H279419   0.171   1.128   1.783
26393WAT      O79420   1.048   3.718   5.141
26393WAT     H179421   1.012   3.742   5.231
26393WAT     H279422   1.098   3.631   5.148
26394WAT      O79423   0.502   7.175   1.770
26394WAT     H179424   0.479   7.264   1.732
26394WAT     H279425   0.472   7.103   1.707
26395WAT      O79426   0.104   1.261   3.871
26395WAT     H179427   0.110   1.345   3.926
26395WAT     H279428   0.155   1.273   3.786
26396WAT      O79429   1.205   7.212   8.442
26396WAT     H179430   1.300   7.217   8.472
26396WAT     H279431   1.162   7.130   8.478
26397WAT      O79432   5.541   0.880   3.560
26397WAT     H179433   5.534   0.926   3.649
26397WAT     H279434   5.634   0.891   3.525
26398WAT      O79435   3.863   6.583   2.914
26398WAT     H179436   3.935   6.607   2.849
26398WAT     H279437   3.831   6.490   2.896
26399WAT      O79438   9.136   6.362   7.223
26399WAT     H179439   9.096   6.371   7.314
26399WAT     H279440   9.162   6.452   7.189
26400WAT      O79441   9.290   3.228   6.294
26400WAT     H179442   9.264   3.133   6.314
26400WAT     H279443   9.230   3.265   6.224
26401WAT      O79444   9.167   1.376   4.514
26401WAT     H179445   9.108   1.447   4.477
26401WAT     H279446   9.260   1.412   4.525
26402WAT      O79447   1.905   2.639   8.552
26402WAT     H179448   1.821   2.611   8.507
26402WAT     H279449   1.903   2.609   8.648
26403WAT      O79450   1.157   5.107   7.047
26403WAT     H179451   1.075   5.066   7.007
26403WAT     H279452   1.197   5.043   7.113
26404WAT      O79453   8.358   3.292   2.896
26404WAT     H179454   8.270   3.331   2.870
26404WAT     H279455   8.355   3.265   2.993
26405WAT      O79456   3.945   5.114   0.486
26405WAT     H179457   3.854   5.118   0.526
26405WAT     H279458   3.947   5.163   0.399
26406WAT      O79459   5.328   8.475   4.383
26406WAT     H179460   5.286   8.417   4.453
26406WAT     H279461   5.336   8.569   4.418
26407WAT      O79462   5.522   2.963   4.587
26407WAT     H179463   5.535   3.024   4.665
26407WAT     H279464   5.511   2.869   4.620
26408WAT      O79465   3.788   1.711   3.694
26408WAT     H179466   3.804   1.614   3.676
26408WAT     H279467   3.740   1.721   3.781
26409WAT      O79468   4.618   7.212   7.461
26409WAT     H179469   4.551   7.255   7.522
26409WAT     H279470   4.608   7.113   7.466
26410WAT      O79471   4.267   4.351   2.357
26410WAT     H179472   4.276   4.293   2.276
26410WAT     H279473   4.318   4.310   2.433
26411WAT      O79474   9.406   2.279   1.031
26411WAT     H179475   9.338   2.208   1.012
26411WAT     H279476   9.371   2.368   1.002
26412WAT      O79477   4.758   4.558   6.782
26412WAT     H179478   4.771   4.531   6.687
26412WAT     H279479   4.845   4.590   6.820
26413WAT      O79480   5.138   3.649   1.888
26413WAT     H179481   5.157   3.708   1.810
26413WAT     H279482   5.118   3.705   1.968
26414WAT      O79483   2.614   2.647   6.517
26414WAT     H179484   2.551   2.632   6.441
26414WAT     H279485   2.571   2.708   6.584
26415WAT      O79486   0.972   3.393   9.477
26415WAT     H179487   1.020   3.309   9.451
26415WAT     H279488   1.029   3.473   9.453
26416WAT      O79489   1.939   7.146   3.611
26416WAT     H179490   1.981   7.114   3.527
26416WAT     H279491   1.961   7.243   3.625
26417WAT      O79492   0.830   5.862   6.431
26417WAT     H179493   0.854   5.804   6.353
26417WAT     H279494   0.800   5.804   6.507
26418WAT      O79495   9.165   1.897   3.447
26418WAT     H179496   9.154   1.799   3.467
26418WAT     H279497   9.178   1.909   3.348
26419WAT      O79498   6.215   6.030   9.165
26419WAT     H179499   6.273   6.108   9.186
26419WAT     H279500   6.249   5.949   9.212
26420WAT      O79501   2.488   4.490   9.028
26420WAT     H179502   2.561   4.510   8.963
26420WAT     H279503   2.460   4.394   9.020
26421WAT      O79504   2.482   1.641   0.275
26421WAT     H179505   2.546   1.613   0.347
26421WAT     H279506   2.514   1.726   0.233
26422WAT      O79507   8.576   1.385   5.106
26422WAT     H179508   8.563   1.362   5.203
26422WAT     H279509   8.548   1.480   5.090
26423WAT      O79510   4.587   2.969   9.462
26423WAT     H179511   4.667   2.939   9.411
26423WAT     H279512   4.558   2.897   9.525
26424WAT      O79513   5.685   5.910   7.539
26424WAT     H179514   5.592   5.946   7.537
26424WAT     H279515   5.704   5.860   7.455
26425WAT      O79516   5.375   9.619   8.574
26425WAT     H179517   5.453   9.680   8.563
26425WAT     H279518   5.365   9.562   8.493
26426WAT      O79519   2.229   3.423   6.882
26426WAT     H179520   2.156   3.379   6.935
26426WAT     H279521   2.317   3.410   6.929
26427WAT      O79522   5.859   8.161   3.842
26427WAT     H179523   5.766   8.126   3.850
26427WAT     H279524   5.859   8.260   3.854
26428WAT      O79525   1.056   1.772   8.765
26428WAT     H179526   0.993   1.848   8.782
26428WAT     H279527   1.005   1.691   8.740
26429WAT      O79528   1.575   6.907   5.134
26429WAT     H179529   1.583   6.823   5.079
26429WAT     H279530   1.584   6.986   5.074
26430WAT      O79531   0.246   3.939   0.854
26430WAT     H179532   0.244   4.036   0.831
26430WAT     H279533   0.310   3.924   0.929
26431WAT      O79534   6.093   1.683   1.428
26431WAT     H179535   6.142   1.675   1.515
26431WAT     H279536   6.010   1.737   1.441
26432WAT      O79537   7.569   9.167   9.836
26432WAT     H179538   7.521   9.109   9.771
26432WAT     H279539   7.507   9.192   9.910
26433WAT      O79540   5.002   2.648   2.670
26433WAT     H179541   5.057   2.566   2.657
26433WAT     H279542   5.059   2.722   2.705
26434WAT      O79543   3.600   6.185   0.684
26434WAT     H179544   3.578   6.206   0.780
26434WAT     H279545   3.670   6.248   0.651
26435WAT      O79546   7.439   9.504   0.812
26435WAT     H179547   7.493   9.464   0.738
26435WAT     H279548   7.489   9.580   0.853
26436WAT      O79549   3.079   2.834   3.233
26436WAT     H179550   3.004   2.898   3.215
26436WAT     H279551   3.153   2.849   3.167
26437WAT      O79552   2.465   9.073   3.426
26437WAT     H179553   2.545   9.016   3.447
26437WAT     H279554   2.495   9.157   3.380
26438WAT      O79555   2.169   8.744   9.713
26438WAT     H179556   2.173   8.794   9.800
26438WAT     H279557   2.215   8.655   9.724
26439WAT      O79558   2.490   9.424   2.324
26439WAT     H179559   2.511   9.501   2.385
26439WAT     H279560   2.527   9.442   2.233
26440WAT      O79561   5.016   3.371   2.151
26440WAT     H179562   5.093   3.360   2.215
26440WAT     H279563   5.047   3.348   2.059
26441WAT      O79564   3.118   4.160   8.598
26441WAT     H179565   3.128   4.191   8.693
26441WAT     H279566   3.120   4.060   8.595
26442WAT      O79567   3.216   5.412   4.713
26442WAT     H179568   3.242   5.453   4.800
26442WAT     H279569   3.275   5.448   4.640
26443WAT      O79570   0.851   1.982   4.049
26443WAT     H179571   0.878   2.044   3.976
26443WAT     H279572   0.856   2.029   4.137
26444WAT      O79573   7.562   6.133   4.614
26444WAT     H179574   7.512   6.217   4.591
26444WAT     H279575   7.659   6.147   4.596
26445WAT      O79576   0.256   9.019   6.910
26445WAT     H179577   0.169   9.068   6.912
26445WAT     H279578   0.249   8.937   6.967
26446WAT      O79579   4.219   2.130   8.959
26446WAT     H179580   4.174   2.219   8.972
26446WAT     H279581   4.158   2.069   8.908
26447WAT      O79582   1.426   5.299   3.789
26447WAT     H179583   1.501   5.243   3.754
26447WAT     H279584   1.462   5.384   3.828
26448WAT      O79585   8.186   4.959   8.426
26448WAT     H179586   8.236   5.045   8.434
26448WAT     H279587   8.247   4.883   8.445
26449WAT      O79588   6.599   6.947   2.653
26449WAT     H179589   6.512   6.922   2.611
26449WAT     H279590   6.658   6.991   2.586
26450WAT      O79591   9.246   0.800   2.450
26450WAT     H179592   9.226   0.885   2.402
26450WAT     H279593   9.296   0.738   2.390
26451WAT      O79594   4.956   1.593   0.455
26451WAT     H179595   5.046   1.575   0.415
26451WAT     H279596   4.925   1.684   0.426
26452WAT      O79597   3.498   5.567   7.920
26452WAT     H179598   3.432   5.582   7.993
26452WAT     H279599   3.452   5.572   7.832
26453WAT      O79600   1.431   0.399   7.553
26453WAT     H179601   1.383   0.332   7.609
26453WAT     H279602   1.499   0.447   7.609
26454WAT      O79603   9.883   4.941   5.142
26454WAT     H179604   9.845   5.033   5.136
26454WAT     H279605   9.952   4.938   5.214
26455WAT      O79606   2.812   6.959   5.836
26455WAT     H179607   2.883   6.962   5.906
26455WAT     H279608   2.791   7.052   5.805
26456WAT      O79609   1.698   6.863   2.987
26456WAT     H179610   1.780   6.841   2.935
26456WAT     H279611   1.663   6.781   3.033
26457WAT      O79612   9.154   6.123   8.714
26457WAT     H179613   9.082   6.185   8.683
26457WAT     H279614   9.231   6.126   8.651
26458WAT      O79615   3.927   0.042   9.782
26458WAT     H179616   3.917   0.128   9.833
26458WAT     H279617   3.951   0.063   9.688
26459WAT      O79618   8.575   0.890   8.252
26459WAT     H179619   8.629   0.857   8.174
26459WAT     H279620   8.490   0.930   8.218
26460WAT      O79621   2.343   1.497   6.433
26460WAT     H179622   2.314   1.440   6.511
26460WAT     H279623   2.438   1.477   6.411
26461WAT      O79624   8.007   5.991   2.491
26461WAT     H179625   7.971   6.000   2.398
26461WAT     H279626   7.941   6.027   2.556
26462WAT      O79627   3.780   2.614   0.904
26462WAT     H179628   3.829   2.527   0.891
26462WAT     H279629   3.827   2.668   0.974
26463WAT      O79630   7.393   4.168   7.170
26463WAT     H179631   7.376   4.219   7.254
26463WAT     H279632   7.312   4.173   7.112
26464WAT      O79633   4.099   1.877   5.461
26464WAT     H179634   4.142   1.947   5.518
26464WAT     H279635   4.020   1.916   5.414
26465WAT      O79636   2.569   8.262   8.566
26465WAT     H179637   2.613   8.267   8.476
26465WAT     H279638   2.470   8.275   8.556
26466WAT      O79639   3.629   9.127   8.642
26466WAT     H179640   3.714   9.103   8.596
26466WAT     H279641   3.584   9.043   8.674
26467WAT      O79642   3.992   0.550   7.810
26467WAT     H179643   4.053   0.503   7.746
26467WAT     H279644   4.009   0.648   7.807
26468WAT      O79645   3.015   7.448   9.401
26468WAT     H179646   3.075   7.426   9.478
26468WAT     H279647   3.008   7.547   9.391
26469WAT      O79648   8.851   3.738   1.532
26469WAT     H179649   8.764   3.750   1.580
26469WAT     H279650   8.848   3.654   1.477
26470WAT      O79651   1.964   2.114   2.718
26470WAT     H179652   2.001   2.021   2.721
26470WAT     H279653   1.864   2.109   2.707
26471WAT      O79654   4.029   1.089   1.822
26471WAT     H179655   3.998   1.183   1.807
26471WAT     H279656   4.126   1.089   1.845
26472WAT      O79657   0.585   4.035   3.113
26472WAT     H179658   0.620   3.947   3.079
26472WAT     H279659   0.544   4.085   3.038
26473WAT      O79660   9.104   3.802   4.402
26473WAT     H179661   9.046   3.867   4.353
26473WAT     H279662   9.116   3.831   4.497
26474WAT      O79663   7.602   7.051   7.752
26474WAT     H179664   7.693   7.043   7.792
26474WAT     H279665   7.600   7.006   7.663
26475WAT      O79666   5.253   7.160   4.835
26475WAT     H179667   5.295   7.182   4.923
26475WAT     H279668   5.168   7.210   4.825
26476WAT      O79669   7.337   1.598   6.495
26476WAT     H179670   7.279   1.519   6.519
26476WAT     H279671   7.428   1.566   6.470
26477WAT      O79672   2.890   3.559   9.158
26477WAT     H179673   2.970   3.510   9.193
26477WAT     H279674   2.809   3.530   9.209
26478WAT      O79675   6.089   6.311   6.043
26478WAT     H179676   6.014   6.361   6.086
26478WAT     H279677   6.055   6.261   5.964
26479WAT      O79678   0.066   1.676   7.402
26479WAT     H179679   0.047   1.747   7.334
26479WAT     H279680   0.004   1.599   7.386
26480WAT      O79681   7.166   7.905   1.139
26480WAT     H179682   7.111   7.838   1.089
26480WAT     H279683   7.145   7.899   1.236
26481WAT      O79684   3.802   9.727   4.925
26481WAT     H179685   3.831   9.644   4.973
26481WAT     H279686   3.808   9.713   4.826
26482WAT      O79687   7.094   2.990   2.998
26482WAT     H179688   7.179   2.946   3.029
26482WAT     H279689   7.035   2.922   2.956
26483WAT      O79690   2.125   1.418   4.170
26483WAT     H179691   2.178   1.441   4.252
26483WAT     H279692   2.167   1.460   4.090
26484WAT      O79693   2.384   5.014   0.988
26484WAT     H179694   2.358   5.069   0.908
26484WAT     H279695   2.484   5.011   0.995
26485WAT      O79696   1.411   4.016   2.470
26485WAT     H179697   1.397   4.102   2.520
26485WAT     H279698   1.501   3.979   2.492
26486WAT      O79699   0.600   6.371   3.536
26486WAT     H179700   0.642   6.321   3.461
26486WAT     H279701   0.567   6.307   3.605
26487WAT      O79702   7.042   4.316   7.949
26487WAT     H179703   7.026   4.313   8.048
26487WAT     H279704   6.955   4.312   7.901
26488WAT      O79705   0.811   9.248   5.460
26488WAT     H179706   0.737   9.312   5.478
26488WAT     H279707   0.887   9.265   5.523
26489WAT      O79708   8.003   3.430   7.971
26489WAT     H179709   8.025   3.336   7.946
26489WAT     H279710   7.927   3.431   8.035
26490WAT      O79711   1.449   9.806   0.204
26490WAT     H179712   1.548   9.822   0.206
26490WAT     H279713   1.409   9.849   0.124
26491WAT      O79714   6.879   5.408   6.903
26491WAT     H179715   6.910   5.503   6.904
26491WAT     H279716   6.932   5.356   6.836
26492WAT      O79717   5.800   8.613   4.857
26492WAT     H179718   5.891   8.651   4.873
26492WAT     H279719   5.741   8.683   4.818
26493WAT      O79720   9.226   1.535   5.106
26493WAT     H179721   9.318   1.564   5.079
26493WAT     H279722   9.178   1.612   5.149
26494WAT      O79723   0.681   8.892   6.854
26494WAT     H179724   0.738   8.833   6.911
26494WAT     H279725   0.722   8.900   6.763
26495WAT      O79726   7.066   7.629   2.888
26495WAT     H179727   7.163   7.635   2.915
26495WAT     H279728   7.024   7.720   2.896
26496WAT      O79729   3.768   3.908   3.094
26496WAT     H179730   3.856   3.915   3.141
26496WAT     H279731   3.757   3.816   3.056
26497WAT      O79732   3.501   8.070   1.660
26497WAT     H179733   3.566   8.046   1.588
26497WAT     H279734   3.411   8.031   1.640
26498WAT      O79735   1.003   6.335   5.772
26498WAT     H179736   1.099   6.334   5.743
26498WAT     H279737   0.997   6.373   5.864
26499WAT      O79738   0.313   4.200   0.437
26499WAT     H179739   0.308   4.222   0.340
26499WAT     H279740   0.225   4.219   0.481
26500WAT      O79741   5.357   7.981   1.447
26500WAT     H179742   5.388   7.894   1.486
26500WAT     H279743   5.363   8.053   1.516
26501WAT      O79744   2.505   9.562   7.736
26501WAT     H179745   2.412   9.580   7.706
26501WAT     H279746   2.509   9.561   7.836
26502WAT      O79747   6.249   3.702   8.353
26502WAT     H179748   6.274   3.652   8.436
26502WAT     H279749   6.318   3.687   8.282
26503WAT      O79750   7.889   9.629   6.338
26503WAT     H179751   7.911   9.652   6.244
26503WAT     H279752   7.811   9.684   6.368
26504WAT      O79753   8.872   1.823   0.222
26504WAT     H179754   8.818   1.881   0.162
26504WAT     H279755   8.941   1.774   0.168
26505WAT      O79756   4.431   1.979   7.077
26505WAT     H179757   4.398   2.026   6.995
26505WAT     H279758   4.455   2.047   7.147
26506WAT      O79759   7.208   7.895   2.675
26506WAT     H179760   7.207   7.833   2.597
26506WAT     H279761   7.216   7.842   2.759
26507WAT      O79762   4.814   4.436   3.008
26507WAT     H179763   4.859   4.381   2.938
26507WAT     H279764   4.715   4.427   2.998
26508WAT      O79765   0.240   7.751   6.556
26508WAT     H179766   0.275   7.659   6.540
26508WAT     H279767   0.196   7.755   6.646
26509WAT      O79768   2.813   6.517   5.529
26509WAT     H179769   2.834   6.423   5.556
26509WAT     H279770   2.790   6.571   5.610
26510WAT      O79771   9.639   3.277   4.329
26510WAT     H179772   9.615   3.361   4.378
26510WAT     H279773   9.576   3.264   4.253
26511WAT      O79774   9.440   4.217   6.963
26511WAT     H179775   9.450   4.217   7.062
26511WAT     H279776   9.349   4.249   6.938
26512WAT      O79777   2.280   6.563   0.515
26512WAT     H179778   2.378   6.559   0.535
26512WAT     H279779   2.229   6.523   0.592
26513WAT      O79780   3.662   9.787   8.103
26513WAT     H179781   3.707   9.857   8.048
26513WAT     H279782   3.611   9.725   8.043
26514WAT      O79783   8.674   2.212   2.300
26514WAT     H179784   8.593   2.231   2.244
26514WAT     H279785   8.756   2.239   2.250
26515WAT      O79786   0.827   9.110   2.276
26515WAT     H179787   0.904   9.078   2.330
26515WAT     H279788   0.741   9.087   2.322
26516WAT      O79789   1.170   7.226   8.161
26516WAT     H179790   1.265   7.248   8.141
26516WAT     H279791   1.153   7.233   8.259
26517WAT      O79792   5.569   4.111   1.392
26517WAT     H179793   5.636   4.039   1.375
26517WAT     H279794   5.616   4.199   1.401
26518WAT      O79795   8.733   3.737   4.138
26518WAT     H179796   8.674   3.734   4.057
26518WAT     H279797   8.817   3.685   4.119
26519WAT      O79798   5.310   3.844   8.503
26519WAT     H179799   5.244   3.862   8.430
26519WAT     H279800   5.359   3.928   8.524
26520WAT      O79801   6.873   1.308   6.293
26520WAT     H179802   6.867   1.262   6.382
26520WAT     H279803   6.969   1.326   6.271
26521WAT      O79804   1.676   2.274   1.716
26521WAT     H179805   1.601   2.293   1.780
26521WAT     H279806   1.644   2.289   1.623
26522WAT      O79807   9.495   6.613   8.574
26522WAT     H179808   9.453   6.660   8.496
26522WAT     H279809   9.430   6.547   8.612
26523WAT      O79810   2.534   5.154   4.255
26523WAT     H179811   2.505   5.076   4.310
26523WAT     H279812   2.499   5.238   4.296
26524WAT      O79813   8.562   2.451   2.131
26524WAT     H179814   8.602   2.526   2.078
26524WAT     H279815   8.581   2.364   2.085
26525WAT      O79816   2.509   1.800   1.584
26525WAT     H179817   2.424   1.849   1.571
26525WAT     H279818   2.573   1.856   1.637
26526WAT      O79819   9.032   0.902   8.023
26526WAT     H179820   9.113   0.955   8.048
26526WAT     H279821   9.061   0.814   7.984
26527WAT      O79822   8.831   2.780   8.303
26527WAT     H179823   8.804   2.794   8.208
26527WAT     H279824   8.901   2.847   8.328
26528WAT      O79825   0.946   9.482   7.595
26528WAT     H179826   0.909   9.394   7.624
26528WAT     H279827   0.889   9.520   7.522
26529WAT      O79828   6.741   0.747   7.730
26529WAT     H179829   6.669   0.693   7.775
26529WAT     H279830   6.700   0.799   7.654
26530WAT      O79831   7.212   1.576   4.151
26530WAT     H179832   7.167   1.648   4.099
26530WAT     H279833   7.164   1.489   4.135
26531WAT      O79834   7.810   2.028   4.007
26531WAT     H179835   7.805   1.931   4.029
26531WAT     H279836   7.746   2.049   3.933
26532WAT      O79837   7.520   3.041   2.403
26532WAT     H179838   7.499   3.013   2.309
26532WAT     H279839   7.588   2.979   2.441
26533WAT      O79840   4.200   6.855   0.817
26533WAT     H179841   4.229   6.948   0.839
26533WAT     H279842   4.218   6.836   0.721
26534WAT      O79843   4.617   0.677   9.454
26534WAT     H179844   4.567   0.710   9.374
26534WAT     H279845   4.577   0.591   9.485
26535WAT      O79846   2.812   1.675   1.551
26535WAT     H179847   2.835   1.661   1.647
26535WAT     H279848   2.718   1.647   1.534
26536WAT      O79849   0.917   3.498   3.844
26536WAT     H179850   0.936   3.406   3.878
26536WAT     H279851   0.836   3.496   3.785
26537WAT      O79852   3.076   4.411   3.376
26537WAT     H179853   3.143   4.469   3.330
26537WAT     H279854   3.075   4.320   3.333
26538WAT      O79855   2.916   1.808   2.566
26538WAT     H179856   2.883   1.714   2.564
26538WAT     H279857   2.989   1.816   2.633
26539WAT      O79858   0.006   0.680   7.036
26539WAT     H179859  -0.090   0.705   7.030
26539WAT     H279860   0.031   0.622   6.959
26540WAT      O79861   8.561   2.093   0.338
26540WAT     H179862   8.660   2.100   0.338
26540WAT     H279863   8.534   1.997   0.344
26541WAT      O79864   2.689   8.214   7.409
26541WAT     H179865   2.635   8.191   7.490
26541WAT     H279866   2.777   8.168   7.414
26542WAT      O79867   5.530   3.006   5.431
26542WAT     H179868   5.478   2.922   5.420
26542WAT     H279869   5.470   3.085   5.415
26543WAT      O79870   4.981   0.110   5.939
26543WAT     H179871   4.908   0.108   6.008
26543WAT     H279872   5.060   0.160   5.975
26544WAT      O79873   5.929   4.032   1.205
26544WAT     H179874   5.858   4.095   1.174
26544WAT     H279875   5.889   3.963   1.265
26545WAT      O79876   2.852   2.485   1.991
26545WAT     H179877   2.761   2.496   2.030
26545WAT     H279878   2.848   2.500   1.892
26546WAT      O79879   0.478   8.503   2.308
26546WAT     H179880   0.443   8.460   2.225
26546WAT     H279881   0.501   8.599   2.290
26547WAT      O79882   9.525   4.788   2.842
26547WAT     H179883   9.499   4.695   2.866
26547WAT     H279884   9.551   4.838   2.924
26548WAT      O79885   6.623   8.553   8.765
26548WAT     H179886   6.567   8.560   8.848
26548WAT     H279887   6.661   8.643   8.743
26549WAT      O79888   4.079   4.592   5.221
26549WAT     H179889   4.027   4.669   5.185
26549WAT     H279890   4.095   4.525   5.148
26550WAT      O79891   3.074   4.973   3.587
26550WAT     H179892   3.150   4.980   3.523
26550WAT     H279893   3.058   5.061   3.631
26551WAT      O79894   4.326   7.861   5.238
26551WAT     H179895   4.308   7.765   5.259
26551WAT     H279896   4.399   7.894   5.297
26552WAT      O79897   2.670   3.069   3.646
26552WAT     H179898   2.674   3.085   3.547
26552WAT     H279899   2.688   3.155   3.694
26553WAT      O79900   5.658   5.708   4.008
26553WAT     H179901   5.708   5.692   4.093
26553WAT     H279902   5.583   5.771   4.024
26554WAT      O79903   7.523   9.776   4.346
26554WAT     H179904   7.591   9.737   4.284
26554WAT     H279905   7.431   9.757   4.311
26555WAT      O79906   3.800   2.581   5.369
26555WAT     H179907   3.703   2.585   5.348
26555WAT     H279908   3.831   2.486   5.365
26556WAT      O79909   7.540   8.842   5.916
26556WAT     H179910   7.446   8.852   5.947
26556WAT     H279911   7.565   8.919   5.857
26557WAT      O79912   9.856   2.076   5.819
26557WAT     H179913   9.869   1.993   5.766
26557WAT     H279914   9.931   2.087   5.884
26558WAT      O79915   6.487   4.270   5.815
26558WAT     H179916   6.490   4.203   5.890
26558WAT     H279917   6.407   4.329   5.827
26559WAT      O79918   8.935   6.636   5.390
26559WAT     H179919   8.949   6.552   5.442
26559WAT     H279920   8.894   6.706   5.448
26560WAT      O79921   7.955   8.341   4.735
26560WAT     H179922   8.025   8.394   4.784
26560WAT     H279923   7.983   8.245   4.732
26561WAT      O79924   1.200   7.142   5.695
26561WAT     H179925   1.255   7.143   5.778
26561WAT     H279926   1.184   7.236   5.665
26562WAT      O79927   6.210   2.213   7.030
26562WAT     H179928   6.220   2.260   6.942
26562WAT     H279929   6.293   2.225   7.084
26563WAT      O79930   8.809   0.906   5.014
26563WAT     H179931   8.807   1.001   4.985
26563WAT     H279932   8.765   0.897   5.104
26564WAT      O79933   9.666   1.188   8.220
26564WAT     H179934   9.652   1.089   8.215
26564WAT     H279935   9.628   1.223   8.305
26565WAT      O79936   1.783   7.255   2.485
26565WAT     H179937   1.867   7.309   2.482
26565WAT     H279938   1.770   7.207   2.398
26566WAT      O79939   3.446   5.940   9.832
26566WAT     H179940   3.529   5.896   9.798
26566WAT     H279941   3.470   6.028   9.873
26567WAT      O79942   6.044   5.798   0.167
26567WAT     H179943   5.960   5.751   0.142
26567WAT     H279944   6.116   5.777   0.101
26568WAT      O79945   5.901   0.246   3.453
26568WAT     H179946   5.881   0.342   3.475
26568WAT     H279947   5.823   0.206   3.406
26569WAT      O79948   7.335   6.077   5.256
26569WAT     H179949   7.390   6.072   5.340
26569WAT     H279950   7.395   6.097   5.179
26570WAT      O79951   5.559   7.059   0.713
26570WAT     H179952   5.659   7.066   0.708
26570WAT     H279953   5.528   6.978   0.663
26571WAT      O79954   3.742   0.535   8.641
26571WAT     H179955   3.804   0.478   8.587
26571WAT     H279956   3.787   0.561   8.727
26572WAT      O79957   1.681   3.640   7.516
26572WAT     H179958   1.640   3.718   7.469
26572WAT     H279959   1.775   3.662   7.542
26573WAT      O79960   1.285   7.764   0.006
26573WAT     H179961   1.219   7.707   0.054
26573WAT     H279962   1.244   7.799  -0.078
26574WAT      O79963   7.537   2.144   9.019
26574WAT     H179964   7.539   2.181   8.926
26574WAT     H279965   7.456   2.179   9.067
26575WAT      O79966   2.820   1.022   5.232
26575WAT     H179967   2.894   0.963   5.263
26575WAT     H279968   2.738   1.003   5.287
26576WAT      O79969   1.007   4.644   3.361
26576WAT     H179970   1.052   4.733   3.361
26576WAT     H279971   0.968   4.626   3.271
26577WAT      O79972   4.391   3.089   7.657
26577WAT     H179973   4.375   3.026   7.733
26577WAT     H279974   4.471   3.145   7.676
26578WAT      O79975   4.050   1.073   8.682
26578WAT     H179976   4.080   1.008   8.612
26578WAT     H279977   4.127   1.095   8.743
26579WAT      O79978   1.008   6.104   2.176
26579WAT     H179979   1.044   6.017   2.210
26579WAT     H279980   0.913   6.091   2.146
26580WAT      O79981   7.858   1.352   0.108
26580WAT     H179982   7.922   1.403   0.164
26580WAT     H279983   7.896   1.261   0.088
26581WAT      O79984   3.552   0.623   9.352
26581WAT     H179985   3.518   0.692   9.289
26581WAT     H279986   3.492   0.618   9.433
26582WAT      O79987   7.401   5.270   2.491
26582WAT     H179988   7.363   5.178   2.492
26582WAT     H279989   7.485   5.271   2.436
26583WAT      O79990   1.719   4.945   3.170
26583WAT     H179991   1.646   4.997   3.124
26583WAT     H279992   1.680   4.895   3.247
26584WAT      O79993   5.882   7.975   1.892
26584WAT     H179994   5.899   7.883   1.855
26584WAT     H279995   5.822   7.969   1.971
26585WAT      O79996   4.996   6.879   3.772
26585WAT     H179997   5.031   6.966   3.808
26585WAT     H279998   4.912   6.855   3.820
26586WAT      O79999   0.608   9.596   7.173
26586WAT     H180000   0.666   9.632   7.100
26586WAT     H280001   0.529   9.656   7.186
26587WAT      O80002   4.801   6.164   1.300
26587WAT     H180003   4.833   6.217   1.221
26587WAT     H280004   4.713   6.121   1.277
26588WAT      O80005   1.816   8.915   6.038
26588WAT     H180006   1.817   8.902   6.138
26588WAT     H280007   1.822   8.827   5.993
26589WAT      O80008   4.665   7.374   0.939
26589WAT     H180009   4.610   7.307   0.989
26589WAT     H280010   4.657   7.464   0.982
26590WAT      O80011   9.027   6.513   9.102
26590WAT     H180012   9.113   6.471   9.131
26590WAT     H280013   9.018   6.603   9.145
26591WAT      O80014   8.195   1.258   2.029
26591WAT     H180015   8.273   1.310   2.064
26591WAT     H280016   8.123   1.255   2.099
26592WAT      O80017   6.946   0.496   2.105
26592WAT     H180018   6.964   0.398   2.116
26592WAT     H280019   7.033   0.545   2.091
26593WAT      O80020   2.876   6.605   7.517
26593WAT     H180021   2.892   6.696   7.479
26593WAT     H280022   2.792   6.606   7.570
26594WAT      O80023   8.178   1.611   1.548
26594WAT     H180024   8.274   1.616   1.519
26594WAT     H280025   8.169   1.647   1.641
26595WAT      O80026   6.274   1.766   7.949
26595WAT     H180027   6.273   1.726   7.858
26595WAT     H280028   6.238   1.701   8.016
26596WAT      O80029   5.786   7.438   2.017
26596WAT     H180030   5.701   7.479   1.986
26596WAT     H280031   5.790   7.442   2.117
26597WAT      O80032   7.243   8.154   5.589
26597WAT     H180033   7.150   8.124   5.613
26597WAT     H280034   7.238   8.241   5.540
26598WAT      O80035   7.715   0.590   7.527
26598WAT     H180036   7.778   0.517   7.553
26598WAT     H280037   7.764   0.660   7.476
26599WAT      O80038   2.794   6.321   2.389
26599WAT     H180039   2.809   6.379   2.308
26599WAT     H280040   2.849   6.238   2.381
26600WAT      O80041   2.279   4.507   8.522
26600WAT     H180042   2.271   4.485   8.425
26600WAT     H280043   2.203   4.466   8.572
26601WAT      O80044   6.990   3.388   4.433
26601WAT     H180045   6.946   3.328   4.500
26601WAT     H280046   7.083   3.354   4.415
26602WAT      O80047   9.511   4.590   5.440
26602WAT     H180048   9.468   4.529   5.506
26602WAT     H280049   9.606   4.608   5.468
26603WAT      O80050   9.009   9.500   4.522
26603WAT     H180051   8.954   9.519   4.440
26603WAT     H280052   9.047   9.408   4.516
26604WAT      O80053   2.098   0.484   2.226
26604WAT     H180054   2.012   0.433   2.224
26604WAT     H280055   2.151   0.457   2.307
26605WAT      O80056   4.177   7.035   7.595
26605WAT     H180057   4.095   7.079   7.634
26605WAT     H280058   4.155   6.998   7.505
26606WAT      O80059   0.974   0.666   6.334
26606WAT     H180060   1.004   0.636   6.243
26606WAT     H280061   0.935   0.588   6.383
26607WAT      O80062   0.602   2.778   5.518
26607WAT     H180063   0.676   2.711   5.521
26607WAT     H280064   0.619   2.849   5.586
26608WAT      O80065   3.187   4.077   2.755
26608WAT     H180066   3.206   4.082   2.853
26608WAT     H280067   3.180   4.170   2.718
26609WAT      O80068   3.456   3.753   6.642
26609WAT     H180069   3.482   3.802   6.725
26609WAT     H280070   3.529   3.691   6.616
26610WAT      O80071   7.771   7.007   6.905
26610WAT     H180072   7.848   6.981   6.963
26610WAT     H280073   7.713   6.928   6.888
26611WAT      O80074   4.244   8.597   8.812
26611WAT     H180075   4.222   8.654   8.733
26611WAT     H280076   4.182   8.619   8.887
26612WAT      O80077   0.638   2.134   9.046
26612WAT     H180078   0.643   2.173   8.955
26612WAT     H280079   0.642   2.207   9.114
26613WAT      O80080   3.531   0.516   8.485
26613WAT     H180081   3.621   0.510   8.527
26613WAT     H280082   3.467   0.558   8.548
26614WAT      O80083   1.805   8.112   5.614
26614WAT     H180084   1.847   8.173   5.546
26614WAT     H280085   1.817   8.150   5.705
26615WAT      O80086   0.119   2.480   6.391
26615WAT     H180087   0.109   2.503   6.488
26615WAT     H280088   0.047   2.415   6.366
26616WAT      O80089   8.623   6.057   2.159
26616WAT     H180090   8.534   6.097   2.136
26616WAT     H280091   8.665   6.020   2.077
26617WAT      O80092   6.253   9.661   2.012
26617WAT     H180093   6.232   9.758   2.014
26617WAT     H280094   6.302   9.639   1.928
26618WAT      O80095   9.331   1.676   3.274
26618WAT     H180096   9.350   1.656   3.370
26618WAT     H280097   9.398   1.630   3.216
26619WAT      O80098   7.658   7.859   8.173
26619WAT     H180099   7.733   7.917   8.201
26619WAT     H280100   7.575   7.914   8.161
26620WAT      O80101   2.673   8.648   5.852
26620WAT     H180102   2.757   8.622   5.899
26620WAT     H280103   2.653   8.580   5.781
26621WAT      O80104   6.093   0.310   1.464
26621WAT     H180105   6.006   0.331   1.509
26621WAT     H280106   6.076   0.285   1.368
26622WAT      O80107   4.489   1.399   1.147
26622WAT     H180108   4.515   1.331   1.216
26622WAT     H280109   4.476   1.488   1.192
26623WAT      O80110   1.013   4.964   8.763
26623WAT     H180111   1.072   4.892   8.799
26623WAT     H280112   1.037   4.984   8.668
26624WAT      O80113   4.741   7.722   9.060
26624WAT     H180114   4.786   7.768   8.983
26624WAT     H280115   4.774   7.628   9.065
26625WAT      O80116   2.330   3.549   1.038
26625WAT     H180117   2.345   3.522   0.943
26625WAT     H280118   2.261   3.622   1.041
26626WAT      O80119   3.917   0.087   4.550
26626WAT     H180120   3.987   0.059   4.485
26626WAT     H280121   3.860   0.159   4.509
26627WAT      O80122   7.899   3.610   5.681
26627WAT     H180123   7.900   3.641   5.586
26627WAT     H280124   7.838   3.531   5.690
26628WAT      O80125   2.228   0.506   4.488
26628WAT     H180126   2.180   0.566   4.424
26628WAT     H280127   2.211   0.410   4.463
26629WAT      O80128   1.358   1.986   0.151
26629WAT     H180129   1.384   1.899   0.109
26629WAT     H280130   1.437   2.026   0.197
26630WAT      O80131   7.029   0.302   0.513
26630WAT     H180132   7.050   0.384   0.459
26630WAT     H280133   7.111   0.272   0.561
26631WAT      O80134   3.757   0.309   3.269
26631WAT     H180135   3.853   0.321   3.295
26631WAT     H280136   3.701   0.297   3.351
26632WAT      O80137   1.144   6.224   8.728
26632WAT     H180138   1.130   6.156   8.799
26632WAT     H280139   1.199   6.186   8.655
26633WAT      O80140   0.569   6.289   0.135
26633WAT     H180141   0.597   6.296   0.230
26633WAT     H280142   0.630   6.344   0.078
26634WAT      O80143   4.372   8.215   1.675
26634WAT     H180144   4.403   8.311   1.672
26634WAT     H280145   4.388   8.177   1.766
26635WAT      O80146   1.725   3.449   1.889
26635WAT     H180147   1.783   3.368   1.888
26635WAT     H280148   1.777   3.528   1.856
26636WAT      O80149   2.730   4.147   8.570
26636WAT     H180150   2.814   4.119   8.525
26636WAT     H280151   2.674   4.200   8.506
26637WAT      O80152   4.905   4.222   0.068
26637WAT     H180153   4.965   4.200  -0.009
26637WAT     H280154   4.953   4.285   0.130
26638WAT      O80155   9.344   2.812   3.842
26638WAT     H180156   9.321   2.908   3.861
26638WAT     H280157   9.283   2.752   3.895
26639WAT      O80158   7.793   0.768   7.218
26639WAT     H180159   7.782   0.669   7.208
26639WAT     H280160   7.885   0.787   7.253
26640WAT      O80161   9.566   6.155   1.261
26640WAT     H180162   9.524   6.179   1.174
26640WAT     H280163   9.510   6.085   1.307
26641WAT      O80164   1.640   0.882   1.689
26641WAT     H180165   1.640   0.973   1.729
26641WAT     H280166   1.719   0.871   1.630
26642WAT      O80167   1.049   2.091   7.293
26642WAT     H180168   1.134   2.067   7.340
26642WAT     H280169   0.971   2.073   7.354
26643WAT      O80170   7.590   3.975   5.235
26643WAT     H180171   7.515   4.033   5.202
26643WAT     H280172   7.568   3.942   5.327
26644WAT      O80173   4.628   2.897   3.771
26644WAT     H180174   4.655   2.981   3.723
26644WAT     H280175   4.600   2.920   3.864
26645WAT      O80176   9.270   8.222   6.651
26645WAT     H180177   9.216   8.138   6.651
26645WAT     H280178   9.367   8.199   6.646
26646WAT      O80179   8.687   8.316   4.255
26646WAT     H180180   8.701   8.407   4.294
26646WAT     H280181   8.740   8.307   4.171
26647WAT      O80182   1.436   4.068   1.772
26647WAT     H180183   1.373   4.132   1.815
26647WAT     H280184   1.397   4.034   1.687
26648WAT      O80185   8.958   6.360   7.436
26648WAT     H180186   8.920   6.452   7.430
26648WAT     H280187   8.889   6.298   7.474
26649WAT      O80188   4.873   6.847   4.257
26649WAT     H180189   4.872   6.947   4.261
26649WAT     H280190   4.967   6.814   4.252
26650WAT      O80191   4.585   1.958   0.570
26650WAT     H180192   4.581   1.934   0.667
26650WAT     H280193   4.622   2.051   0.560
26651WAT      O80194   5.442   3.490   0.250
26651WAT     H180195   5.423   3.416   0.315
26651WAT     H280196   5.418   3.577   0.291
26652WAT      O80197   4.975   3.081   4.302
26652WAT     H180198   4.991   3.124   4.391
26652WAT     H280199   4.972   2.982   4.313
26653WAT      O80200   0.937   7.700   3.899
26653WAT     H180201   0.995   7.765   3.947
26653WAT     H280202   0.890   7.642   3.966
26654WAT      O80203   9.858   8.966   5.797
26654WAT     H180204   9.883   9.059   5.821
26654WAT     H280205   9.921   8.930   5.728
26655WAT      O80206   2.505   0.070   1.821
26655WAT     H180207   2.471   0.150   1.870
26655WAT     H280208   2.605   0.074   1.814
26656WAT      O80209   0.841   0.977   7.065
26656WAT     H180210   0.748   0.983   7.102
26656WAT     H280211   0.845   1.025   6.978
26657WAT      O80212   3.680   1.307   6.104
26657WAT     H180213   3.717   1.337   6.192
26657WAT     H280214   3.739   1.340   6.030
26658WAT      O80215   7.113   2.112   4.689
26658WAT     H180216   7.089   2.163   4.772
26658WAT     H280217   7.204   2.072   4.701
26659WAT      O80218   7.517   3.862   0.146
26659WAT     H180219   7.511   3.954   0.107
26659WAT     H280220   7.612   3.843   0.172
26660WAT      O80221   5.374   7.381   0.056
26660WAT     H180222   5.334   7.380  -0.036
26660WAT     H280223   5.472   7.360   0.051
26661WAT      O80224   6.536   9.477   8.593
26661WAT     H180225   6.496   9.429   8.516
26661WAT     H280226   6.543   9.575   8.572
26662WAT      O80227   7.485   9.828   9.659
26662WAT     H180228   7.459   9.853   9.566
26662WAT     H280229   7.566   9.769   9.656
26663WAT      O80230   1.782   7.411   2.044
26663WAT     H180231   1.714   7.409   2.117
26663WAT     H280232   1.764   7.337   1.979
26664WAT      O80233   1.633   4.691   3.078
26664WAT     H180234   1.547   4.686   3.129
26664WAT     H280235   1.694   4.756   3.122
26665WAT      O80236   2.590   6.551   7.622
26665WAT     H180237   2.558   6.479   7.560
26665WAT     H280238   2.523   6.564   7.695
26666WAT      O80239   5.766   2.877   0.752
26666WAT     H180240   5.819   2.923   0.824
26666WAT     H280241   5.822   2.869   0.670
26667WAT      O80242   1.628   7.737   2.105
26667WAT     H180243   1.660   7.659   2.159
26667WAT     H280244   1.535   7.761   2.133
26668WAT      O80245   5.404   1.204   9.062
26668WAT     H180246   5.433   1.261   8.985
26668WAT     H280247   5.483   1.184   9.121
26669WAT      O80248   6.469   1.722   8.607
26669WAT     H180249   6.491   1.803   8.662
26669WAT     H280250   6.456   1.644   8.668
26670WAT      O80251   8.089   5.843   3.858
26670WAT     H180252   8.151   5.784   3.807
26670WAT     H280253   8.088   5.815   3.954
26671WAT      O80254   6.136   0.598   4.104
26671WAT     H180255   6.111   0.527   4.170
26671WAT     H280256   6.134   0.561   4.012
26672WAT      O80257   9.662   3.404   6.644
26672WAT     H180258   9.631   3.486   6.595
26672WAT     H280259   9.585   3.361   6.690
26673WAT      O80260   4.359   6.348   1.521
26673WAT     H180261   4.362   6.364   1.619
26673WAT     H280262   4.452   6.336   1.486
26674WAT      O80263   0.220   6.766   6.965
26674WAT     H180264   0.144   6.778   7.029
26674WAT     H280265   0.300   6.816   6.998
26675WAT      O80266   1.015   7.438   8.059
26675WAT     H180267   1.047   7.343   8.062
26675WAT     H280268   1.067   7.493   8.124
26676WAT      O80269   6.645   7.247   7.199
26676WAT     H180270   6.610   7.168   7.148
26676WAT     H280271   6.659   7.323   7.136
26677WAT      O80272   8.190   6.129   5.019
26677WAT     H180273   8.189   6.206   5.083
26677WAT     H280274   8.252   6.150   4.943
26678WAT      O80275   5.659   8.804   8.949
26678WAT     H180276   5.664   8.840   9.042
26678WAT     H280277   5.643   8.879   8.885
26679WAT      O80278   8.099   0.033   1.465
26679WAT     H180279   8.112   0.132   1.468
26679WAT     H280280   8.008   0.013   1.430
26680WAT      O80281   2.038   9.553   3.559
26680WAT     H180282   2.029   9.486   3.485
26680WAT     H280283   2.104   9.519   3.627
26681WAT      O80284   8.079   9.063   8.913
26681WAT     H180285   8.011   9.055   8.987
26681WAT     H280286   8.042   9.022   8.830
26682WAT      O80287   8.892   9.561   3.348
26682WAT     H180288   8.807   9.513   3.371
26682WAT     H280289   8.870   9.643   3.294
26683WAT      O80290   4.963   8.819   8.192
26683WAT     H180291   5.027   8.801   8.267
26683WAT     H280292   4.869   8.806   8.225
26684WAT      O80293   5.640   1.585   8.364
26684WAT     H180294   5.726   1.538   8.343
26684WAT     H280295   5.650   1.683   8.346
26685WAT      O80296   0.686   2.185   1.278
26685WAT     H180297   0.598   2.220   1.246
26685WAT     H280298   0.688   2.086   1.267
26686WAT      O80299   1.268   3.487   2.391
26686WAT     H180300   1.323   3.510   2.472
26686WAT     H280301   1.278   3.559   2.323
26687WAT      O80302   8.841   7.311   8.866
26687WAT     H180303   8.873   7.293   8.773
26687WAT     H280304   8.761   7.255   8.885
26688WAT      O80305   1.736   1.637   7.634
26688WAT     H180306   1.655   1.590   7.600
26688WAT     H280307   1.712   1.694   7.712
26689WAT      O80308   4.099   3.506   1.219
26689WAT     H180309   4.084   3.495   1.318
26689WAT     H280310   4.015   3.537   1.175
26690WAT      O80311   7.822   6.737   8.467
26690WAT     H180312   7.907   6.777   8.502
26690WAT     H280313   7.792   6.789   8.387
26691WAT      O80314   6.230   3.378   5.171
26691WAT     H180315   6.155   3.315   5.192
26691WAT     H280316   6.275   3.351   5.086
26692WAT      O80317   0.005   4.687   4.745
26692WAT     H180318   0.045   4.715   4.658
26692WAT     H280319   0.076   4.683   4.815
26693WAT      O80320   5.929   0.672   0.505
26693WAT     H180321   5.987   0.593   0.526
26693WAT     H280322   5.862   0.646   0.435
26694WAT      O80323   7.973   2.221   6.175
26694WAT     H180324   7.996   2.312   6.140
26694WAT     H280325   7.906   2.229   6.248
26695WAT      O80326   9.348   2.430   9.778
26695WAT     H180327   9.314   2.409   9.870
26695WAT     H280328   9.292   2.502   9.737
26696WAT      O80329   7.732   5.481   1.758
26696WAT     H180330   7.758   5.544   1.685
26696WAT     H280331   7.737   5.529   1.846
26697WAT      O80332   0.933   0.968   8.837
26697WAT     H180333   1.031   0.982   8.846
26697WAT     H280334   0.908   0.961   8.740
26698WAT      O80335   0.887   7.028   4.559
26698WAT     H180336   0.949   7.103   4.537
26698WAT     H280337   0.796   7.049   4.521
26699WAT      O80338   1.773   3.439   3.984
26699WAT     H180339   1.835   3.489   3.923
26699WAT     H280340   1.803   3.344   3.990
26700WAT      O80341   7.895   2.155   5.506
26700WAT     H180342   7.881   2.122   5.412
26700WAT     H280343   7.936   2.246   5.503
26701WAT      O80344   1.222   7.839   6.512
26701WAT     H180345   1.174   7.927   6.507
26701WAT     H280346   1.175   7.772   6.455
26702WAT      O80347   5.185   9.081   1.408
26702WAT     H180348   5.239   9.152   1.363
26702WAT     H280349   5.157   9.013   1.341
26703WAT      O80350   4.798   1.893   1.757
26703WAT     H180351   4.802   1.989   1.726
26703WAT     H280352   4.723   1.847   1.710
26704WAT      O80353   1.636   2.161   9.236
26704WAT     H180354   1.585   2.149   9.151
26704WAT     H280355   1.715   2.101   9.237
26705WAT      O80356   7.215   3.388   2.731
26705WAT     H180357   7.173   3.345   2.811
26705WAT     H280358   7.150   3.450   2.688
26706WAT      O80359   7.809   0.712   0.269
26706WAT     H180360   7.740   0.784   0.267
26706WAT     H280361   7.765   0.624   0.286
26707WAT      O80362   8.159   5.371   5.391
26707WAT     H180363   8.094   5.422   5.335
26707WAT     H280364   8.111   5.324   5.465
26708WAT      O80365   2.646   7.934   1.773
26708WAT     H180366   2.721   7.887   1.726
26708WAT     H280367   2.663   7.933   1.871
26709WAT      O80368   3.048   2.868   9.594
26709WAT     H180369   3.148   2.866   9.603
26709WAT     H280370   3.023   2.926   9.516
26710WAT      O80371   0.789   6.251   7.227
26710WAT     H180372   0.864   6.307   7.261
26710WAT     H280373   0.821   6.195   7.150
26711WAT      O80374   9.679   8.250   2.704
26711WAT     H180375   9.772   8.265   2.737
26711WAT     H280376   9.661   8.311   2.626
26712WAT      O80377   0.514   0.260   3.617
26712WAT     H180378   0.484   0.188   3.554
26712WAT     H280379   0.516   0.348   3.569
26713WAT      O80380   6.779   4.550   7.256
26713WAT     H180381   6.864   4.508   7.288
26713WAT     H280382   6.797   4.607   7.176
26714WAT      O80383   3.474   7.661   9.574
26714WAT     H180384   3.477   7.727   9.500
26714WAT     H280385   3.531   7.582   9.551
26715WAT      O80386   8.920   3.971   9.864
26715WAT     H180387   9.000   4.031   9.875
26715WAT     H280388   8.839   4.019   9.896
26716WAT      O80389   7.628   4.835   4.747
26716WAT     H180390   7.553   4.775   4.719
26716WAT     H280391   7.591   4.913   4.798
26717WAT      O80392   6.591   4.677   6.647
26717WAT     H180393   6.621   4.703   6.556
26717WAT     H280394   6.508   4.727   6.671
26718WAT      O80395   7.447   6.114   5.496
26718WAT     H180396   7.449   6.194   5.556
26718WAT     H280397   7.472   6.032   5.548
26719WAT      O80398   8.735   5.083   7.081
26719WAT     H180399   8.805   5.152   7.098
26719WAT     H280400   8.779   4.995   7.064
26720WAT      O80401   6.149   6.223   2.532
26720WAT     H180402   6.127   6.165   2.610
26720WAT     H280403   6.151   6.319   2.561
26721WAT      O80404   0.280   1.947   9.296
26721WAT     H180405   0.293   1.885   9.218
26721WAT     H280406   0.368   1.963   9.341
26722WAT      O80407   3.314   6.064   9.032
26722WAT     H180408   3.247   6.045   9.104
26722WAT     H280409   3.270   6.053   8.942
26723WAT      O80410   1.870   0.849   7.732
26723WAT     H180411   1.796   0.843   7.666
26723WAT     H280412   1.957   0.827   7.688
26724WAT      O80413   1.907   9.642   8.460
26724WAT     H180414   1.821   9.591   8.467
26724WAT     H280415   1.980   9.591   8.506
26725WAT      O80416   9.084   1.798   9.105
26725WAT     H180417   9.053   1.795   9.200
26725WAT     H280418   9.153   1.869   9.095
26726WAT      O80419   9.558   1.142   4.941
26726WAT     H180420   9.592   1.233   4.966
26726WAT     H280421   9.606   1.073   4.995
26727WAT      O80422   5.171   5.992   6.555
26727WAT     H180423   5.261   5.968   6.520
26727WAT     H280424   5.162   5.964   6.650
26728WAT      O80425   1.679   6.801   9.874
26728WAT     H180426   1.756   6.806   9.810
26728WAT     H280427   1.686   6.718   9.928
26729WAT      O80428   5.226   0.025   8.325
26729WAT     H180429   5.279   0.016   8.409
26729WAT     H280430   5.232  -0.060   8.273
26730WAT      O80431   2.392   4.132   5.619
26730WAT     H180432   2.431   4.186   5.544
26730WAT     H280433   2.455   4.057   5.641
26731WAT      O80434   0.636   5.896   8.497
26731WAT     H180435   0.558   5.924   8.441
26731WAT     H280436   0.611   5.900   8.594
26732WAT      O80437   9.511   5.063   1.369
26732WAT     H180438   9.572   4.991   1.336
26732WAT     H280439   9.427   5.022   1.404
26733WAT      O80440   1.602   4.336   8.867
26733WAT     H180441   1.560   4.348   8.777
26733WAT     H280442   1.570   4.408   8.929
26734WAT      O80443   7.448   9.592   8.531
26734WAT     H180444   7.424   9.554   8.442
26734WAT     H280445   7.365   9.604   8.585
26735WAT      O80446   8.151   6.816   5.822
26735WAT     H180447   8.159   6.789   5.918
26735WAT     H280448   8.202   6.751   5.765
26736WAT      O80449   2.153   5.623   2.930
26736WAT     H180450   2.082   5.592   2.867
26736WAT     H280451   2.227   5.556   2.932
26737WAT      O80452   0.595   8.926   8.556
26737WAT     H180453   0.571   8.991   8.483
26737WAT     H280454   0.652   8.972   8.624
26738WAT      O80455   7.645   1.103   7.447
26738WAT     H180456   7.638   1.056   7.536
26738WAT     H280457   7.606   1.045   7.376
26739WAT      O80458   9.547   5.013   8.232
26739WAT     H180459   9.456   5.030   8.193
26739WAT     H280460   9.586   4.930   8.192
26740WAT      O80461   5.049   9.015   8.963
26740WAT     H180462   5.128   9.008   9.023
26740WAT     H280463   4.972   9.054   9.014
26741WAT      O80464   5.807   5.691   0.097
26741WAT     H180465   5.782   5.662   0.005
26741WAT     H280466   5.727   5.729   0.143
26742WAT      O80467   3.898   8.052   7.048
26742WAT     H180468   3.897   8.041   6.949
26742WAT     H280469   3.816   8.009   7.087
26743WAT      O80470   6.071   3.791   9.273
26743WAT     H180471   5.984   3.794   9.322
26743WAT     H280472   6.095   3.883   9.241
26744WAT      O80473  -0.002   4.204   1.767
26744WAT     H180474   0.044   4.207   1.678
26744WAT     H280475   0.019   4.118   1.812
26745WAT      O80476   6.376   4.190   0.141
26745WAT     H180477   6.421   4.218   0.057
26745WAT     H280478   6.444   4.176   0.213
26746WAT      O80479   7.856   4.696   2.533
26746WAT     H180480   7.947   4.687   2.574
26746WAT     H280481   7.786   4.692   2.605
26747WAT      O80482   1.361   8.362   0.964
26747WAT     H180483   1.367   8.263   0.956
26747WAT     H280484   1.317   8.386   1.051
26748WAT      O80485   8.514   3.748   0.860
26748WAT     H180486   8.610   3.757   0.887
26748WAT     H280487   8.455   3.759   0.939
26749WAT      O80488   3.639   8.188   2.364
26749WAT     H180489   3.636   8.162   2.267
26749WAT     H280490   3.552   8.230   2.389
26750WAT      O80491   9.742   7.373   3.647
26750WAT     H180492   9.724   7.309   3.722
26750WAT     H280493   9.721   7.466   3.677
26751WAT      O80494   0.083   3.307   8.845
26751WAT     H180495  -0.013   3.286   8.865
26751WAT     H280496   0.139   3.226   8.859
26752WAT      O80497   2.156   0.842   4.982
26752WAT     H180498   2.213   0.769   5.020
26752WAT     H280499   2.206   0.890   4.910
26753WAT      O80500   8.776   1.991   6.002
26753WAT     H180501   8.747   2.086   6.008
26753WAT     H280502   8.707   1.937   5.955
26754WAT      O80503   6.853   1.860   8.758
26754WAT     H180504   6.935   1.814   8.723
26754WAT     H280505   6.881   1.939   8.813
26755WAT      O80506   8.343   5.146   1.887
26755WAT     H180507   8.264   5.092   1.916
26755WAT     H280508   8.419   5.085   1.866
26756WAT      O80509   3.819   8.929   2.651
26756WAT     H180510   3.782   9.020   2.635
26756WAT     H280511   3.807   8.873   2.569
26757WAT      O80512   5.028   2.874   6.313
26757WAT     H180513   4.963   2.807   6.350
26757WAT     H280514   4.993   2.909   6.226
26758WAT      O80515   3.372   3.615   1.193
26758WAT     H180516   3.297   3.663   1.150
26758WAT     H280517   3.455   3.671   1.190
26759WAT      O80518   7.074   4.872   1.143
26759WAT     H180519   7.045   4.812   1.218
26759WAT     H280520   7.173   4.869   1.134
26760WAT      O80521   6.479   5.796   8.145
26760WAT     H180522   6.513   5.730   8.212
26760WAT     H280523   6.546   5.805   8.071
26761WAT      O80524   6.410   5.652   9.306
26761WAT     H180525   6.342   5.587   9.270
26761WAT     H280526   6.478   5.602   9.360
26762WAT      O80527   4.011   9.059   0.572
26762WAT     H180528   3.972   8.968   0.565
26762WAT     H280529   4.110   9.054   0.558
26763WAT      O80530   0.400   9.807   3.115
26763WAT     H180531   0.327   9.762   3.166
26763WAT     H280532   0.392   9.906   3.127
26764WAT      O80533   6.163   3.563   4.675
26764WAT     H180534   6.191   3.569   4.579
26764WAT     H280535   6.135   3.654   4.707
26765WAT      O80536   0.356   2.958   0.503
26765WAT     H180537   0.416   2.992   0.575
26765WAT     H280538   0.268   2.933   0.542
26766WAT      O80539   1.748   1.460   8.825
26766WAT     H180540   1.667   1.519   8.820
26766WAT     H280541   1.745   1.393   8.751
26767WAT      O80542   6.949   5.397   5.560
26767WAT     H180543   7.026   5.335   5.544
26767WAT     H280544   6.864   5.344   5.563
26768WAT      O80545   1.996   6.030   4.476
26768WAT     H180546   1.980   6.129   4.484
26768WAT     H280547   1.916   5.986   4.437
26769WAT      O80548   8.927   0.084   6.139
26769WAT     H180549   8.907   0.038   6.052
26769WAT     H280550   8.845   0.086   6.196
26770WAT      O80551   2.549   1.241   6.986
26770WAT     H180552   2.564   1.286   7.074
26770WAT     H280553   2.456   1.204   6.982
26771WAT      O80554   3.629   4.770   1.819
26771WAT     H180555   3.584   4.712   1.751
26771WAT     H280556   3.626   4.724   1.908
26772WAT      O80557   7.464   5.699   2.461
26772WAT     H180558   7.505   5.660   2.544
26772WAT     H280559   7.532   5.752   2.412
26773WAT      O80560   7.029   5.090   7.782
26773WAT     H180561   7.114   5.042   7.804
26773WAT     H280562   6.968   5.088   7.861
26774WAT      O80563   5.931   7.169   3.129
26774WAT     H180564   5.876   7.252   3.141
26774WAT     H280565   6.019   7.180   3.175
26775WAT      O80566   8.199   1.347   5.773
26775WAT     H180567   8.183   1.388   5.683
26775WAT     H280568   8.206   1.419   5.842
26776WAT      O80569   8.933   0.663   1.694
26776WAT     H180570   8.989   0.737   1.732
26776WAT     H280571   8.968   0.637   1.604
26777WAT      O80572   7.337   8.631   8.744
26777WAT     H180573   7.279   8.694   8.691
26777WAT     H280574   7.310   8.537   8.724
26778WAT      O80575   3.923   5.806   1.952
26778WAT     H180576   3.903   5.856   1.868
26778WAT     H280577   3.855   5.733   1.964
26779WAT      O80578   5.752   1.460   1.048
26779WAT     H180579   5.669   1.486   0.999
26779WAT     H280580   5.832   1.493   0.998
26780WAT      O80581   7.350   4.049   0.329
26780WAT     H180582   7.297   4.044   0.414
26780WAT     H280583   7.370   3.957   0.297
26781WAT      O80584   8.879   6.957   3.734
26781WAT     H180585   8.854   6.933   3.640
26781WAT     H280586   8.844   6.888   3.796
26782WAT      O80587   4.399   0.361   7.590
26782WAT     H180588   4.484   0.411   7.571
26782WAT     H280589   4.409   0.311   7.676
26783WAT      O80590   9.826   4.534   5.551
26783WAT     H180591   9.834   4.484   5.637
26783WAT     H280592   9.841   4.471   5.475
26784WAT      O80593   8.409   0.817   0.946
26784WAT     H180594   8.461   0.739   0.911
26784WAT     H280595   8.424   0.825   1.045
26785WAT      O80596   8.580   2.161   2.040
26785WAT     H180597   8.545   2.181   1.948
26785WAT     H280598   8.530   2.084   2.079
26786WAT      O80599   9.132   3.884   7.158
26786WAT     H180600   9.154   3.850   7.067
26786WAT     H280601   9.033   3.876   7.174
26787WAT      O80602   6.456   2.767   6.550
26787WAT     H180603   6.462   2.800   6.456
26787WAT     H280604   6.534   2.800   6.602
26788WAT      O80605   5.198   4.312   5.198
26788WAT     H180606   5.242   4.257   5.269
26788WAT     H280607   5.179   4.255   5.118
26789WAT      O80608   8.557   7.562   5.144
26789WAT     H180609   8.590   7.534   5.054
26789WAT     H280610   8.463   7.595   5.137
26790WAT      O80611   7.299   9.032   8.636
26790WAT     H180612   7.220   8.981   8.671
26790WAT     H280613   7.338   8.984   8.558
26791WAT      O80614   4.090   0.098   8.357
26791WAT     H180615   4.187   0.124   8.356
26791WAT     H280616   4.081   0.004   8.389
26792WAT      O80617   0.435   8.695   6.792
26792WAT     H180618   0.505   8.760   6.762
26792WAT     H280619   0.344   8.731   6.770
26793WAT      O80620   2.539   2.238   1.177
26793WAT     H180621   2.484   2.311   1.135
26793WAT     H280622   2.531   2.155   1.123
26794WAT      O80623   9.173   9.028   1.666
26794WAT     H180624   9.231   9.068   1.737
26794WAT     H280625   9.101   8.972   1.709
26795WAT      O80626   0.664   4.111   9.034
26795WAT     H180627   0.616   4.030   9.002
26795WAT     H280628   0.615   4.150   9.113
26796WAT      O80629   9.403   4.866   9.740
26796WAT     H180630   9.454   4.938   9.694
26796WAT     H280631   9.429   4.864   9.837
26797WAT      O80632   9.552   8.461   8.517
26797WAT     H180633   9.577   8.465   8.420
26797WAT     H280634   9.628   8.423   8.569
26798WAT      O80635   1.097   5.412   1.466
26798WAT     H180636   1.158   5.427   1.544
26798WAT     H280637   1.145   5.436   1.381
26799WAT      O80638   7.008   4.485   0.374
26799WAT     H180639   6.984   4.390   0.396
26799WAT     H280640   7.084   4.486   0.310
26800WAT      O80641   2.714   3.344   3.759
26800WAT     H180642   2.802   3.391   3.752
26800WAT     H280643   2.642   3.403   3.722
26801WAT      O80644   9.232   6.080   0.934
26801WAT     H180645   9.172   6.044   1.006
26801WAT     H280646   9.256   6.006   0.871
26802WAT      O80647   7.894   1.342   5.166
26802WAT     H180648   7.810   1.368   5.118
26802WAT     H280649   7.872   1.316   5.260
26803WAT      O80650   0.574   1.300   6.276
26803WAT     H180651   0.615   1.296   6.185
26803WAT     H280652   0.627   1.244   6.339
26804WAT      O80653   5.005   9.668   6.261
26804WAT     H180654   4.957   9.730   6.324
26804WAT     H280655   5.061   9.722   6.199
26805WAT      O80656   7.929   9.562   5.707
26805WAT     H180657   7.886   9.651   5.696
26805WAT     H280658   7.992   9.545   5.631
26806WAT      O80659   8.801   0.210   0.711
26806WAT     H180660   8.744   0.193   0.792
26806WAT     H280661   8.748   0.189   0.629
26807WAT      O80662   3.980   0.090   3.893
26807WAT     H180663   4.014   0.176   3.931
26807WAT     H280664   3.923   0.044   3.961
26808WAT      O80665   1.356   0.811   5.410
26808WAT     H180666   1.264   0.818   5.372
26808WAT     H280667   1.383   0.898   5.450
26809WAT      O80668   2.877   7.312   2.468
26809WAT     H180669   2.908   7.218   2.484
26809WAT     H280670   2.955   7.369   2.443
26810WAT      O80671   0.023   7.181   1.652
26810WAT     H180672  -0.040   7.118   1.606
26810WAT     H280673   0.083   7.129   1.713
26811WAT      O80674   8.321   4.783   0.448
26811WAT     H180675   8.293   4.853   0.514
26811WAT     H280676   8.421   4.777   0.447
26812WAT      O80677   6.279   1.806   0.954
26812WAT     H180678   6.317   1.896   0.973
26812WAT     H280679   6.270   1.754   1.039
26813WAT      O80680   5.681   9.105   7.195
26813WAT     H180681   5.681   9.201   7.222
26813WAT     H280682   5.630   9.052   7.263
26814WAT      O80683   2.265   7.518   4.847
26814WAT     H180684   2.268   7.476   4.938
26814WAT     H280685   2.350   7.569   4.831
26815WAT      O80686   1.547   3.557   8.786
26815WAT     H180687   1.459   3.604   8.775
26815WAT     H280688   1.619   3.625   8.804
26816WAT      O80689   2.279   0.045   7.226
26816WAT     H180690   2.289   0.089   7.315
26816WAT     H280691   2.365   0.000   7.201
26817WAT      O80692   1.322   0.792   4.988
26817WAT     H180693   1.235   0.789   4.938
26817WAT     H280694   1.333   0.881   5.032
26818WAT      O80695   9.621   8.484   5.061
26818WAT     H180696   9.544   8.546   5.074
26818WAT     H280697   9.686   8.495   5.136
26819WAT      O80698   0.238   8.795   4.557
26819WAT     H180699   0.305   8.723   4.538
26819WAT     H280700   0.252   8.871   4.494
26820WAT      O80701   1.198   9.530   7.257
26820WAT     H180702   1.136   9.607   7.274
26820WAT     H280703   1.154   9.445   7.286
26821WAT      O80704   1.114   0.616   2.863
26821WAT     H180705   1.146   0.532   2.907
26821WAT     H280706   1.184   0.687   2.871
26822WAT      O80707   5.039   7.335   4.284
26822WAT     H180708   4.984   7.379   4.213
26822WAT     H280709   5.131   7.374   4.286
26823WAT      O80710   0.175   4.061   7.205
26823WAT     H180711   0.084   4.032   7.235
26823WAT     H280712   0.169   4.153   7.165
26824WAT      O80713   4.103   8.957   4.370
26824WAT     H180714   4.082   8.896   4.294
26824WAT     H280715   4.152   9.037   4.336
26825WAT      O80716   6.559   8.692   4.669
26825WAT     H180717   6.533   8.634   4.592
26825WAT     H280718   6.658   8.710   4.666
26826WAT      O80719   8.848   8.177   5.309
26826WAT     H180720   8.870   8.093   5.261
26826WAT     H280721   8.933   8.222   5.338
26827WAT      O80722   4.229   3.540   8.698
26827WAT     H180723   4.266   3.447   8.690
26827WAT     H280724   4.177   3.562   8.616
26828WAT      O80725   3.357   0.809   4.373
26828WAT     H180726   3.261   0.819   4.350
26828WAT     H280727   3.413   0.861   4.308
26829WAT      O80728   4.133   1.664   9.505
26829WAT     H180729   4.147   1.751   9.458
26829WAT     H280730   4.036   1.641   9.503
26830WAT      O80731   0.270   0.763   0.209
26830WAT     H180732   0.236   0.848   0.169
26830WAT     H280733   0.196   0.716   0.257
26831WAT      O80734   8.966   1.643   2.920
26831WAT     H180735   8.905   1.691   2.983
26831WAT     H280736   8.979   1.698   2.838
26832WAT      O80737   9.676   2.547   3.600
26832WAT     H180738   9.684   2.558   3.501
26832WAT     H280739   9.684   2.450   3.623
26833WAT      O80740   8.885   0.939   1.922
26833WAT     H180741   8.833   0.891   1.851
26833WAT     H280742   8.834   0.936   2.008
26834WAT      O80743   3.779   1.549   2.265
26834WAT     H180744   3.840   1.627   2.278
26834WAT     H280745   3.685   1.581   2.255
26835WAT      O80746   7.422   2.841   0.162
26835WAT     H180747   7.392   2.839   0.257
26835WAT     H280748   7.350   2.880   0.105
26836WAT      O80749   3.189   0.564   2.741
26836WAT     H180750   3.104   0.520   2.713
26836WAT     H280751   3.169   0.653   2.783
26837WAT      O80752   5.796   0.485   6.432
26837WAT     H180753   5.792   0.534   6.519
26837WAT     H280754   5.844   0.541   6.365
26838WAT      O80755   0.891   9.187   7.652
26838WAT     H180756   0.819   9.123   7.626
26838WAT     H280757   0.949   9.145   7.722
26839WAT      O80758   4.986   1.576   8.219
26839WAT     H180759   5.060   1.530   8.268
26839WAT     H280760   4.913   1.510   8.200
26840WAT      O80761   6.775   5.005   5.079
26840WAT     H180762   6.749   5.101   5.095
26840WAT     H280763   6.737   4.975   4.992
26841WAT      O80764   0.591   6.163   5.603
26841WAT     H180765   0.552   6.136   5.691
26841WAT     H280766   0.591   6.085   5.541
26842WAT      O80767   2.055   0.044   2.292
26842WAT     H180768   2.084  -0.009   2.213
26842WAT     H280769   1.992  -0.010   2.347
26843WAT      O80770   5.703   9.330   0.878
26843WAT     H180771   5.716   9.419   0.922
26843WAT     H280772   5.668   9.345   0.785
26844WAT      O80773   7.273   3.593   7.591
26844WAT     H180774   7.338   3.519   7.610
26844WAT     H280775   7.315   3.681   7.613
26845WAT      O80776   1.804   7.639   3.346
26845WAT     H180777   1.877   7.651   3.413
26845WAT     H280778   1.731   7.582   3.385
26846WAT      O80779   4.648   9.443   3.060
26846WAT     H180780   4.591   9.390   2.997
26846WAT     H280781   4.620   9.539   3.058
26847WAT      O80782   7.130   5.600   3.476
26847WAT     H180783   7.131   5.673   3.544
26847WAT     H280784   7.076   5.629   3.397
26848WAT      O80785   1.001   9.129   9.341
26848WAT     H180786   1.062   9.166   9.411
26848WAT     H280787   0.952   9.203   9.295
26849WAT      O80788   1.122   3.213   1.321
26849WAT     H180789   1.187   3.277   1.280
26849WAT     H280790   1.092   3.248   1.410
26850WAT      O80791   2.591   1.510   6.352
26850WAT     H180792   2.627   1.601   6.328
26850WAT     H280793   2.626   1.484   6.442
26851WAT      O80794   8.802   2.119   8.182
26851WAT     H180795   8.717   2.158   8.146
26851WAT     H280796   8.874   2.189   8.182
26852WAT      O80797   0.135   8.449   3.822
26852WAT     H180798   0.082   8.534   3.823
26852WAT     H280799   0.216   8.461   3.764
26853WAT      O80800   1.842   5.020   7.790
26853WAT     H180801   1.811   5.102   7.741
26853WAT     H280802   1.789   4.941   7.758
26854WAT      O80803   8.427   4.937   5.885
26854WAT     H180804   8.489   4.871   5.844
26854WAT     H280805   8.475   5.024   5.898
26855WAT      O80806   5.493   1.189   5.518
26855WAT     H180807   5.449   1.103   5.491
26855WAT     H280808   5.480   1.257   5.446
26856WAT      O80809   2.420   5.749   1.132
26856WAT     H180810   2.378   5.741   1.042
26856WAT     H280811   2.426   5.659   1.174
26857WAT      O80812   9.215   3.045   6.960
26857WAT     H180813   9.116   3.051   6.943
26857WAT     H280814   9.260   3.125   6.921
26858WAT      O80815   9.105   9.228   2.731
26858WAT     H180816   9.198   9.190   2.730
26858WAT     H280817   9.041   9.161   2.692
26859WAT      O80818   0.074   8.310   4.562
26859WAT     H180819   0.003   8.294   4.630
26859WAT     H280820   0.122   8.225   4.543
26860WAT      O80821   3.695   8.322   4.001
26860WAT     H180822   3.631   8.373   4.059
26860WAT     H280823   3.678   8.344   3.905
26861WAT      O80824   6.677   3.060   9.697
26861WAT     H180825   6.693   3.073   9.599
26861WAT     H280826   6.651   3.147   9.738
26862WAT      O80827   4.294   1.012   4.311
26862WAT     H180828   4.275   1.030   4.214
26862WAT     H280829   4.326   1.095   4.355
26863WAT      O80830   1.196   3.429   8.774
26863WAT     H180831   1.203   3.529   8.765
26863WAT     H280832   1.228   3.402   8.865
26864WAT      O80833   0.612   1.114   7.935
26864WAT     H180834   0.684   1.112   8.004
26864WAT     H280835   0.652   1.127   7.844
26865WAT      O80836   7.824   7.546   5.816
26865WAT     H180837   7.798   7.594   5.731
26865WAT     H280838   7.782   7.456   5.816
26866WAT      O80839   9.409   9.573   6.488
26866WAT     H180840   9.377   9.480   6.471
26866WAT     H280841   9.478   9.571   6.561
26867WAT      O80842   8.026   6.642   6.881
26867WAT     H180843   8.004   6.633   6.978
26867WAT     H280844   7.941   6.661   6.830
26868WAT      O80845   1.485   0.122   4.945
26868WAT     H180846   1.419   0.185   4.985
26868WAT     H280847   1.475   0.121   4.845
26869WAT      O80848   7.854   2.995   2.744
26869WAT     H180849   7.952   2.978   2.755
26869WAT     H280850   7.812   3.007   2.834
26870WAT      O80851   0.837   7.459   0.764
26870WAT     H180852   0.744   7.451   0.726
26870WAT     H280853   0.854   7.554   0.790
26871WAT      O80854   2.801   6.542   2.157
26871WAT     H180855   2.743   6.504   2.085
26871WAT     H280856   2.888   6.572   2.117
26872WAT      O80857   9.406   6.611   7.890
26872WAT     H180858   9.408   6.701   7.934
26872WAT     H280859   9.496   6.592   7.850
26873WAT      O80860   8.618   6.323   0.499
26873WAT     H180861   8.604   6.231   0.536
26873WAT     H280862   8.554   6.387   0.542
26874WAT      O80863   8.911   3.584   3.858
26874WAT     H180864   8.866   3.587   3.769
26874WAT     H280865   8.935   3.489   3.879
26875WAT      O80866   6.331   3.854   0.293
26875WAT     H180867   6.331   3.772   0.350
26875WAT     H280868   6.345   3.935   0.350
26876WAT      O80869   7.449   2.065   1.126
26876WAT     H180870   7.384   2.023   1.063
26876WAT     H280871   7.404   2.136   1.180
26877WAT      O80872   8.723   3.378   7.226
26877WAT     H180873   8.645   3.423   7.183
26877WAT     H280874   8.790   3.352   7.156
26878WAT      O80875   3.978   7.698   9.235
26878WAT     H180876   4.016   7.685   9.326
26878WAT     H280877   3.896   7.640   9.224
26879WAT      O80878   3.658   3.276   1.439
26879WAT     H180879   3.701   3.354   1.483
26879WAT     H280880   3.578   3.306   1.386
26880WAT      O80881   5.952   8.960   7.956
26880WAT     H180882   5.952   8.868   7.995
26880WAT     H280883   6.043   8.981   7.920
26881WAT      O80884   7.158   8.055   9.397
26881WAT     H180885   7.093   8.111   9.346
26881WAT     H280886   7.242   8.107   9.413
26882WAT      O80887   3.263   4.236   0.070
26882WAT     H180888   3.331   4.235  -0.003
26882WAT     H280889   3.182   4.186   0.041
26883WAT      O80890   5.310   7.173   3.598
26883WAT     H180891   5.308   7.247   3.664
26883WAT     H280892   5.233   7.183   3.535
26884WAT      O80893   6.472   2.101   4.902
26884WAT     H180894   6.454   2.142   4.991
26884WAT     H280895   6.403   2.133   4.837
26885WAT      O80896   0.485   6.329   7.973
26885WAT     H180897   0.520   6.385   7.898
26885WAT     H280898   0.461   6.388   8.050
26886WAT      O80899   1.969   4.034   9.751
26886WAT     H180900   1.925   3.948   9.774
26886WAT     H280901   2.068   4.022   9.748
26887WAT      O80902   7.660   5.261   4.800
26887WAT     H180903   7.569   5.220   4.800
26887WAT     H280904   7.683   5.293   4.892
26888WAT      O80905   6.817   1.195   2.935
26888WAT     H180906   6.737   1.194   2.875
26888WAT     H280907   6.900   1.188   2.880
26889WAT      O80908   0.140   4.802   6.031
26889WAT     H180909   0.103   4.763   6.115
26889WAT     H280910   0.129   4.736   5.956
26890WAT      O80911   5.632   2.391   8.516
26890WAT     H180912   5.718   2.366   8.561
26890WAT     H280913   5.618   2.489   8.524
26891WAT      O80914   9.782   0.334   5.580
26891WAT     H180915   9.877   0.324   5.609
26891WAT     H280916   9.762   0.268   5.508
26892WAT      O80917   5.746   4.045   8.512
26892WAT     H180918   5.766   4.057   8.609
26892WAT     H280919   5.783   4.123   8.460
26893WAT      O80920   5.651   6.191   2.062
26893WAT     H180921   5.573   6.227   2.113
26893WAT     H280922   5.644   6.220   1.966
26894WAT      O80923   3.509   2.513   3.612
26894WAT     H180924   3.574   2.575   3.568
26894WAT     H280925   3.559   2.443   3.663
26895WAT      O80926   8.802   8.578   7.136
26895WAT     H180927   8.757   8.644   7.078
26895WAT     H280928   8.799   8.609   7.231
26896WAT      O80929   8.042   9.454   5.927
26896WAT     H180930   7.971   9.454   5.998
26896WAT     H280931   8.002   9.486   5.841
26897WAT      O80932   1.207   9.443   2.381
26897WAT     H180933   1.236   9.348   2.392
26897WAT     H280934   1.266   9.488   2.314
26898WAT      O80935   4.569   4.497   9.251
26898WAT     H180936   4.651   4.451   9.286
26898WAT     H280937   4.563   4.589   9.291
26899WAT      O80938   8.407   4.672   9.770
26899WAT     H180939   8.411   4.607   9.694
26899WAT     H280940   8.319   4.719   9.769
26900WAT      O80941   8.766   6.408   3.919
26900WAT     H180942   8.787   6.458   3.835
26900WAT     H280943   8.840   6.345   3.941
26901WAT      O80944   5.571   2.367   5.336
26901WAT     H180945   5.549   2.354   5.239
26901WAT     H280946   5.614   2.456   5.348
26902WAT      O80947   6.668   1.067   5.049
26902WAT     H180948   6.728   1.145   5.066
26902WAT     H280949   6.643   1.066   4.952
26903WAT      O80950   7.360   4.560   7.825
26903WAT     H180951   7.456   4.556   7.798
26903WAT     H280952   7.351   4.618   7.906
26904WAT      O80953   7.591   5.949   6.340
26904WAT     H180954   7.601   6.037   6.387
26904WAT     H280955   7.504   5.907   6.366
26905WAT      O80956   8.676   8.263   5.071
26905WAT     H180957   8.719   8.207   5.143
26905WAT     H280958   8.606   8.321   5.112
26906WAT      O80959   2.006   0.211   5.870
26906WAT     H180960   2.041   0.121   5.844
26906WAT     H280961   2.077   0.260   5.922
26907WAT      O80962   7.260   2.765   6.687
26907WAT     H180963   7.228   2.672   6.702
26907WAT     H280964   7.337   2.764   6.624
26908WAT      O80965   9.620   9.174   1.782
26908WAT     H180966   9.627   9.273   1.779
26908WAT     H280967   9.677   9.134   1.710
26909WAT      O80968   0.828   9.733   4.823
26909WAT     H180969   0.757   9.779   4.875
26909WAT     H280970   0.917   9.747   4.866
26910WAT      O80971   4.712   7.184   9.860
26910WAT     H180972   4.707   7.284   9.851
26910WAT     H280973   4.671   7.157   9.947
26911WAT      O80974   7.459   5.106   0.999
26911WAT     H180975   7.414   5.195   1.008
26911WAT     H280976   7.496   5.097   0.906
26912WAT      O80977   4.545   0.622   0.546
26912WAT     H180978   4.578   0.639   0.453
26912WAT     H280979   4.480   0.694   0.572
26913WAT      O80980   6.146   1.581   8.092
26913WAT     H180981   6.054   1.619   8.087
26913WAT     H280982   6.142   1.481   8.083
26914WAT      O80983   2.926   2.072   7.455
26914WAT     H180984   2.976   1.992   7.423
26914WAT     H280985   2.847   2.043   7.509
26915WAT      O80986   5.600   0.850   9.545
26915WAT     H180987   5.511   0.847   9.500
26915WAT     H280988   5.587   0.856   9.644
26916WAT      O80989   8.984   9.270   9.342
26916WAT     H180990   8.945   9.204   9.278
26916WAT     H280991   8.920   9.345   9.356
26917WAT      O80992   9.600   7.255   6.752
26917WAT     H180993   9.621   7.340   6.801
26917WAT     H280994   9.501   7.242   6.749
26918WAT      O80995   3.697   9.018   9.806
26918WAT     H180996   3.670   9.010   9.902
26918WAT     H280997   3.696   9.114   9.779
26919WAT      O80998   5.297   4.149   7.352
26919WAT     H180999   5.361   4.150   7.429
26919WAT     H281000   5.211   4.107   7.381
26920WAT      O81001   2.815   5.646   1.312
26920WAT     H181002   2.907   5.614   1.292
26920WAT     H281003   2.753   5.567   1.322
26921WAT      O81004   0.724   8.717   0.906
26921WAT     H181005   0.797   8.769   0.949
26921WAT     H281006   0.649   8.779   0.881
26922WAT      O81007   7.991   4.394   0.439
26922WAT     H181008   7.927   4.444   0.499
26922WAT     H281009   8.006   4.302   0.475
26923WAT      O81010   5.557   2.087   8.570
26923WAT     H181011   5.598   2.158   8.513
26923WAT     H281012   5.574   2.107   8.666
26924WAT      O81013   7.778   8.586   2.764
26924WAT     H181014   7.858   8.626   2.808
26924WAT     H281015   7.805   8.544   2.677
26925WAT      O81016   8.537   2.521   4.606
26925WAT     H181017   8.470   2.581   4.651
26925WAT     H281018   8.492   2.469   4.534
26926WAT      O81019   6.136   5.728   9.768
26926WAT     H181020   6.131   5.629   9.753
26926WAT     H281021   6.224   5.750   9.812
26927WAT      O81022   7.237   8.462   9.573
26927WAT     H181023   7.149   8.446   9.616
26927WAT     H281024   7.271   8.376   9.533
26928WAT      O81025   0.443   6.057   3.873
26928WAT     H181026   0.440   6.156   3.857
26928WAT     H281027   0.478   6.040   3.965
26929WAT      O81028   6.951   8.253   5.988
26929WAT     H181029   6.891   8.234   5.910
26929WAT     H281030   6.993   8.167   6.019
26930WAT      O81031   8.461   6.113   8.897
26930WAT     H181032   8.516   6.029   8.898
26930WAT     H281033   8.415   6.122   8.809
26931WAT      O81034   6.846   5.328   7.326
26931WAT     H181035   6.816   5.421   7.306
26931WAT     H281036   6.840   5.311   7.424
26932WAT      O81037   9.360   5.509   9.828
26932WAT     H181038   9.343   5.484   9.733
26932WAT     H281039   9.413   5.594   9.830
26933WAT      O81040   1.171   0.060   8.308
26933WAT     H181041   1.201  -0.013   8.246
26933WAT     H281042   1.187   0.149   8.265
26934WAT      O81043   8.169   0.102   4.289
26934WAT     H181044   8.209   0.126   4.201
26934WAT     H281045   8.237   0.054   4.344
26935WAT      O81046   9.838   9.462   8.252
26935WAT     H181047   9.764   9.521   8.221
26935WAT     H281048   9.829   9.446   8.351
26936WAT      O81049   4.177   8.973   5.631
26936WAT     H181050   4.134   8.896   5.585
26936WAT     H281051   4.129   8.992   5.717
26937WAT      O81052   4.219   3.405   9.561
26937WAT     H181053   4.302   3.373   9.517
26937WAT     H281054   4.155   3.437   9.492
26938WAT      O81055   5.432   2.145   8.255
26938WAT     H181056   5.382   2.191   8.182
26938WAT     H281057   5.369   2.091   8.311
26939WAT      O81058   0.541   8.156   7.884
26939WAT     H181059   0.497   8.230   7.937
26939WAT     H281060   0.569   8.192   7.795
26940WAT      O81061   7.677   6.818   6.020
26940WAT     H181062   7.650   6.861   5.934
26940WAT     H281063   7.748   6.873   6.064
26941WAT      O81064   8.330   4.037   5.785
26941WAT     H181065   8.366   4.045   5.692
26941WAT     H281066   8.395   4.078   5.849
26942WAT      O81067   8.672   9.483   5.886
26942WAT     H181068   8.769   9.508   5.881
26942WAT     H281069   8.617   9.565   5.902
26943WAT      O81070   0.389   2.977   4.526
26943WAT     H181071   0.362   2.881   4.516
26943WAT     H281072   0.308   3.034   4.534
26944WAT      O81073   8.741   0.892   5.289
26944WAT     H181074   8.685   0.851   5.361
26944WAT     H281075   8.733   0.991   5.292
26945WAT      O81076   3.845   5.416   6.634
26945WAT     H181077   3.798   5.345   6.687
26945WAT     H281078   3.844   5.502   6.686
26946WAT      O81079   3.933   9.035   5.333
26946WAT     H181080   3.999   9.109   5.350
26946WAT     H281081   3.981   8.948   5.334
26947WAT      O81082   2.240   2.244   3.133
26947WAT     H181083   2.195   2.333   3.117
26947WAT     H281084   2.325   2.259   3.183
26948WAT      O81085   1.361   5.265   9.279
26948WAT     H181086   1.291   5.254   9.349
26948WAT     H281087   1.323   5.241   9.189
26949WAT      O81088   9.504   6.985   6.583
26949WAT     H181089   9.442   6.963   6.659
26949WAT     H281090   9.591   7.018   6.619
26950WAT      O81091   3.031   9.742   9.583
26950WAT     H181092   2.968   9.814   9.611
26950WAT     H281093   3.123   9.780   9.573
26951WAT      O81094   6.572   8.144   9.807
26951WAT     H181095   6.501   8.171   9.742
26951WAT     H281096   6.530   8.121   9.895
26952WAT      O81097   8.488   9.375   8.262
26952WAT     H181098   8.470   9.341   8.355
26952WAT     H281099   8.555   9.316   8.218
26953WAT      O81100   6.556   5.020   7.031
26953WAT     H181101   6.639   5.058   7.073
26953WAT     H281102   6.517   5.087   6.968
26954WAT      O81103   9.317   3.301   4.568
26954WAT     H181104   9.350   3.210   4.594
26954WAT     H281105   9.222   3.311   4.599
26955WAT      O81106   3.652   8.740   8.214
26955WAT     H181107   3.748   8.750   8.238
26955WAT     H281108   3.643   8.671   8.142
26956WAT      O81109   9.737   8.840   1.611
26956WAT     H181110   9.707   8.790   1.530
26956WAT     H281111   9.777   8.776   1.677
26957WAT      O81112   4.459   3.016   8.947
26957WAT     H181113   4.523   3.051   9.015
26957WAT     H281114   4.406   2.941   8.987
26958WAT      O81115   2.646   9.832   6.155
26958WAT     H181116   2.670   9.770   6.231
26958WAT     H281117   2.648   9.781   6.069
26959WAT      O81118   9.420   9.666   6.238
26959WAT     H181119   9.484   9.613   6.183
26959WAT     H281120   9.434   9.646   6.335
26960WAT      O81121   2.502   0.661   2.290
26960WAT     H181122   2.600   0.652   2.311
26960WAT     H281123   2.449   0.604   2.353
26961WAT      O81124   9.278   6.880   8.766
26961WAT     H181125   9.214   6.957   8.759
26961WAT     H281126   9.361   6.911   8.812
26962WAT      O81127   8.027   2.587   4.295
26962WAT     H181128   7.959   2.577   4.367
26962WAT     H281129   8.007   2.523   4.220
26963WAT      O81130   6.603   3.428   0.346
26963WAT     H181131   6.604   3.408   0.443
26963WAT     H281132   6.528   3.380   0.302
26964WAT      O81133   5.457   8.355   4.873
26964WAT     H181134   5.526   8.290   4.904
26964WAT     H281135   5.497   8.419   4.808
26965WAT      O81136   9.215   2.776   8.612
26965WAT     H181137   9.238   2.792   8.708
26965WAT     H281138   9.223   2.862   8.561
26966WAT      O81139   6.410   3.576   2.988
26966WAT     H181140   6.338   3.618   3.043
26966WAT     H281141   6.467   3.648   2.947
26967WAT      O81142   6.465   8.700   2.047
26967WAT     H181143   6.371   8.697   2.081
26967WAT     H281144   6.493   8.609   2.017
26968WAT      O81145   6.345   2.885   7.266
26968WAT     H181146   6.335   2.977   7.305
26968WAT     H281147   6.436   2.849   7.289
26969WAT      O81148   8.610   4.773   0.667
26969WAT     H181149   8.526   4.739   0.708
26969WAT     H281150   8.633   4.717   0.587
26970WAT      O81151   5.393   7.665   0.383
26970WAT     H181152   5.485   7.641   0.352
26970WAT     H281153   5.398   7.731   0.458
26971WAT      O81154   9.320   5.507   6.380
26971WAT     H181155   9.286   5.450   6.305
26971WAT     H281156   9.285   5.600   6.369
26972WAT      O81157   2.072   8.265   2.475
26972WAT     H181158   2.074   8.212   2.390
26972WAT     H281159   2.077   8.363   2.453
26973WAT      O81160   5.805   0.422   3.765
26973WAT     H181161   5.713   0.414   3.804
26973WAT     H281162   5.872   0.385   3.829
26974WAT      O81163   0.479   3.697   8.476
26974WAT     H181164   0.409   3.647   8.528
26974WAT     H281165   0.471   3.795   8.494
26975WAT      O81166   8.780   3.755   0.962
26975WAT     H181167   8.790   3.825   1.031
26975WAT     H281168   8.864   3.748   0.908
26976WAT      O81169   6.056   0.887   6.177
26976WAT     H181170   6.091   0.926   6.262
26976WAT     H281171   5.971   0.837   6.195
26977WAT      O81172   6.690   6.770   4.381
26977WAT     H181173   6.728   6.699   4.441
26977WAT     H281174   6.713   6.860   4.418
26978WAT      O81175   9.723   5.907   9.829
26978WAT     H181176   9.821   5.914   9.810
26978WAT     H281177   9.679   5.995   9.811
26979WAT      O81178   3.337   3.538   1.764
26979WAT     H181179   3.327   3.439   1.750
26979WAT     H281180   3.357   3.556   1.860
26980WAT      O81181   4.644   9.539   8.681
26980WAT     H181182   4.661   9.608   8.751
26980WAT     H281183   4.546   9.523   8.673
26981WAT      O81184   8.840   4.577   8.504
26981WAT     H181185   8.803   4.556   8.594
26981WAT     H281186   8.808   4.509   8.438
26982WAT      O81187   3.813   0.731   4.492
26982WAT     H181188   3.769   0.705   4.406
26982WAT     H281189   3.911   0.744   4.477
26983WAT      O81190   1.002   8.791   9.168
26983WAT     H181191   1.019   8.879   9.125
26983WAT     H281192   1.003   8.719   9.099
26984WAT      O81193   4.696   5.335   1.727
26984WAT     H181194   4.667   5.241   1.744
26984WAT     H281195   4.753   5.338   1.645
26985WAT      O81196   3.652   9.360   6.775
26985WAT     H181197   3.666   9.356   6.874
26985WAT     H281198   3.726   9.413   6.734
26986WAT      O81199   9.183   5.758   5.397
26986WAT     H181200   9.193   5.833   5.462
26986WAT     H281201   9.088   5.754   5.366
26987WAT      O81202   8.961   5.324   8.116
26987WAT     H181203   8.946   5.402   8.176
26987WAT     H281204   8.942   5.239   8.166
26988WAT      O81205   2.546   4.854   4.728
26988WAT     H181206   2.503   4.828   4.815
26988WAT     H281207   2.627   4.798   4.713
26989WAT      O81208   9.667   8.605   6.237
26989WAT     H181209   9.653   8.513   6.200
26989WAT     H281210   9.758   8.611   6.278
26990WAT      O81211   3.812   8.819   5.782
26990WAT     H181212   3.712   8.817   5.788
26990WAT     H281213   3.841   8.910   5.752
26991WAT      O81214   4.140   1.001   3.776
26991WAT     H181215   4.101   1.060   3.705
26991WAT     H281216   4.240   1.003   3.771
26992WAT      O81217   2.391   3.934   9.345
26992WAT     H181218   2.303   3.924   9.392
26992WAT     H281219   2.450   3.996   9.396
26993WAT      O81220   5.194   4.711   2.729
26993WAT     H181221   5.180   4.651   2.808
26993WAT     H281222   5.144   4.796   2.742
26994WAT      O81223   8.860   5.018   1.151
26994WAT     H181224   8.764   5.042   1.136
26994WAT     H281225   8.907   5.096   1.192
26995WAT      O81226   7.614   6.327   5.343
26995WAT     H181227   7.552   6.390   5.297
26995WAT     H281228   7.560   6.260   5.395
26996WAT      O81229   1.729   9.817   9.735
26996WAT     H181230   1.692   9.826   9.643
26996WAT     H281231   1.668   9.760   9.790
26997WAT      O81232   2.790   0.998   6.070
26997WAT     H181233   2.690   1.000   6.063
26997WAT     H281234   2.820   0.903   6.083
26998WAT      O81235   1.990   3.893   4.830
26998WAT     H181236   1.934   3.839   4.892
26998WAT     H281237   1.931   3.945   4.768
26999WAT      O81238   7.767   3.346   6.958
26999WAT     H181239   7.815   3.433   6.952
26999WAT     H281240   7.673   3.362   6.989
27000WAT      O81241   7.967   0.672   2.703
27000WAT     H181242   8.001   0.635   2.789
27000WAT     H281243   7.867   0.678   2.706
27001WAT      O81244   7.420   1.315   3.212
27001WAT     H181245   7.404   1.313   3.310
27001WAT     H281246   7.391   1.404   3.176
27002WAT      O81247   6.796   1.471   2.744
27002WAT     H181248   6.744   1.386   2.749
27002WAT     H281249   6.757   1.531   2.674
27003WAT      O81250   0.035   9.727   8.401
27003WAT     H181251   0.078   9.807   8.358
27003WAT     H281252   0.099   9.685   8.465
27004WAT      O81253   4.242   5.235   8.244
27004WAT     H181254   4.228   5.143   8.208
27004WAT     H281255   4.249   5.231   8.344
27005WAT      O81256   2.604   2.694   1.182
27005WAT     H181257   2.561   2.777   1.218
27005WAT     H281258   2.536   2.622   1.172
27006WAT      O81259   1.923   1.086   1.566
27006WAT     H181260   1.848   1.097   1.500
27006WAT     H281261   1.990   1.021   1.530
27007WAT      O81262   9.331   2.752   6.183
27007WAT     H181263   9.268   2.695   6.237
27007WAT     H281264   9.285   2.781   6.099
27008WAT      O81265   3.842   5.506   5.199
27008WAT     H181266   3.886   5.487   5.286
27008WAT     H281267   3.889   5.456   5.126
27009WAT      O81268   9.702   2.635   0.467
27009WAT     H181269   9.663   2.720   0.432
27009WAT     H281270   9.787   2.655   0.516
27010WAT      O81271   8.332   6.812   7.652
27010WAT     H181272   8.428   6.842   7.644
27010WAT     H281273   8.276   6.863   7.587
27011WAT      O81274   2.418   5.847   1.707
27011WAT     H181275   2.369   5.795   1.637
27011WAT     H281276   2.368   5.932   1.727
27012WAT      O81277   3.647   0.767   0.713
27012WAT     H181278   3.699   0.682   0.726
27012WAT     H281279   3.604   0.793   0.799
27013WAT      O81280   7.283   4.757   6.012
27013WAT     H181281   7.380   4.747   5.990
27013WAT     H281282   7.244   4.831   5.957
27014WAT      O81283   4.505   4.148   3.629
27014WAT     H181284   4.430   4.133   3.565
27014WAT     H281285   4.469   4.190   3.713
27015WAT      O81286   6.817   8.137   1.995
27015WAT     H181287   6.915   8.143   1.979
27015WAT     H281288   6.777   8.070   1.931
27016WAT      O81289   0.596   9.092   8.018
27016WAT     H181290   0.566   9.142   7.937
27016WAT     H281291   0.691   9.116   8.038
27017WAT      O81292   9.394   3.415   9.504
27017WAT     H181293   9.350   3.486   9.448
27017WAT     H281294   9.489   3.440   9.520
27018WAT      O81295   8.897   1.635   3.242
27018WAT     H181296   8.877   1.566   3.173
27018WAT     H281297   8.970   1.695   3.210
27019WAT      O81298   2.954   0.607   6.813
27019WAT     H181299   3.011   0.555   6.750
27019WAT     H281300   2.993   0.699   6.826
27020WAT      O81301   2.581   2.292   7.832
27020WAT     H181302   2.541   2.204   7.805
27020WAT     H281303   2.588   2.351   7.752
27021WAT      O81304   7.173   6.424   3.961
27021WAT     H181305   7.128   6.336   3.949
27021WAT     H281306   7.104   6.497   3.961
27022WAT      O81307   1.872   4.658   8.378
27022WAT     H181308   1.876   4.756   8.398
27022WAT     H281309   1.831   4.611   8.456
27023WAT      O81310   1.979   6.770   3.741
27023WAT     H181311   1.916   6.842   3.769
27023WAT     H281312   1.929   6.700   3.689
27024WAT      O81313   1.988   3.204   2.749
27024WAT     H181314   2.008   3.132   2.683
27024WAT     H281315   1.902   3.249   2.724
27025WAT      O81316   9.761   9.302   2.464
27025WAT     H181317   9.747   9.354   2.380
27025WAT     H281318   9.798   9.362   2.535
27026WAT      O81319   3.784   6.788   2.469
27026WAT     H181320   3.744   6.697   2.478
27026WAT     H281321   3.741   6.850   2.535
27027WAT      O81322   4.291   6.941   3.519
27027WAT     H181323   4.387   6.943   3.549
27027WAT     H281324   4.277   7.012   3.450
27028WAT      O81325   4.051   4.393   6.277
27028WAT     H181326   4.051   4.297   6.303
27028WAT     H281327   4.072   4.401   6.180
27029WAT      O81328   5.101   9.177   4.530
27029WAT     H181329   5.085   9.252   4.594
27029WAT     H281330   5.081   9.090   4.574
27030WAT      O81331   0.014   8.775   4.679
27030WAT     H181332   0.097   8.779   4.623
27030WAT     H281333  -0.015   8.680   4.689
27031WAT      O81334   1.420   6.386   6.220
27031WAT     H181335   1.499   6.332   6.252
27031WAT     H281336   1.453   6.464   6.168
27032WAT      O81337   6.016   3.226   4.492
27032WAT     H181338   5.941   3.160   4.497
27032WAT     H281339   5.983   3.311   4.451
27033WAT      O81340   1.589   3.736   2.253
27033WAT     H181341   1.593   3.650   2.203
27033WAT     H281342   1.494   3.763   2.266
27034WAT      O81343   8.332   2.064   3.112
27034WAT     H181344   8.293   2.029   3.027
27034WAT     H281345   8.415   2.116   3.092
27035WAT      O81346   0.608   4.671   3.219
27035WAT     H181347   0.667   4.744   3.253
27035WAT     H281348   0.514   4.686   3.249
27036WAT      O81349   4.602   9.675   5.225
27036WAT     H181350   4.636   9.686   5.132
27036WAT     H281351   4.503   9.688   5.227
27037WAT      O81352   2.891   7.935   3.492
27037WAT     H181353   2.921   7.957   3.585
27037WAT     H281354   2.813   7.872   3.497
27038WAT      O81355   1.023   7.120   7.953
27038WAT     H181356   1.049   7.146   8.046
27038WAT     H281357   0.956   7.046   7.957
27039WAT      O81358   0.184   0.495   1.823
27039WAT     H181359   0.198   0.420   1.887
27039WAT     H281360   0.273   0.531   1.792
27040WAT      O81361   2.316   8.134   3.973
27040WAT     H181362   2.388   8.154   3.906
27040WAT     H281363   2.257   8.062   3.937
27041WAT      O81364   1.049   8.036   6.468
27041WAT     H181365   0.990   8.107   6.507
27041WAT     H281366   0.997   7.983   6.401
27042WAT      O81367   0.809   6.992   9.557
27042WAT     H181368   0.886   6.943   9.599
27042WAT     H281369   0.738   6.927   9.531
27043WAT      O81370   5.957   0.059   5.645
27043WAT     H181371   5.886   0.078   5.576
27043WAT     H281372   5.992   0.146   5.680
27044WAT      O81373   0.996   8.401   8.310
27044WAT     H181374   1.040   8.390   8.399
27044WAT     H281375   1.027   8.328   8.249
27045WAT      O81376   1.969   7.206   2.909
27045WAT     H181377   2.000   7.270   2.839
27045WAT     H281378   2.048   7.164   2.953
27046WAT      O81379   3.062   7.568   1.134
27046WAT     H181380   3.078   7.666   1.120
27046WAT     H281381   2.974   7.543   1.093
27047WAT      O81382   3.762   2.205   9.239
27047WAT     H181383   3.722   2.295   9.218
27047WAT     H281384   3.862   2.214   9.247
27048WAT      O81385   7.569   0.850   0.684
27048WAT     H181386   7.556   0.854   0.585
27048WAT     H281387   7.551   0.757   0.716
27049WAT      O81388   9.649   7.568   6.661
27049WAT     H181389   9.630   7.586   6.757
27049WAT     H281390   9.570   7.595   6.606
27050WAT      O81391   1.412   2.383   4.113
27050WAT     H181392   1.370   2.462   4.158
27050WAT     H281393   1.495   2.411   4.066
27051WAT      O81394   0.093   7.197   2.753
27051WAT     H181395   0.075   7.287   2.713
27051WAT     H281396   0.044   7.127   2.701
27052WAT      O81397   4.546   3.357   2.997
27052WAT     H181398   4.507   3.276   2.954
27052WAT     H281399   4.535   3.436   2.936
27053WAT      O81400   4.067   9.538   2.021
27053WAT     H181401   4.078   9.446   2.059
27053WAT     H281402   3.973   9.549   1.989
27054WAT      O81403   6.267   5.518   5.094
27054WAT     H181404   6.174   5.503   5.060
27054WAT     H281405   6.272   5.608   5.138
27055WAT      O81406   2.418   7.290   5.541
27055WAT     H181407   2.483   7.256   5.473
27055WAT     H281408   2.393   7.215   5.603
27056WAT      O81409   3.644   1.483   9.691
27056WAT     H181410   3.599   1.563   9.730
27056WAT     H281411   3.653   1.412   9.761
27057WAT      O81412   8.097   1.456   4.921
27057WAT     H181413   8.145   1.501   4.997
27057WAT     H281414   8.145   1.371   4.898
27058WAT      O81415   7.055   4.798   1.417
27058WAT     H181416   7.047   4.699   1.428
27058WAT     H281417   6.965   4.840   1.425
27059WAT      O81418   8.290   2.467   9.450
27059WAT     H181419   8.294   2.563   9.422
27059WAT     H281420   8.194   2.440   9.460
27060WAT      O81421   1.871   3.864   6.283
27060WAT     H181422   1.888   3.878   6.381
27060WAT     H281423   1.944   3.807   6.245
27061WAT      O81424   4.850   6.758   3.573
27061WAT     H181425   4.920   6.813   3.618
27061WAT     H281426   4.784   6.818   3.527
27062WAT      O81427   6.359   0.151   8.086
27062WAT     H181428   6.395   0.064   8.120
27062WAT     H281429   6.430   0.200   8.037
27063WAT      O81430   7.699   0.725   2.718
27063WAT     H181431   7.605   0.716   2.683
27063WAT     H281432   7.696   0.738   2.817
27064WAT      O81433   5.406   3.002   1.216
27064WAT     H181434   5.448   2.937   1.280
27064WAT     H281435   5.464   3.083   1.209
27065WAT      O81436   2.677   2.187   2.433
27065WAT     H181437   2.733   2.106   2.418
27065WAT     H281438   2.580   2.164   2.421
27066WAT      O81439   9.598   0.393   3.072
27066WAT     H181440   9.572   0.330   3.145
27066WAT     H281441   9.542   0.476   3.078
27067WAT      O81442   5.911   9.572   8.871
27067WAT     H181443   5.990   9.526   8.829
27067WAT     H281444   5.860   9.621   8.800
27068WAT      O81445   7.499   0.150   8.242
27068WAT     H181446   7.424   0.111   8.295
27068WAT     H281447   7.496   0.250   8.250
27069WAT      O81448   1.289   9.355   8.262
27069WAT     H181449   1.367   9.295   8.280
27069WAT     H281450   1.228   9.312   8.196
27070WAT      O81451   9.107   0.717   6.214
27070WAT     H181452   9.016   0.711   6.173
27070WAT     H281453   9.176   0.720   6.142
27071WAT      O81454   7.215   3.354   9.399
27071WAT     H181455   7.175   3.445   9.408
27071WAT     H281456   7.141   3.287   9.386
27072WAT      O81457   7.434   5.977   4.818
27072WAT     H181458   7.359   6.039   4.840
27072WAT     H281459   7.489   6.017   4.744
27073WAT      O81460   5.367   2.478   1.104
27073WAT     H181461   5.329   2.386   1.104
27073WAT     H281462   5.423   2.492   1.023
27074WAT      O81463   3.513   2.661   0.906
27074WAT     H181464   3.457   2.582   0.880
27074WAT     H281465   3.610   2.635   0.905
27075WAT      O81466   1.167   3.562   9.402
27075WAT     H181467   1.152   3.660   9.396
27075WAT     H281468   1.248   3.544   9.460
27076WAT      O81469   8.882   6.922   7.470
27076WAT     H181470   8.955   6.914   7.538
27076WAT     H281471   8.904   6.996   7.406
27077WAT      O81472   8.627   0.487   4.314
27077WAT     H181473   8.532   0.471   4.340
27077WAT     H281474   8.671   0.400   4.291
27078WAT      O81475   7.701   9.435   2.982
27078WAT     H181476   7.632   9.363   2.970
27078WAT     H281477   7.671   9.517   2.933
27079WAT      O81478   7.146   3.977   4.081
27079WAT     H181479   7.188   4.019   4.001
27079WAT     H281480   7.117   3.884   4.058
27080WAT      O81481   6.483   6.928   6.032
27080WAT     H181482   6.536   6.997   6.081
27080WAT     H281483   6.536   6.843   6.027
27081WAT      O81484   0.883   3.699   0.118
27081WAT     H181485   0.802   3.655   0.158
27081WAT     H281486   0.857   3.787   0.079
27082WAT      O81487   9.397   4.708   2.136
27082WAT     H181488   9.352   4.797   2.141
27082WAT     H281489   9.330   4.636   2.154
27083WAT      O81490   1.788   9.232   8.155
27083WAT     H181491   1.766   9.326   8.128
27083WAT     H281492   1.770   9.220   8.252
27084WAT      O81493   4.259   0.866   3.053
27084WAT     H181494   4.354   0.835   3.063
27084WAT     H281495   4.243   0.943   3.115
27085WAT      O81496   8.243   8.760   4.509
27085WAT     H181497   8.230   8.673   4.556
27085WAT     H281498   8.157   8.789   4.467
27086WAT      O81499   2.980   1.849   3.367
27086WAT     H181500   3.018   1.829   3.458
27086WAT     H281501   2.967   1.948   3.357
27087WAT      O81502   1.175   8.756   6.694
27087WAT     H181503   1.259   8.778   6.744
27087WAT     H281504   1.172   8.810   6.610
27088WAT      O81505   6.849   2.354   7.077
27088WAT     H181506   6.814   2.277   7.024
27088WAT     H281507   6.781   2.380   7.146
27089WAT      O81508   5.413   9.257   4.503
27089WAT     H181509   5.328   9.204   4.498
27089WAT     H281510   5.411   9.314   4.585
27090WAT      O81511   8.978   4.618   0.975
27090WAT     H181512   9.019   4.687   1.034
27090WAT     H281513   8.908   4.568   1.026
27091WAT      O81514   9.580   0.999   1.011
27091WAT     H181515   9.626   1.026   0.927
27091WAT     H281516   9.566   0.900   1.011
27092WAT      O81517   2.101   1.748   3.784
27092WAT     H181518   2.075   1.759   3.689
27092WAT     H281519   2.108   1.837   3.828
27093WAT      O81520   0.443   8.292   2.044
27093WAT     H181521   0.412   8.216   2.100
27093WAT     H281522   0.378   8.367   2.050
27094WAT      O81523   8.329   5.646   8.013
27094WAT     H181524   8.306   5.739   8.041
27094WAT     H281525   8.386   5.603   8.084
27095WAT      O81526   8.267   3.032   9.120
27095WAT     H181527   8.185   3.053   9.174
27095WAT     H281528   8.257   2.942   9.078
27096WAT      O81529   4.797   3.967   5.284
27096WAT     H181530   4.880   3.953   5.230
27096WAT     H281531   4.717   3.963   5.224
27097WAT      O81532   4.726   8.400   2.817
27097WAT     H181533   4.671   8.373   2.738
27097WAT     H281534   4.737   8.499   2.818
27098WAT      O81535   3.403   2.392   9.885
27098WAT     H181536   3.494   2.427   9.907
27098WAT     H281537   3.406   2.292   9.878
27099WAT      O81538   6.018   3.409   2.188
27099WAT     H181539   5.980   3.448   2.104
27099WAT     H281540   5.957   3.427   2.265
27100WAT      O81541   9.888   7.146   5.137
27100WAT     H181542   9.840   7.079   5.194
27100WAT     H281543   9.823   7.189   5.074
27101WAT      O81544   0.048   4.873   1.007
27101WAT     H181545  -0.047   4.851   0.983
27101WAT     H281546   0.103   4.875   0.924
27102WAT      O81547   2.352   1.762   4.274
27102WAT     H181548   2.332   1.844   4.220
27102WAT     H281549   2.298   1.763   4.358
27103WAT      O81550   4.289   6.190   8.541
27103WAT     H181551   4.266   6.287   8.536
27103WAT     H281552   4.206   6.136   8.538
27104WAT      O81553   3.655   1.135   3.653
27104WAT     H181554   3.614   1.227   3.655
27104WAT     H281555   3.586   1.068   3.680
27105WAT      O81556   1.154   3.191   9.590
27105WAT     H181557   1.232   3.146   9.545
27105WAT     H281558   1.186   3.274   9.636
27106WAT      O81559   2.059   0.881   9.248
27106WAT     H181560   2.004   0.816   9.300
27106WAT     H281561   2.080   0.961   9.304
27107WAT      O81562   7.272   5.648   9.583
27107WAT     H181563   7.313   5.730   9.543
27107WAT     H281564   7.344   5.580   9.600
27108WAT      O81565   9.283   7.121   2.819
27108WAT     H181566   9.343   7.174   2.759
27108WAT     H281567   9.229   7.184   2.876
27109WAT      O81568   6.142   0.285   0.830
27109WAT     H181569   6.226   0.300   0.778
27109WAT     H281570   6.112   0.190   0.820
27110WAT      O81571   8.697   4.431   1.590
27110WAT     H181572   8.619   4.442   1.653
27110WAT     H281573   8.779   4.411   1.643
27111WAT      O81574   5.393   0.689   7.412
27111WAT     H181575   5.469   0.632   7.444
27111WAT     H281576   5.359   0.745   7.488
27112WAT      O81577   9.575   1.667   0.776
27112WAT     H181578   9.476   1.679   0.785
27112WAT     H281579   9.618   1.681   0.865
27113WAT      O81580   2.918   6.758   5.637
27113WAT     H181581   2.951   6.851   5.622
27113WAT     H281582   2.881   6.721   5.552
27114WAT      O81583   9.681   8.673   1.361
27114WAT     H181584   9.621   8.692   1.283
27114WAT     H281585   9.629   8.630   1.434
27115WAT      O81586   6.876   5.959   1.966
27115WAT     H181587   6.913   5.913   1.886
27115WAT     H281588   6.855   5.891   2.036
27116WAT      O81589   3.432   2.673   2.676
27116WAT     H181590   3.465   2.615   2.750
27116WAT     H281591   3.336   2.696   2.693
27117WAT      O81592   8.174   8.092   2.121
27117WAT     H181593   8.114   8.163   2.157
27117WAT     H281594   8.125   8.004   2.121
27118WAT      O81595   6.514   4.513   4.036
27118WAT     H181596   6.544   4.419   4.051
27118WAT     H281597   6.426   4.513   3.989
27119WAT      O81598   2.986   6.132   3.340
27119WAT     H181599   3.018   6.038   3.352
27119WAT     H281600   2.928   6.157   3.417
27120WAT      O81601   1.035   0.012   7.905
27120WAT     H181602   1.119   0.063   7.922
27120WAT     H281603   1.049  -0.084   7.927
27121WAT      O81604   7.963   2.959   5.442
27121WAT     H181605   7.984   3.055   5.458
27121WAT     H281606   7.899   2.927   5.512
27122WAT      O81607   5.131   3.343   1.208
27122WAT     H181608   5.097   3.354   1.115
27122WAT     H281609   5.142   3.245   1.228
27123WAT      O81610   3.576   8.385   0.885
27123WAT     H181611   3.520   8.325   0.828
27123WAT     H281612   3.646   8.330   0.932
27124WAT      O81613   3.859   3.244   0.466
27124WAT     H181614   3.920   3.256   0.545
27124WAT     H281615   3.808   3.329   0.450
27125WAT      O81616   2.390   0.004   8.844
27125WAT     H181617   2.402  -0.095   8.841
27125WAT     H281618   2.315   0.031   8.783
27126WAT      O81619   0.463   9.728   3.904
27126WAT     H181620   0.370   9.749   3.934
27126WAT     H281621   0.515   9.813   3.893
27127WAT      O81622   7.319   6.789   5.766
27127WAT     H181623   7.255   6.800   5.842
27127WAT     H281624   7.283   6.725   5.700
27128WAT      O81625   7.159   6.002   9.199
27128WAT     H181626   7.079   5.978   9.143
27128WAT     H281627   7.240   6.003   9.141
27129WAT      O81628   5.584   2.998   2.113
27129WAT     H181629   5.553   2.911   2.074
27129WAT     H281630   5.560   3.001   2.210
27130WAT      O81631   5.169   8.483   3.238
27130WAT     H181632   5.265   8.499   3.262
27130WAT     H281633   5.140   8.550   3.170
27131WAT      O81634   3.250   9.558   9.206
27131WAT     H181635   3.265   9.540   9.109
27131WAT     H281636   3.331   9.531   9.258
27132WAT      O81637   7.288   5.607   0.776
27132WAT     H181638   7.223   5.594   0.850
27132WAT     H281639   7.358   5.673   0.803
27133WAT      O81640   2.207   7.287   5.349
27133WAT     H181641   2.277   7.274   5.420
27133WAT     H281642   2.146   7.207   5.348
27134WAT      O81643   3.433   7.199   3.677
27134WAT     H181644   3.531   7.216   3.666
27134WAT     H281645   3.419   7.110   3.720
27135WAT      O81646   9.892   6.683   1.576
27135WAT     H181647   9.943   6.736   1.509
27135WAT     H281648   9.795   6.682   1.551
27136WAT      O81649   8.266   0.116   0.535
27136WAT     H181650   8.215   0.090   0.453
27136WAT     H281651   8.213   0.182   0.588
27137WAT      O81652   9.690   3.663   9.149
27137WAT     H181653   9.686   3.710   9.060
27137WAT     H281654   9.632   3.582   9.147
27138WAT      O81655   4.842   1.825   7.057
27138WAT     H181656   4.828   1.902   6.995
27138WAT     H281657   4.761   1.811   7.114
27139WAT      O81658   3.743   0.215   7.022
27139WAT     H181659   3.679   0.195   6.949
27139WAT     H281660   3.812   0.142   7.027
27140WAT      O81661   4.296   5.722   3.102
27140WAT     H181662   4.310   5.624   3.114
27140WAT     H281663   4.318   5.770   3.187
27141WAT      O81664   2.774   6.723   8.233
27141WAT     H181665   2.833   6.778   8.292
27141WAT     H281666   2.706   6.781   8.189
27142WAT      O81667   0.561   7.688   9.232
27142WAT     H181668   0.468   7.686   9.268
27142WAT     H281669   0.561   7.653   9.138
27143WAT      O81670   5.388   8.454   1.941
27143WAT     H181671   5.341   8.533   1.903
27143WAT     H281672   5.369   8.448   2.039
27144WAT      O81673   6.731   3.654   0.232
27144WAT     H181674   6.692   3.735   0.275
27144WAT     H281675   6.678   3.573   0.260
27145WAT      O81676   8.156   0.295   1.500
27145WAT     H181677   8.133   0.359   1.574
27145WAT     H281678   8.251   0.308   1.474
27146WAT      O81679   7.936   4.566   0.668
27146WAT     H181680   8.025   4.569   0.623
27146WAT     H281681   7.904   4.659   0.686
27147WAT      O81682   3.580   8.313   0.384
27147WAT     H181683   3.640   8.233   0.384
27147WAT     H281684   3.529   8.317   0.469
27148WAT      O81685   0.808   6.575   0.581
27148WAT     H181686   0.872   6.498   0.576
27148WAT     H281687   0.719   6.546   0.548
27149WAT      O81688   1.941   4.738   5.834
27149WAT     H181689   1.853   4.758   5.878
27149WAT     H281690   1.971   4.647   5.860
27150WAT      O81691   5.634   3.807   7.036
27150WAT     H181692   5.567   3.733   7.032
27150WAT     H281693   5.719   3.772   7.076
27151WAT      O81694   1.336   0.082   6.384
27151WAT     H181695   1.282   0.098   6.467
27151WAT     H281696   1.286   0.117   6.305
27152WAT      O81697   3.613   6.579   2.538
27152WAT     H181698   3.609   6.545   2.632
27152WAT     H281699   3.521   6.579   2.499
27153WAT      O81700   8.912   3.271   7.036
27153WAT     H181701   8.922   3.192   6.976
27153WAT     H281702   8.983   3.338   7.015
27154WAT      O81703   5.805   4.783   6.142
27154WAT     H181704   5.877   4.783   6.212
27154WAT     H281705   5.724   4.830   6.177
27155WAT      O81706   0.807   0.556   1.076
27155WAT     H181707   0.765   0.510   1.154
27155WAT     H281708   0.891   0.509   1.051
27156WAT      O81709   5.817   3.907   0.182
27156WAT     H181710   5.913   3.882   0.193
27156WAT     H281711   5.772   3.841   0.121
27157WAT      O81712   6.326   2.175   9.209
27157WAT     H181713   6.228   2.175   9.192
27157WAT     H281714   6.361   2.081   9.208
27158WAT      O81715   4.137   8.670   6.835
27158WAT     H181716   4.072   8.743   6.815
27158WAT     H281717   4.226   8.693   6.798
27159WAT      O81718   7.461   0.095   8.789
27159WAT     H181719   7.467   0.076   8.691
27159WAT     H281720   7.413   0.019   8.834
27160WAT      O81721   8.363   3.605   6.536
27160WAT     H181722   8.385   3.521   6.487
27160WAT     H281723   8.269   3.632   6.516
27161WAT      O81724   3.968   5.266   1.293
27161WAT     H181725   4.021   5.185   1.319
27161WAT     H281726   3.981   5.337   1.362
27162WAT      O81727   2.232   3.050   4.329
27162WAT     H181728   2.328   3.074   4.342
27162WAT     H281729   2.195   3.014   4.415
27163WAT      O81730   8.210   6.120   0.406
27163WAT     H181731   8.174   6.048   0.346
27163WAT     H281732   8.296   6.155   0.368
27164WAT      O81733   4.628   9.327   0.614
27164WAT     H181734   4.568   9.403   0.588
27164WAT     H281735   4.573   9.254   0.653
27165WAT      O81736   6.277   4.780   1.849
27165WAT     H181737   6.267   4.829   1.762
27165WAT     H281738   6.211   4.705   1.852
27166WAT      O81739   1.435   0.310   0.250
27166WAT     H181740   1.392   0.223   0.273
27166WAT     H281741   1.379   0.358   0.182
27167WAT      O81742   2.281   6.845   0.095
27167WAT     H181743   2.274   6.833   0.194
27167WAT     H281744   2.190   6.841   0.054
27168WAT      O81745   3.486   2.918   8.606
27168WAT     H181746   3.472   3.017   8.601
27168WAT     H281747   3.512   2.884   8.515
27169WAT      O81748   4.030   5.380   1.047
27169WAT     H181749   4.003   5.347   0.957
27169WAT     H281750   4.006   5.312   1.117
27170WAT      O81751   5.230   0.824   7.601
27170WAT     H181752   5.256   0.904   7.655
27170WAT     H281753   5.172   0.764   7.656
27171WAT      O81754   9.827   2.529   5.947
27171WAT     H181755   9.897   2.460   5.964
27171WAT     H281756   9.742   2.503   5.993
27172WAT      O81757   9.644   7.472   2.212
27172WAT     H181758   9.621   7.376   2.220
27172WAT     H281759   9.578   7.527   2.263
27173WAT      O81760   8.382   2.397   2.591
27173WAT     H181761   8.477   2.367   2.597
27173WAT     H281762   8.362   2.427   2.498
27174WAT      O81763   0.858   7.466   8.406
27174WAT     H181764   0.952   7.492   8.424
27174WAT     H281765   0.806   7.546   8.376
27175WAT      O81766   5.636   4.595   6.813
27175WAT     H181767   5.651   4.677   6.758
27175WAT     H281768   5.716   4.579   6.872
27176WAT      O81769   8.949   6.043   6.317
27176WAT     H181770   8.876   5.980   6.288
27176WAT     H281771   8.915   6.101   6.391
27177WAT      O81772   2.897   6.060   5.283
27177WAT     H181773   2.808   6.100   5.262
27177WAT     H281774   2.897   6.024   5.375
27178WAT      O81775   1.096   9.060   5.601
27178WAT     H181776   1.136   9.070   5.510
27178WAT     H281777   1.041   9.141   5.623
27179WAT      O81778   7.511   5.026   5.942
27179WAT     H181779   7.496   5.075   6.028
27179WAT     H281780   7.428   4.974   5.919
27180WAT      O81781   9.700   6.784   8.514
27180WAT     H181782   9.748   6.763   8.430
27180WAT     H281783   9.617   6.728   8.521
27181WAT      O81784   5.734   3.907   0.447
27181WAT     H181785   5.781   3.903   0.359
27181WAT     H281786   5.639   3.878   0.436
27182WAT      O81787   4.620   7.947   5.120
27182WAT     H181788   4.568   7.929   5.037
27182WAT     H281789   4.585   8.030   5.164
27183WAT      O81790   4.740   4.223   6.770
27183WAT     H181791   4.663   4.283   6.792
27183WAT     H281792   4.716   4.166   6.691
27184WAT      O81793   2.466   9.077   9.544
27184WAT     H181794   2.401   9.125   9.485
27184WAT     H281795   2.553   9.126   9.545
27185WAT      O81796   5.825   8.627   9.872
27185WAT     H181797   5.758   8.583   9.811
27185WAT     H281798   5.788   8.715   9.902
27186WAT      O81799   8.738   1.564   4.448
27186WAT     H181800   8.718   1.469   4.472
27186WAT     H281801   8.717   1.623   4.527
27187WAT      O81802   7.386   1.563   2.439
27187WAT     H181803   7.402   1.467   2.461
27187WAT     H281804   7.287   1.580   2.438
27188WAT      O81805   7.453   6.342   6.876
27188WAT     H181806   7.367   6.298   6.848
27188WAT     H281807   7.472   6.418   6.814
27189WAT      O81808   5.060   8.021   6.696
27189WAT     H181809   5.117   8.013   6.777
27189WAT     H281810   5.089   8.100   6.642
27190WAT      O81811   5.162   2.406   5.002
27190WAT     H181812   5.165   2.468   5.080
27190WAT     H281813   5.191   2.314   5.030
27191WAT      O81814   3.956   5.222   0.244
27191WAT     H181815   3.914   5.155   0.182
27191WAT     H281816   3.898   5.303   0.249
27192WAT      O81817   8.405   9.683   4.843
27192WAT     H181818   8.503   9.668   4.832
27192WAT     H281819   8.380   9.770   4.801
27193WAT      O81820   0.526   6.860   9.227
27193WAT     H181821   0.434   6.887   9.255
27193WAT     H281822   0.524   6.827   9.132
27194WAT      O81823   7.299   2.138   4.302
27194WAT     H181824   7.320   2.043   4.324
27194WAT     H281825   7.226   2.141   4.235
27195WAT      O81826   5.911   1.882   1.596
27195WAT     H181827   5.853   1.948   1.644
27195WAT     H281828   5.937   1.808   1.658
27196WAT      O81829   2.977   7.782   4.606
27196WAT     H181830   3.016   7.690   4.609
27196WAT     H281831   2.898   7.787   4.667
27197WAT      O81832   2.924   1.460   1.024
27197WAT     H181833   2.935   1.411   0.937
27197WAT     H281834   2.891   1.397   1.094
27198WAT      O81835   4.460   6.048   4.141
27198WAT     H181836   4.452   6.081   4.046
27198WAT     H281837   4.555   6.024   4.160
27199WAT      O81838   5.407   8.386   0.870
27199WAT     H181839   5.497   8.342   0.868
27199WAT     H281840   5.336   8.317   0.854
27200WAT      O81841   4.685   5.035   3.560
27200WAT     H181842   4.679   4.966   3.632
27200WAT     H281843   4.650   4.997   3.475
27201WAT      O81844   0.284   5.436   4.778
27201WAT     H181845   0.193   5.397   4.770
27201WAT     H281846   0.324   5.447   4.687
27202WAT      O81847   1.146   1.116   7.423
27202WAT     H181848   1.191   1.029   7.401
27202WAT     H281849   1.063   1.125   7.368
27203WAT      O81850   2.570   6.442   5.387
27203WAT     H181851   2.590   6.350   5.352
27203WAT     H281852   2.652   6.481   5.428
27204WAT      O81853   4.069   7.616   6.573
27204WAT     H181854   4.119   7.669   6.504
27204WAT     H281855   3.971   7.630   6.561
27205WAT      O81856   6.694   6.388   8.904
27205WAT     H181857   6.612   6.352   8.949
27205WAT     H281858   6.742   6.450   8.967
27206WAT      O81859   0.423   7.524   9.782
27206WAT     H181860   0.384   7.558   9.867
27206WAT     H281861   0.415   7.424   9.779
27207WAT      O81862   1.707   9.561   7.799
27207WAT     H181863   1.742   9.467   7.801
27207WAT     H281864   1.607   9.560   7.802
27208WAT      O81865   1.127   2.675   0.526
27208WAT     H181866   1.223   2.655   0.506
27208WAT     H281867   1.098   2.624   0.606
27209WAT      O81868   0.975   9.721   6.058
27209WAT     H181869   1.015   9.706   6.148
27209WAT     H281870   0.895   9.781   6.066
27210WAT      O81871   5.782   5.914   1.520
27210WAT     H181872   5.730   5.964   1.590
27210WAT     H281873   5.773   5.962   1.432
27211WAT      O81874   1.087   2.121   9.477
27211WAT     H181875   1.110   2.218   9.481
27211WAT     H281876   1.156   2.072   9.425
27212WAT      O81877   3.714   5.884   7.480
27212WAT     H181878   3.719   5.956   7.410
27212WAT     H281879   3.619   5.856   7.492
27213WAT      O81880   7.049   3.754   9.683
27213WAT     H181881   7.087   3.713   9.600
27213WAT     H281882   6.963   3.708   9.706
27214WAT      O81883   7.929   7.089   1.571
27214WAT     H181884   7.996   7.113   1.501
27214WAT     H281885   7.952   7.136   1.657
27215WAT      O81886   8.535   4.060   1.641
27215WAT     H181887   8.542   4.107   1.553
27215WAT     H281888   8.616   4.081   1.696
27216WAT      O81889   1.031   2.332   0.567
27216WAT     H181890   0.931   2.332   0.562
27216WAT     H281891   1.069   2.347   0.475
27217WAT      O81892   8.886   3.278   8.996
27217WAT     H181893   8.880   3.254   8.899
27217WAT     H281894   8.948   3.214   9.042
27218WAT      O81895   6.770   1.548   5.209
27218WAT     H181896   6.707   1.590   5.274
27218WAT     H281897   6.740   1.569   5.116
27219WAT      O81898   6.676   8.861   7.683
27219WAT     H181899   6.725   8.914   7.615
27219WAT     H281900   6.725   8.775   7.700
27220WAT      O81901   5.534   6.868   1.152
27220WAT     H181902   5.538   6.803   1.076
27220WAT     H281903   5.610   6.932   1.146
27221WAT      O81904   3.014   0.281   7.133
27221WAT     H181905   3.036   0.379   7.135
27221WAT     H281906   2.939   0.263   7.197
27222WAT      O81907   4.304   8.300   6.099
27222WAT     H181908   4.260   8.312   6.187
27222WAT     H281909   4.240   8.257   6.035
27223WAT      O81910   9.563   5.859   6.040
27223WAT     H181911   9.649   5.836   6.086
27223WAT     H281912   9.512   5.775   6.021
27224WAT      O81913   7.286   0.888   7.703
27224WAT     H181914   7.341   0.948   7.646
27224WAT     H281915   7.345   0.818   7.744
27225WAT      O81916   7.088   8.536   3.282
27225WAT     H181917   7.159   8.516   3.215
27225WAT     H281918   7.128   8.587   3.359
27226WAT      O81919   6.573   5.685   6.859
27226WAT     H181920   6.590   5.589   6.833
27226WAT     H281921   6.576   5.693   6.959
27227WAT      O81922   5.743   7.413   2.292
27227WAT     H181923   5.747   7.314   2.303
27227WAT     H281924   5.649   7.444   2.296
27228WAT      O81925   6.993   3.533   1.179
27228WAT     H181926   7.033   3.452   1.136
27228WAT     H281927   7.065   3.600   1.197
27229WAT      O81928   2.683   8.541   1.086
27229WAT     H181929   2.659   8.521   1.181
27229WAT     H281930   2.654   8.634   1.063
27230WAT      O81931   2.379   8.997   5.317
27230WAT     H181932   2.325   8.996   5.233
27230WAT     H281933   2.476   8.990   5.294
27231WAT      O81934   2.317   5.829   9.277
27231WAT     H181935   2.238   5.888   9.295
27231WAT     H281936   2.301   5.778   9.192
27232WAT      O81937   5.395   4.034   3.191
27232WAT     H181938   5.493   4.050   3.206
27232WAT     H281939   5.366   3.953   3.242
27233WAT      O81940   2.789   5.601   7.284
27233WAT     H181941   2.838   5.550   7.214
27233WAT     H281942   2.722   5.661   7.241
27234WAT      O81943   1.549   1.336   4.583
27234WAT     H181944   1.593   1.366   4.498
27234WAT     H281945   1.453   1.316   4.565
27235WAT      O81946   0.207   4.776   2.121
27235WAT     H181947   0.170   4.725   2.043
27235WAT     H281948   0.271   4.846   2.089
27236WAT      O81949   0.562   0.879   2.524
27236WAT     H181950   0.616   0.902   2.443
27236WAT     H281951   0.492   0.812   2.500
27237WAT      O81952   8.809   5.218   7.902
27237WAT     H181953   8.850   5.254   7.986
27237WAT     H281954   8.844   5.126   7.884
27238WAT      O81955   1.603   9.803   3.528
27238WAT     H181956   1.671   9.747   3.576
27238WAT     H281957   1.516   9.754   3.526
27239WAT      O81958   4.039   6.693   7.833
27239WAT     H181959   4.028   6.607   7.784
27239WAT     H281960   4.123   6.691   7.887
27240WAT      O81961   3.020   3.487   8.747
27240WAT     H181962   2.948   3.455   8.809
27240WAT     H281963   2.993   3.468   8.653
27241WAT      O81964   1.636   1.876   0.181
27241WAT     H181965   1.650   1.797   0.120
27241WAT     H281966   1.675   1.857   0.270
27242WAT      O81967   9.235   3.707   1.405
27242WAT     H181968   9.248   3.721   1.504
27242WAT     H281969   9.222   3.796   1.361
27243WAT      O81970   9.467   4.978   4.695
27243WAT     H181971   9.516   4.904   4.650
27243WAT     H281972   9.412   4.941   4.770
27244WAT      O81973   5.977   7.952   9.605
27244WAT     H181974   6.063   7.992   9.635
27244WAT     H281975   5.975   7.855   9.628
27245WAT      O81976   0.765   5.618   7.064
27245WAT     H181977   0.714   5.559   7.127
27245WAT     H281978   0.814   5.687   7.116
27246WAT      O81979   7.279   3.680   5.747
27246WAT     H181980   7.305   3.722   5.834
27246WAT     H281981   7.188   3.711   5.721
27247WAT      O81982   0.625   8.352   8.391
27247WAT     H181983   0.648   8.287   8.318
27247WAT     H281984   0.547   8.408   8.362
27248WAT      O81985   0.206   3.860   8.793
27248WAT     H181986   0.225   3.799   8.716
27248WAT     H281987   0.108   3.865   8.810
27249WAT      O81988   3.632   4.277   3.456
27249WAT     H181989   3.604   4.300   3.363
27249WAT     H281990   3.625   4.358   3.514
27250WAT      O81991   6.786   2.635   7.338
27250WAT     H181992   6.857   2.694   7.299
27250WAT     H281993   6.823   2.587   7.418
27251WAT      O81994   0.678   0.898   0.413
27251WAT     H181995   0.691   0.850   0.327
27251WAT     H281996   0.759   0.953   0.435
27252WAT      O81997   1.972   9.170   6.072
27252WAT     H181998   1.998   9.095   6.011
27252WAT     H281999   1.968   9.137   6.166
27253WAT      O82000   5.938   4.901   9.379
27253WAT     H182001   5.945   5.001   9.374
27253WAT     H282002   5.914   4.874   9.472
27254WAT      O82003   1.261   4.280   1.862
27254WAT     H182004   1.305   4.333   1.935
27254WAT     H282005   1.170   4.250   1.893
27255WAT      O82006   5.956   3.464   3.985
27255WAT     H182007   5.911   3.394   3.929
27255WAT     H282008   6.009   3.421   4.058
27256WAT      O82009   3.560   7.789   4.021
27256WAT     H182010   3.630   7.827   3.960
27256WAT     H282011   3.559   7.689   4.010
27257WAT      O82012   0.342   2.009   3.702
27257WAT     H182013   0.292   1.933   3.743
27257WAT     H282014   0.336   2.004   3.602
27258WAT      O82015   1.573   3.432   9.626
27258WAT     H182016   1.651   3.376   9.598
27258WAT     H282017   1.511   3.377   9.683
27259WAT      O82018   3.615   9.152   6.594
27259WAT     H182019   3.628   9.236   6.646
27259WAT     H282020   3.517   9.132   6.587
27260WAT      O82021   1.842   9.598   5.357
27260WAT     H182022   1.918   9.629   5.300
27260WAT     H282023   1.785   9.677   5.382
27261WAT      O82024   8.731   2.770   8.547
27261WAT     H182025   8.814   2.740   8.594
27261WAT     H282026   8.754   2.798   8.454
27262WAT      O82027   7.949   6.705   4.099
27262WAT     H182028   7.937   6.697   4.198
27262WAT     H282029   7.992   6.622   4.064
27263WAT      O82030   5.977   5.444   7.215
27263WAT     H182031   5.943   5.491   7.297
27263WAT     H282032   5.925   5.474   7.135
27264WAT      O82033   8.726   3.519   8.535
27264WAT     H182034   8.661   3.540   8.608
27264WAT     H282035   8.812   3.566   8.552
27265WAT      O82036   8.580   0.988   7.186
27265WAT     H182037   8.630   0.953   7.264
27265WAT     H282038   8.637   1.053   7.136
27266WAT      O82039   9.823   7.662   8.151
27266WAT     H182040   9.759   7.689   8.223
27266WAT     H282041   9.775   7.609   8.081
27267WAT      O82042   8.388   3.651   1.342
27267WAT     H182043   8.387   3.750   1.328
27267WAT     H282044   8.387   3.630   1.440
27268WAT      O82045   8.441   1.711   8.865
27268WAT     H182046   8.529   1.671   8.841
27268WAT     H282047   8.400   1.754   8.785
27269WAT      O82048   6.839   9.127   0.369
27269WAT     H182049   6.817   9.079   0.453
27269WAT     H282050   6.817   9.224   0.379
27270WAT      O82051   3.462   5.036   4.073
27270WAT     H182052   3.523   5.064   4.147
27270WAT     H282053   3.451   5.112   4.009
27271WAT      O82054   1.932   0.644   9.777
27271WAT     H182055   2.003   0.667   9.844
27271WAT     H282056   1.887   0.727   9.746
27272WAT      O82057   0.636   7.814   1.764
27272WAT     H182058   0.620   7.778   1.856
27272WAT     H282059   0.606   7.909   1.760
27273WAT      O82060   6.226   8.998   7.874
27273WAT     H182061   6.316   8.962   7.848
27273WAT     H282062   6.231   9.032   7.968
27274WAT      O82063   6.854   2.515   7.559
27274WAT     H182064   6.821   2.551   7.646
27274WAT     H282065   6.842   2.415   7.557
27275WAT      O82066   2.479   2.453   8.052
27275WAT     H182067   2.482   2.368   8.000
27275WAT     H282068   2.544   2.518   8.014
27276WAT      O82069   7.656   0.876   9.108
27276WAT     H182070   7.655   0.924   9.195
27276WAT     H282071   7.744   0.891   9.063
27277WAT      O82072   2.944   0.608   8.656
27277WAT     H182073   2.897   0.520   8.644
27277WAT     H282074   2.977   0.641   8.568
27278WAT      O82075   5.230   4.416   8.010
27278WAT     H182076   5.305   4.477   7.984
27278WAT     H282077   5.205   4.433   8.105
27279WAT      O82078   6.913   4.676   8.063
27279WAT     H182079   6.921   4.773   8.041
27279WAT     H282080   6.892   4.625   7.980
27280WAT      O82081   4.756   0.133   0.673
27280WAT     H182082   4.727   0.067   0.603
27280WAT     H282083   4.814   0.202   0.630
27281WAT      O82084   3.178   7.736   1.399
27281WAT     H182085   3.237   7.700   1.327
27281WAT     H282086   3.089   7.761   1.360
27282WAT      O82087   0.364   2.185   8.783
27282WAT     H182088   0.428   2.124   8.830
27282WAT     H282089   0.275   2.140   8.776
27283WAT      O82090   8.182   0.574   2.215
27283WAT     H182091   8.232   0.529   2.142
27283WAT     H282092   8.186   0.673   2.203
27284WAT      O82093   6.533   9.418   0.840
27284WAT     H182094   6.572   9.469   0.763
27284WAT     H282095   6.605   9.400   0.907
27285WAT      O82096   0.111   7.106   9.439
27285WAT     H182097   0.077   7.120   9.533
27285WAT     H282098   0.045   7.144   9.374
27286WAT      O82099   6.231   1.334   7.669
27286WAT     H182100   6.310   1.392   7.645
27286WAT     H282101   6.247   1.291   7.758
27287WAT      O82102   1.302   0.097   5.737
27287WAT     H182103   1.264   0.017   5.782
27287WAT     H282104   1.276   0.179   5.788
27288WAT      O82105   1.077   5.604   6.750
27288WAT     H182106   1.136   5.559   6.817
27288WAT     H282107   1.122   5.604   6.661
27289WAT      O82108   1.330   0.154   1.772
27289WAT     H182109   1.324   0.055   1.779
27289WAT     H282110   1.374   0.191   1.853
27290WAT      O82111   0.184   1.095   1.002
27290WAT     H182112   0.155   1.176   0.951
27290WAT     H282113   0.153   1.103   1.097
27291WAT      O82114   2.312   9.639   4.556
27291WAT     H182115   2.271   9.588   4.632
27291WAT     H282116   2.241   9.691   4.508
27292WAT      O82117   6.924   4.670   3.752
27292WAT     H182118   6.825   4.666   3.762
27292WAT     H282119   6.966   4.595   3.803
27293WAT      O82120   3.602   7.393   1.924
27293WAT     H182121   3.552   7.308   1.944
27293WAT     H282122   3.575   7.463   1.991
27294WAT      O82123   3.465   1.628   6.064
27294WAT     H182124   3.460   1.528   6.063
27294WAT     H282125   3.391   1.665   6.007
27295WAT      O82126   6.565   6.824   2.384
27295WAT     H182127   6.572   6.924   2.390
27295WAT     H282128   6.479   6.800   2.338
27296WAT      O82129   9.133   1.913   1.254
27296WAT     H182130   9.126   1.988   1.187
27296WAT     H282131   9.174   1.947   1.338
27297WAT      O82132   4.478   9.352   8.925
27297WAT     H182133   4.412   9.382   8.856
27297WAT     H282134   4.569   9.348   8.885
27298WAT      O82135   6.202   4.348   8.985
27298WAT     H182136   6.285   4.315   8.939
27298WAT     H282137   6.132   4.369   8.917
27299WAT      O82138   4.825   6.209   7.423
27299WAT     H182139   4.854   6.147   7.496
27299WAT     H282140   4.852   6.303   7.447
27300WAT      O82141   7.898   2.440   9.239
27300WAT     H182142   7.910   2.501   9.160
27300WAT     H282143   7.850   2.357   9.210
27301WAT      O82144   8.573   6.121   0.650
27301WAT     H182145   8.645   6.084   0.709
27301WAT     H282146   8.544   6.050   0.586
27302WAT      O82147   9.650   6.272   4.227
27302WAT     H182148   9.574   6.332   4.203
27302WAT     H282149   9.625   6.177   4.208
27303WAT      O82150   4.732   8.038   9.513
27303WAT     H182151   4.645   8.085   9.526
27303WAT     H282152   4.725   7.975   9.435
27304WAT      O82153   0.646   2.600   4.926
27304WAT     H182154   0.681   2.682   4.880
27304WAT     H282155   0.691   2.520   4.888
27305WAT      O82156   8.295   5.584   9.658
27305WAT     H182157   8.340   5.595   9.569
27305WAT     H282158   8.323   5.658   9.719
27306WAT      O82159   9.141   7.816   0.166
27306WAT     H182160   9.154   7.811   0.067
27306WAT     H282161   9.050   7.783   0.189
27307WAT      O82162   3.204   0.448   8.342
27307WAT     H182163   3.143   0.416   8.414
27307WAT     H282164   3.235   0.540   8.363
27308WAT      O82165   2.510   5.051   2.995
27308WAT     H182166   2.422   5.052   2.949
27308WAT     H282167   2.534   4.957   3.019
27309WAT      O82168   1.219   6.974   3.168
27309WAT     H182169   1.318   6.987   3.176
27309WAT     H282170   1.192   6.986   3.072
27310WAT      O82171   0.160   3.088   9.573
27310WAT     H182172   0.158   3.042   9.484
27310WAT     H282173   0.237   3.153   9.575
27311WAT      O82174   6.430   4.718   4.229
27311WAT     H182175   6.483   4.689   4.150
27311WAT     H282176   6.408   4.639   4.286
27312WAT      O82177   3.592   7.453   9.489
27312WAT     H182178   3.576   7.385   9.560
27312WAT     H282179   3.545   7.426   9.405
27313WAT      O82180   6.864   4.705   5.873
27313WAT     H182181   6.813   4.620   5.856
27313WAT     H282182   6.824   4.752   5.951
27314WAT      O82183   8.134   8.958   3.060
27314WAT     H182184   8.104   9.051   3.037
27314WAT     H282185   8.178   8.959   3.150
27315WAT      O82186   8.243   5.388   3.794
27315WAT     H182187   8.218   5.449   3.869
27315WAT     H282188   8.332   5.414   3.757
27316WAT      O82189   6.512   5.666   1.535
27316WAT     H182190   6.463   5.675   1.622
27316WAT     H282191   6.514   5.570   1.509
27317WAT      O82192   6.853   8.038   6.889
27317WAT     H182193   6.785   8.110   6.904
27317WAT     H282194   6.923   8.042   6.960
27318WAT      O82195   2.558   4.093   0.844
27318WAT     H182196   2.636   4.152   0.869
27318WAT     H282197   2.483   4.108   0.909
27319WAT      O82198   7.675   6.561   4.093
27319WAT     H182199   7.738   6.626   4.136
27319WAT     H282200   7.672   6.578   3.994
27320WAT      O82201   5.485   5.389   2.591
27320WAT     H182202   5.446   5.448   2.661
27320WAT     H282203   5.535   5.444   2.524
27321WAT      O82204   5.151   7.530   7.520
27321WAT     H182205   5.094   7.493   7.446
27321WAT     H282206   5.247   7.527   7.492
27322WAT      O82207   2.146   0.945   6.279
27322WAT     H182208   2.184   0.858   6.248
27322WAT     H282209   2.061   0.927   6.329
27323WAT      O82210   3.273   2.657   8.710
27323WAT     H182211   3.328   2.729   8.752
27323WAT     H282212   3.333   2.592   8.663
27324WAT      O82213   1.995   3.035   7.377
27324WAT     H182214   1.985   3.116   7.434
27324WAT     H282215   2.023   3.063   7.285
27325WAT      O82216   4.685   5.046   1.649
27325WAT     H182217   4.615   5.009   1.710
27325WAT     H282218   4.669   5.012   1.556
27326WAT      O82219   6.968   1.194   8.270
27326WAT     H182220   6.955   1.185   8.172
27326WAT     H282221   6.980   1.290   8.294
27327WAT      O82222   8.312   7.631   9.625
27327WAT     H182223   8.317   7.549   9.682
27327WAT     H282224   8.250   7.615   9.548
27328WAT      O82225   3.311   2.947   9.095
27328WAT     H182226   3.297   3.017   9.165
27328WAT     H282227   3.289   2.857   9.132
27329WAT      O82228   0.825   8.680   2.196
27329WAT     H182229   0.831   8.611   2.124
27329WAT     H282230   0.918   8.702   2.227
27330WAT      O82231   0.908   1.846   3.214
27330WAT     H182232   0.868   1.937   3.208
27330WAT     H282233   1.007   1.855   3.232
27331WAT      O82234   2.874   2.737   9.775
27331WAT     H182235   2.842   2.811   9.834
27331WAT     H282236   2.933   2.775   9.703
27332WAT      O82237   3.849   0.701   2.222
27332WAT     H182238   3.862   0.796   2.195
27332WAT     H282239   3.753   0.675   2.207
27333WAT      O82240   1.900   6.184   7.951
27333WAT     H182241   1.991   6.163   7.986
27333WAT     H282242   1.837   6.110   7.974
27334WAT      O82243   1.954   1.661   1.957
27334WAT     H182244   2.032   1.599   1.956
27334WAT     H282245   1.959   1.722   1.877
27335WAT      O82246   3.948   2.154   5.759
27335WAT     H182247   4.042   2.161   5.724
27335WAT     H282248   3.918   2.059   5.753
27336WAT      O82249   7.242   7.821   6.339
27336WAT     H182250   7.165   7.778   6.385
27336WAT     H282251   7.250   7.916   6.369
27337WAT      O82252   5.735   4.515   8.624
27337WAT     H182253   5.717   4.598   8.573
27337WAT     H282254   5.812   4.466   8.583
27338WAT      O82255   7.817   2.639   9.815
27338WAT     H182256   7.869   2.602   9.892
27338WAT     H282257   7.719   2.627   9.833
27339WAT      O82258   3.989   4.244   6.624
27339WAT     H182259   3.998   4.165   6.685
27339WAT     H282260   4.004   4.215   6.530
27340WAT      O82261   6.208   5.363   6.370
27340WAT     H182262   6.175   5.274   6.340
27340WAT     H282263   6.206   5.428   6.293
27341WAT      O82264   4.509   7.185   1.595
27341WAT     H182265   4.574   7.136   1.652
27341WAT     H282266   4.523   7.161   1.499
27342WAT      O82267   1.721   9.046   4.333
27342WAT     H182268   1.737   9.023   4.237
27342WAT     H282269   1.730   8.964   4.389
27343WAT      O82270   1.111   5.669   1.190
27343WAT     H182271   1.070   5.679   1.281
27343WAT     H282272   1.193   5.612   1.196
27344WAT      O82273   0.082   9.412   1.308
27344WAT     H182274   0.173   9.394   1.272
27344WAT     H282275   0.077   9.381   1.403
27345WAT      O82276   5.928   3.918   6.556
27345WAT     H182277   5.898   3.933   6.461
27345WAT     H282278   6.000   3.849   6.557
27346WAT      O82279   4.069   7.789   8.383
27346WAT     H182280   4.097   7.820   8.474
27346WAT     H282281   4.128   7.714   8.353
27347WAT      O82282   3.472   0.754   6.950
27347WAT     H182283   3.399   0.813   6.984
27347WAT     H282284   3.532   0.807   6.889
27348WAT      O82285   5.162   5.098   4.804
27348WAT     H182286   5.262   5.097   4.807
27348WAT     H282287   5.129   5.189   4.828
27349WAT      O82288   8.468   5.800   6.345
27349WAT     H182289   8.501   5.734   6.412
27349WAT     H282290   8.439   5.883   6.392
27350WAT      O82291   0.466   5.938   8.868
27350WAT     H182292   0.510   5.852   8.892
27350WAT     H282293   0.530   5.995   8.817
27351WAT      O82294   4.359   2.074   6.824
27351WAT     H182295   4.396   1.986   6.795
27351WAT     H282296   4.342   2.131   6.743
27352WAT      O82297   2.948   8.845   6.310
27352WAT     H182298   2.863   8.847   6.258
27352WAT     H282299   3.016   8.902   6.264
27353WAT      O82300   3.820   7.433   7.424
27353WAT     H182301   3.904   7.412   7.474
27353WAT     H282302   3.747   7.452   7.489
27354WAT      O82303   2.713   0.438   1.707
27354WAT     H182304   2.806   0.418   1.677
27354WAT     H282305   2.716   0.502   1.784
27355WAT      O82306   6.695   2.861   5.267
27355WAT     H182307   6.664   2.914   5.346
27355WAT     H282308   6.628   2.869   5.193
27356WAT      O82309   8.861   0.661   6.102
27356WAT     H182310   8.799   0.738   6.091
27356WAT     H282311   8.818   0.578   6.067
27357WAT      O82312   6.913   8.902   5.233
27357WAT     H182313   6.991   8.898   5.295
27357WAT     H282314   6.834   8.857   5.275
27358WAT      O82315   2.835   4.609   6.267
27358WAT     H182316   2.922   4.639   6.229
27358WAT     H282317   2.793   4.684   6.319
27359WAT      O82318   3.250   3.115   2.063
27359WAT     H182319   3.261   3.111   2.162
27359WAT     H282320   3.313   3.050   2.019
27360WAT      O82321   8.831   2.860   7.661
27360WAT     H182322   8.901   2.789   7.661
27360WAT     H282323   8.744   2.821   7.690
27361WAT      O82324   0.704   3.908   0.047
27361WAT     H182325   0.703   3.983  -0.020
27361WAT     H282326   0.632   3.843   0.026
27362WAT      O82327   6.360   2.279   2.745
27362WAT     H182328   6.328   2.317   2.658
27362WAT     H282329   6.282   2.241   2.795
27363WAT      O82330   1.940   3.662   2.770
27363WAT     H182331   1.918   3.691   2.863
27363WAT     H282332   1.996   3.733   2.726
27364WAT      O82333   8.810   8.514   6.092
27364WAT     H182334   8.765   8.552   6.172
27364WAT     H282335   8.837   8.419   6.110
27365WAT      O82336   1.241   6.537   4.290
27365WAT     H182337   1.303   6.615   4.292
27365WAT     H282338   1.289   6.457   4.253
27366WAT      O82339   0.162   6.381   8.300
27366WAT     H182340   0.114   6.294   8.288
27366WAT     H282341   0.096   6.455   8.310
27367WAT      O82342   0.416   7.335   7.819
27367WAT     H182343   0.398   7.423   7.862
27367WAT     H282344   0.509   7.333   7.783
27368WAT      O82345   1.745   2.473   5.693
27368WAT     H182346   1.754   2.449   5.789
27368WAT     H282347   1.688   2.405   5.647
27369WAT      O82348   6.442   8.541   9.000
27369WAT     H182349   6.351   8.572   8.973
27369WAT     H282350   6.446   8.441   8.993
27370WAT      O82351   3.819   1.394   4.158
27370WAT     H182352   3.749   1.401   4.087
27370WAT     H282353   3.786   1.438   4.241
27371WAT      O82354   0.498   1.373   1.523
27371WAT     H182355   0.540   1.286   1.497
27371WAT     H282356   0.408   1.380   1.480
27372WAT      O82357   0.538   0.449   3.802
27372WAT     H182358   0.495   0.369   3.761
27372WAT     H282359   0.563   0.429   3.897
27373WAT      O82360   9.426   6.089   2.542
27373WAT     H182361   9.329   6.090   2.564
27373WAT     H282362   9.437   6.068   2.444
27374WAT      O82363   1.123   0.549   3.229
27374WAT     H182364   1.069   0.484   3.283
27374WAT     H282365   1.061   0.605   3.174
27375WAT      O82366   1.377   7.863   7.906
27375WAT     H182367   1.400   7.826   7.996
27375WAT     H282368   1.295   7.817   7.871
27376WAT      O82369   7.967   7.380   0.122
27376WAT     H182370   7.930   7.473   0.132
27376WAT     H282371   7.908   7.328   0.059
27377WAT      O82372   4.079   2.677   7.280
27377WAT     H182373   4.170   2.689   7.240
27377WAT     H282374   4.078   2.718   7.371
27378WAT      O82375   0.105   4.376   1.356
27378WAT     H182376   0.083   4.403   1.449
27378WAT     H282377   0.180   4.433   1.322
27379WAT      O82378   7.772   4.087   0.703
27379WAT     H182379   7.794   4.165   0.762
27379WAT     H282380   7.761   4.119   0.609
27380WAT      O82381   5.941   1.796   8.314
27380WAT     H182382   5.891   1.855   8.378
27380WAT     H282383   5.905   1.703   8.321
27381WAT      O82384   6.245   3.149   2.389
27381WAT     H182385   6.337   3.175   2.359
27381WAT     H282386   6.184   3.147   2.310
27382WAT      O82387   1.593   2.788   7.218
27382WAT     H182388   1.612   2.788   7.120
27382WAT     H282389   1.674   2.817   7.268
27383WAT      O82390   2.225   3.743   1.702
27383WAT     H182391   2.296   3.732   1.633
27383WAT     H282392   2.184   3.834   1.693
27384WAT      O82393   0.180   9.701   3.962
27384WAT     H182394   0.175   9.603   3.947
27384WAT     H282395   0.112   9.728   4.030
27385WAT      O82396   9.676   4.704   3.717
27385WAT     H182397   9.714   4.611   3.719
27385WAT     H282398   9.579   4.700   3.692
27386WAT      O82399   3.988   7.295   7.870
27386WAT     H182400   4.039   7.240   7.937
27386WAT     H282401   3.964   7.383   7.911
27387WAT      O82402   5.986   3.357   8.545
27387WAT     H182403   6.067   3.358   8.486
27387WAT     H282404   5.998   3.424   8.618
27388WAT      O82405   2.181   5.803   5.089
27388WAT     H182406   2.269   5.841   5.117
27388WAT     H282407   2.168   5.713   5.132
27389WAT      O82408   3.257   2.090   4.293
27389WAT     H182409   3.227   2.013   4.349
27389WAT     H282410   3.331   2.059   4.232
27390WAT      O82411   4.886   0.210   9.350
27390WAT     H182412   4.801   0.171   9.314
27390WAT     H282413   4.882   0.212   9.450
27391WAT      O82414   5.551   1.392   6.634
27391WAT     H182415   5.590   1.340   6.558
27391WAT     H282416   5.452   1.394   6.626
27392WAT      O82417   0.592   8.041   5.776
27392WAT     H182418   0.582   8.040   5.677
27392WAT     H282419   0.689   8.048   5.800
27393WAT      O82420   4.864   1.395   2.220
27393WAT     H182421   4.877   1.384   2.319
27393WAT     H282422   4.809   1.319   2.186
27394WAT      O82423   3.130   8.644   8.013
27394WAT     H182424   3.085   8.709   8.074
27394WAT     H282425   3.208   8.689   7.968
27395WAT      O82426   2.288   2.211   0.954
27395WAT     H182427   2.189   2.222   0.967
27395WAT     H282428   2.333   2.300   0.963
27396WAT      O82429   6.789   0.995   4.307
27396WAT     H182430   6.735   1.021   4.387
27396WAT     H282431   6.884   0.982   4.333
27397WAT      O82432   1.452   8.605   1.797
27397WAT     H182433   1.391   8.679   1.826
27397WAT     H282434   1.419   8.565   1.712
27398WAT      O82435   3.014   2.375   5.518
27398WAT     H182436   2.938   2.387   5.454
27398WAT     H282437   3.079   2.308   5.481
27399WAT      O82438   6.478   2.141   1.353
27399WAT     H182439   6.565   2.153   1.307
27399WAT     H282440   6.492   2.141   1.452
27400WAT      O82441   1.941   7.900   7.310
27400WAT     H182442   1.846   7.931   7.306
27400WAT     H282443   2.001   7.976   7.287
27401WAT      O82444   6.207   8.439   6.591
27401WAT     H182445   6.301   8.407   6.602
27401WAT     H282446   6.190   8.464   6.496
27402WAT      O82447   8.714   0.486   8.872
27402WAT     H182448   8.776   0.564   8.872
27402WAT     H282449   8.665   0.482   8.959
27403WAT      O82450   8.049   0.251   0.629
27403WAT     H182451   7.996   0.181   0.581
27403WAT     H282452   8.018   0.342   0.600
27404WAT      O82453   1.846   3.283   5.018
27404WAT     H182454   1.768   3.343   5.036
27404WAT     H282455   1.814   3.188   5.013
27405WAT      O82456   0.732   0.522   3.314
27405WAT     H182457   0.796   0.547   3.386
27405WAT     H282458   0.769   0.446   3.260
27406WAT      O82459   5.532   2.840   9.241
27406WAT     H182460   5.433   2.824   9.238
27406WAT     H282461   5.579   2.769   9.189
27407WAT      O82462   5.551   7.193   9.450
27407WAT     H182463   5.637   7.174   9.498
27407WAT     H282464   5.477   7.142   9.495
27408WAT      O82465   9.365   0.517   9.363
27408WAT     H182466   9.272   0.546   9.341
27408WAT     H282467   9.370   0.417   9.359
27409WAT      O82468   7.633   8.407   2.097
27409WAT     H182469   7.600   8.501   2.108
27409WAT     H282470   7.616   8.356   2.181
27410WAT      O82471   6.090   4.324   7.092
27410WAT     H182472   6.073   4.422   7.104
27410WAT     H282473   6.078   4.276   7.179
27411WAT      O82474   4.003   0.998   5.157
27411WAT     H182475   3.952   0.998   5.243
27411WAT     H282476   3.941   1.020   5.081
27412WAT      O82477   4.168   2.315   1.298
27412WAT     H182478   4.149   2.258   1.219
27412WAT     H282479   4.083   2.329   1.350
27413WAT      O82480   6.572   5.052   4.360
27413WAT     H182481   6.488   5.075   4.411
27413WAT     H282482   6.563   5.083   4.265
27414WAT      O82483   6.642   5.252   0.444
27414WAT     H182484   6.592   5.334   0.473
27414WAT     H282485   6.732   5.250   0.488
27415WAT      O82486   6.178   6.495   3.359
27415WAT     H182487   6.210   6.590   3.362
27415WAT     H282488   6.086   6.493   3.320
27416WAT      O82489   2.750   9.646   5.455
27416WAT     H182490   2.778   9.630   5.361
27416WAT     H282491   2.684   9.721   5.458
27417WAT      O82492   6.288   1.134   3.455
27417WAT     H182493   6.344   1.128   3.537
27417WAT     H282494   6.238   1.048   3.442
27418WAT      O82495   7.317   3.568   7.146
27418WAT     H182496   7.268   3.486   7.176
27418WAT     H282497   7.283   3.647   7.197
27419WAT      O82498   2.514   6.126   9.783
27419WAT     H182499   2.486   6.094   9.693
27419WAT     H282500   2.493   6.224   9.792
27420WAT      O82501   7.279   6.898   0.218
27420WAT     H182502   7.376   6.883   0.199
27420WAT     H282503   7.231   6.810   0.219
27421WAT      O82504   2.678   0.937   0.006
27421WAT     H182505   2.765   0.973  -0.026
27421WAT     H282506   2.694   0.879   0.086
27422WAT      O82507   2.284   0.450   3.837
27422WAT     H182508   2.288   0.407   3.928
27422WAT     H282509   2.234   0.390   3.775
27423WAT      O82510   4.338   0.959   4.772
27423WAT     H182511   4.395   0.889   4.729
27423WAT     H282512   4.372   1.050   4.746
27424WAT      O82513   5.548   6.158   4.251
27424WAT     H182514   5.486   6.187   4.323
27424WAT     H282515   5.631   6.214   4.253
27425WAT      O82516   4.154   3.268   0.093
27425WAT     H182517   4.156   3.343   0.027
27425WAT     H282518   4.248   3.242   0.117
27426WAT      O82519   9.681   7.139   3.061
27426WAT     H182520   9.626   7.220   3.045
27426WAT     H282521   9.622   7.063   3.089
27427WAT      O82522   5.677   2.104   0.029
27427WAT     H182523   5.590   2.064   0.002
27427WAT     H282524   5.736   2.113  -0.051
27428WAT      O82525   6.100   6.175   3.361
27428WAT     H182526   6.064   6.151   3.451
27428WAT     H282527   6.161   6.254   3.370
27429WAT      O82528   2.798   7.399   5.327
27429WAT     H182529   2.716   7.343   5.317
27429WAT     H282530   2.798   7.444   5.416
27430WAT      O82531   6.823   3.555   5.737
27430WAT     H182532   6.871   3.470   5.761
27430WAT     H282533   6.743   3.566   5.796
27431WAT      O82534   6.304   9.172   6.316
27431WAT     H182535   6.359   9.089   6.319
27431WAT     H282536   6.307   9.217   6.405
27432WAT      O82537   1.888   6.280   4.532
27432WAT     H182538   1.836   6.263   4.448
27432WAT     H282539   1.912   6.377   4.538
27433WAT      O82540   2.885   9.026   7.696
27433WAT     H182541   2.870   8.928   7.686
27433WAT     H282542   2.836   9.075   7.624
27434WAT      O82543   7.754   7.627   5.561
27434WAT     H182544   7.660   7.659   5.547
27434WAT     H282545   7.777   7.560   5.490
27435WAT      O82546   7.628   3.553   3.732
27435WAT     H182547   7.577   3.639   3.733
27435WAT     H282548   7.659   3.531   3.824
27436WAT      O82549   2.111   5.085   7.713
27436WAT     H182550   2.028   5.071   7.767
27436WAT     H282551   2.102   5.168   7.659
27437WAT      O82552   7.194   3.442   5.879
27437WAT     H182553   7.206   3.487   5.968
27437WAT     H282554   7.237   3.497   5.808
27438WAT      O82555   1.164   9.050   1.528
27438WAT     H182556   1.065   9.034   1.526
27438WAT     H282557   1.202   9.037   1.436
27439WAT      O82558   9.363   7.117   7.176
27439WAT     H182559   9.293   7.103   7.106
27439WAT     H282560   9.326   7.093   7.266
27440WAT      O82561   4.359   6.665   6.036
27440WAT     H182562   4.356   6.720   5.953
27440WAT     H282563   4.337   6.570   6.015
27441WAT      O82564   4.101   9.837   7.757
27441WAT     H182565   4.137   9.857   7.849
27441WAT     H282566   4.022   9.896   7.740
27442WAT      O82567   0.783   0.217   5.814
27442WAT     H182568   0.788   0.132   5.760
27442WAT     H282569   0.734   0.286   5.762
27443WAT      O82570   7.859   1.535   7.383
27443WAT     H182571   7.954   1.567   7.383
27443WAT     H282572   7.847   1.466   7.312
27444WAT      O82573   9.211   2.532   0.567
27444WAT     H182574   9.187   2.535   0.470
27444WAT     H282575   9.272   2.608   0.589
27445WAT      O82576   9.349   6.628   3.923
27445WAT     H182577   9.372   6.710   3.976
27445WAT     H282578   9.396   6.549   3.962
27446WAT      O82579   5.786   1.451   5.421
27446WAT     H182580   5.821   1.403   5.340
27446WAT     H282581   5.779   1.549   5.400
27447WAT      O82582   2.705   7.401   3.209
27447WAT     H182583   2.687   7.353   3.124
27447WAT     H282584   2.737   7.494   3.189
27448WAT      O82585   4.951   1.034   6.112
27448WAT     H182586   4.917   1.049   6.205
27448WAT     H282587   5.033   0.976   6.116
27449WAT      O82588   6.401   5.063   8.606
27449WAT     H182589   6.462   5.077   8.528
27449WAT     H282590   6.361   4.971   8.601
27450WAT      O82591   3.484   7.823   9.369
27450WAT     H182592   3.466   7.756   9.297
27450WAT     H282593   3.581   7.843   9.372
27451WAT      O82594   3.556   3.480   5.425
27451WAT     H182595   3.569   3.456   5.522
27451WAT     H282596   3.593   3.406   5.368
27452WAT      O82597   8.520   6.913   9.655
27452WAT     H182598   8.496   7.009   9.641
27452WAT     H282599   8.459   6.874   9.724
27453WAT      O82600   5.049   7.812   9.415
27453WAT     H182601   5.010   7.807   9.507
27453WAT     H282602   5.069   7.907   9.393
27454WAT      O82603   0.226   4.277   7.516
27454WAT     H182604   0.309   4.325   7.490
27454WAT     H282605   0.242   4.222   7.598
27455WAT      O82606   2.756   7.027   2.726
27455WAT     H182607   2.705   7.112   2.733
27455WAT     H282608   2.850   7.042   2.755
27456WAT      O82609   0.237   6.039   8.989
27456WAT     H182610   0.183   5.968   8.943
27456WAT     H282611   0.334   6.024   8.970
27457WAT      O82612   1.050   1.975   6.463
27457WAT     H182613   1.050   1.882   6.499
27457WAT     H282614   1.039   2.040   6.539
27458WAT      O82615   2.503   3.746   6.762
27458WAT     H182616   2.488   3.774   6.857
27458WAT     H282617   2.559   3.662   6.761
27459WAT      O82618   8.093   4.973   1.916
27459WAT     H182619   8.036   4.995   1.837
27459WAT     H282620   8.034   4.952   1.994
27460WAT      O82621   3.286   4.367   4.177
27460WAT     H182622   3.193   4.336   4.161
27460WAT     H282623   3.351   4.305   4.133
27461WAT      O82624   2.576   9.513   5.656
27461WAT     H182625   2.629   9.544   5.578
27461WAT     H282626   2.637   9.472   5.724
27462WAT      O82627   3.451   6.575   4.875
27462WAT     H182628   3.417   6.523   4.954
27462WAT     H282629   3.432   6.524   4.791
27463WAT      O82630   0.718   5.886   1.156
27463WAT     H182631   0.676   5.840   1.234
27463WAT     H282632   0.813   5.907   1.176
27464WAT      O82633   9.663   1.513   6.951
27464WAT     H182634   9.622   1.587   6.899
27464WAT     H282635   9.737   1.471   6.898
27465WAT      O82636   0.501   0.674   1.902
27465WAT     H182637   0.520   0.697   1.998
27465WAT     H282638   0.558   0.595   1.876
27466WAT      O82639   1.888   1.311   4.808
27466WAT     H182640   1.830   1.246   4.857
27466WAT     H282641   1.874   1.299   4.709
27467WAT      O82642   0.315   6.317   4.923
27467WAT     H182643   0.345   6.330   4.828
27467WAT     H282644   0.356   6.388   4.980
27468WAT      O82645   7.824   8.373   8.115
27468WAT     H182646   7.872   8.449   8.072
27468WAT     H282647   7.790   8.311   8.044
27469WAT      O82648   3.923   2.896   6.294
27469WAT     H182649   3.933   2.995   6.284
27469WAT     H282650   3.834   2.868   6.259
27470WAT      O82651   6.856   1.966   5.611
27470WAT     H182652   6.855   1.880   5.663
27470WAT     H282653   6.813   1.950   5.521
27471WAT      O82654   0.393   1.839   5.640
27471WAT     H182655   0.426   1.877   5.726
27471WAT     H282656   0.342   1.908   5.590
27472WAT      O82657   4.088   2.901   2.490
27472WAT     H182658   4.079   2.824   2.554
27472WAT     H282659   4.106   2.866   2.398
27473WAT      O82660   9.648   1.636   6.563
27473WAT     H182661   9.627   1.544   6.595
27473WAT     H282662   9.588   1.659   6.486
27474WAT      O82663   8.741   6.198   9.689
27474WAT     H182664   8.802   6.186   9.611
27474WAT     H282665   8.694   6.286   9.681
27475WAT      O82666   0.978   9.613   9.197
27475WAT     H182667   0.900   9.657   9.153
27475WAT     H282668   1.056   9.612   9.133
27476WAT      O82669   8.130   7.518   7.664
27476WAT     H182670   8.204   7.453   7.648
27476WAT     H282671   8.046   7.484   7.621
27477WAT      O82672   0.100   8.519   6.708
27477WAT     H182673   0.156   8.449   6.663
27477WAT     H282674   0.006   8.512   6.675
27478WAT      O82675   3.420   1.391   9.487
27478WAT     H182676   3.506   1.395   9.538
27478WAT     H282677   3.349   1.352   9.545
27479WAT      O82678   5.884   7.177   0.423
27479WAT     H182679   5.798   7.205   0.381
27479WAT     H282680   5.884   7.078   0.438
27480WAT      O82681   2.258   3.374   8.555
27480WAT     H182682   2.220   3.317   8.482
27480WAT     H282683   2.183   3.417   8.605
27481WAT      O82684   8.529   2.794   5.365
27481WAT     H182685   8.439   2.780   5.405
27481WAT     H282686   8.519   2.831   5.272
27482WAT      O82687   1.858   0.402   6.729
27482WAT     H182688   1.781   0.353   6.687
27482WAT     H282689   1.928   0.419   6.660
27483WAT      O82690   5.231   2.009   9.021
27483WAT     H182691   5.228   1.955   9.106
27483WAT     H282692   5.176   2.092   9.032
27484WAT      O82693   8.687   4.636   8.079
27484WAT     H182694   8.587   4.638   8.071
27484WAT     H282695   8.728   4.646   7.989
27485WAT      O82696   4.078   1.615   9.105
27485WAT     H182697   4.077   1.712   9.129
27485WAT     H282698   4.087   1.560   9.188
27486WAT      O82699   2.890   3.978   2.028
27486WAT     H182700   2.811   3.952   2.084
27486WAT     H282701   2.890   4.077   2.014
27487WAT      O82702   8.955   5.755   7.039
27487WAT     H182703   8.991   5.828   7.098
27487WAT     H282704   8.962   5.783   6.943
27488WAT      O82705   0.801   2.375   4.549
27488WAT     H182706   0.760   2.378   4.458
27488WAT     H282707   0.894   2.413   4.545
27489WAT      O82708   7.235   2.811   4.348
27489WAT     H182709   7.152   2.865   4.364
27489WAT     H282710   7.316   2.868   4.361
27490WAT      O82711   5.200   7.461   1.525
27490WAT     H182712   5.243   7.447   1.435
27490WAT     H282713   5.134   7.536   1.519
27491WAT      O82714   0.801   7.294   6.146
27491WAT     H182715   0.858   7.220   6.182
27491WAT     H282716   0.822   7.379   6.194
27492WAT      O82717   4.966   2.201   3.391
27492WAT     H182718   4.934   2.250   3.472
27492WAT     H282719   5.021   2.122   3.419
27493WAT      O82720   9.651   9.747   1.300
27493WAT     H182721   9.561   9.741   1.343
27493WAT     H282722   9.720   9.763   1.370
27494WAT      O82723   0.016   5.640   8.907
27494WAT     H182724  -0.004   5.636   9.005
27494WAT     H282725  -0.058   5.595   8.856
27495WAT      O82726   1.194   4.417   1.625
27495WAT     H182727   1.264   4.487   1.614
27495WAT     H282728   1.215   4.360   1.705
27496WAT      O82729   0.733   3.311   4.672
27496WAT     H182730   0.815   3.291   4.725
27496WAT     H282731   0.685   3.226   4.650
27497WAT      O82732   0.104   6.881   2.018
27497WAT     H182733   0.028   6.820   1.996
27497WAT     H282734   0.188   6.827   2.032
27498WAT      O82735   0.439   1.707   6.398
27498WAT     H182736   0.350   1.700   6.353
27498WAT     H282737   0.483   1.793   6.373
27499WAT      O82738   3.832   6.193   4.422
27499WAT     H182739   3.797   6.206   4.515
27499WAT     H282740   3.860   6.098   4.410
27500WAT      O82741   9.653   7.034   7.059
27500WAT     H182742   9.605   7.036   6.971
27500WAT     H282743   9.586   7.021   7.133
27501WAT      O82744   1.997   8.326   5.557
27501WAT     H182745   2.013   8.348   5.460
27501WAT     H282746   1.990   8.411   5.609
27502WAT      O82747   2.075   1.730   4.863
27502WAT     H182748   2.135   1.666   4.815
27502WAT     H282749   1.983   1.691   4.868
27503WAT      O82750   7.898   3.336   5.768
27503WAT     H182751   7.967   3.362   5.835
27503WAT     H282752   7.807   3.359   5.803
27504WAT      O82753   1.533   2.399   8.903
27504WAT     H182754   1.607   2.417   8.967
27504WAT     H282755   1.535   2.466   8.829
27505WAT      O82756   7.025   6.173   1.947
27505WAT     H182757   7.110   6.145   1.904
27505WAT     H282758   6.975   6.093   1.979
27506WAT      O82759   6.748   1.999   3.235
27506WAT     H182760   6.841   1.969   3.215
27506WAT     H282761   6.750   2.064   3.311
27507WAT      O82762   5.105   8.887   2.926
27507WAT     H182763   5.070   8.900   2.833
27507WAT     H282764   5.071   8.802   2.964
27508WAT      O82765   3.103   9.053   8.532
27508WAT     H182766   3.174   9.032   8.466
27508WAT     H282767   3.090   8.976   8.594
27509WAT      O82768   2.190   6.412   3.864
27509WAT     H182769   2.201   6.468   3.946
27509WAT     H282770   2.139   6.464   3.795
27510WAT      O82771   4.773   6.165   4.005
27510WAT     H182772   4.858   6.190   4.053
27510WAT     H282773   4.759   6.066   4.014
27511WAT      O82774   4.368   5.063   0.829
27511WAT     H182775   4.396   5.151   0.867
27511WAT     H282776   4.282   5.073   0.779
27512WAT      O82777   9.047   0.054   2.499
27512WAT     H182778   9.144   0.037   2.485
27512WAT     H282779   9.034   0.144   2.541
27513WAT      O82780   0.064   8.713   1.320
27513WAT     H182781   0.118   8.744   1.398
27513WAT     H282782  -0.033   8.725   1.339
27514WAT      O82783   3.877   4.867   8.986
27514WAT     H182784   3.809   4.819   9.041
27514WAT     H282785   3.840   4.955   8.956
27515WAT      O82786   3.320   7.500   7.228
27515WAT     H182787   3.244   7.468   7.172
27515WAT     H282788   3.406   7.489   7.178
27516WAT      O82789   3.750   5.736   8.477
27516WAT     H182790   3.848   5.732   8.460
27516WAT     H282791   3.702   5.682   8.407
27517WAT      O82792   2.413   7.327   4.165
27517WAT     H182793   2.394   7.403   4.227
27517WAT     H282794   2.510   7.304   4.169
27518WAT      O82795   7.823   0.397   6.889
27518WAT     H182796   7.920   0.417   6.900
27518WAT     H282797   7.804   0.370   6.795
27519WAT      O82798   2.931   2.126   3.363
27519WAT     H182799   3.011   2.172   3.403
27519WAT     H282800   2.906   2.171   3.277
27520WAT      O82801   3.357   6.675   4.150
27520WAT     H182802   3.429   6.691   4.083
27520WAT     H282803   3.277   6.731   4.128
27521WAT      O82804   5.756   6.770   9.564
27521WAT     H182805   5.853   6.771   9.589
27521WAT     H282806   5.709   6.847   9.607
27522WAT      O82807   4.236   2.893   8.766
27522WAT     H182808   4.140   2.897   8.736
27522WAT     H282809   4.288   2.964   8.718
27523WAT      O82810   0.403   6.330   4.634
27523WAT     H182811   0.492   6.318   4.591
27523WAT     H282812   0.350   6.245   4.626
27524WAT      O82813   8.224   7.082   4.337
27524WAT     H182814   8.136   7.066   4.293
27524WAT     H282815   8.222   7.045   4.430
27525WAT      O82816   7.056   4.539   8.849
27525WAT     H182817   7.016   4.591   8.924
27525WAT     H282818   7.134   4.486   8.884
27526WAT      O82819   3.468   6.608   9.538
27526WAT     H182820   3.467   6.586   9.441
27526WAT     H282821   3.481   6.524   9.591
27527WAT      O82822   6.548   4.396   6.586
27527WAT     H182823   6.464   4.347   6.609
27527WAT     H282824   6.561   4.472   6.650
27528WAT      O82825   8.254   3.022   6.505
27528WAT     H182826   8.202   3.058   6.427
27528WAT     H282827   8.239   2.924   6.513
27529WAT      O82828   1.572   7.564   3.503
27529WAT     H182829   1.516   7.495   3.457
27529WAT     H282830   1.624   7.521   3.577
27530WAT      O82831   5.842   9.143   8.112
27530WAT     H182832   5.879   9.235   8.098
27530WAT     H282833   5.895   9.078   8.058
27531WAT      O82834   6.239   5.045   8.980
27531WAT     H182835   6.240   5.120   9.046
27531WAT     H282836   6.332   5.010   8.968
27532WAT      O82837   2.578   0.753   8.665
27532WAT     H182838   2.510   0.803   8.613
27532WAT     H282839   2.662   0.807   8.672
27533WAT      O82840   1.470   3.458   1.693
27533WAT     H182841   1.559   3.448   1.735
27533WAT     H282842   1.413   3.378   1.714
27534WAT      O82843   7.215   5.144   1.792
27534WAT     H182844   7.199   5.172   1.697
27534WAT     H282845   7.157   5.199   1.853
27535WAT      O82846   1.655   2.649   9.738
27535WAT     H182847   1.605   2.573   9.697
27535WAT     H282848   1.738   2.667   9.685
27536WAT      O82849   7.392   0.999   8.089
27536WAT     H182850   7.416   0.954   8.176
27536WAT     H282851   7.424   1.093   8.091
27537WAT      O82852   4.200   0.120   6.591
27537WAT     H182853   4.278   0.175   6.621
27537WAT     H282854   4.143   0.175   6.529
27538WAT      O82855   8.238   3.358   9.461
27538WAT     H182856   8.185   3.405   9.532
27538WAT     H282857   8.176   3.319   9.394
27539WAT      O82858   9.698   3.759   3.377
27539WAT     H182859   9.717   3.833   3.441
27539WAT     H282860   9.735   3.782   3.287
27540WAT      O82861   6.784   4.002   8.719
27540WAT     H182862   6.726   3.924   8.742
27540WAT     H282863   6.864   3.969   8.669
27541WAT      O82864   0.054   8.268   9.402
27541WAT     H182865   0.107   8.183   9.403
27541WAT     H282866   0.080   8.323   9.323
27542WAT      O82867   3.506   3.626   6.946
27542WAT     H182868   3.589   3.582   6.912
27542WAT     H282869   3.512   3.725   6.932
27543WAT      O82870   5.779   8.485   2.828
27543WAT     H182871   5.764   8.471   2.730
27543WAT     H282872   5.830   8.570   2.842
27544WAT      O82873   1.787   5.457   2.002
27544WAT     H182874   1.754   5.442   2.095
27544WAT     H282875   1.725   5.414   1.937
27545WAT      O82876   8.845   0.764   0.922
27545WAT     H182877   8.798   0.732   0.840
27545WAT     H282878   8.789   0.833   0.968
27546WAT      O82879   8.912   8.623   4.484
27546WAT     H182880   8.920   8.702   4.422
27546WAT     H282881   8.823   8.580   4.472
27547WAT      O82882   6.808   3.937   6.060
27547WAT     H182883   6.751   3.855   6.060
27547WAT     H282884   6.796   3.986   5.974
27548WAT      O82885   5.733   0.225   7.164
27548WAT     H182886   5.810   0.256   7.220
27548WAT     H282887   5.698   0.139   7.200
27549WAT      O82888   9.122   1.495   7.102
27549WAT     H182889   9.191   1.519   7.034
27549WAT     H282890   9.031   1.518   7.067
27550WAT      O82891   5.014   7.671   5.010
27550WAT     H182892   4.986   7.766   4.997
27550WAT     H282893   4.955   7.627   5.078
27551WAT      O82894   4.410   7.033   3.997
27551WAT     H182895   4.419   6.984   4.084
27551WAT     H282896   4.410   7.132   4.014
27552WAT      O82897   1.173   4.046   0.427
27552WAT     H182898   1.271   4.031   0.444
27552WAT     H282899   1.132   3.961   0.393
27553WAT      O82900   3.458   1.339   3.231
27553WAT     H182901   3.366   1.378   3.220
27553WAT     H282902   3.506   1.342   3.143
27554WAT      O82903   3.410   5.157   4.379
27554WAT     H182904   3.429   5.253   4.360
27554WAT     H282905   3.314   5.137   4.358
27555WAT      O82906   4.289   4.254   7.954
27555WAT     H182907   4.375   4.231   7.999
27555WAT     H282908   4.306   4.322   7.883
27556WAT      O82909   8.369   0.522   0.332
27556WAT     H182910   8.276   0.486   0.333
27556WAT     H282911   8.408   0.519   0.424
27557WAT      O82912   9.478   7.835   2.436
27557WAT     H182913   9.572   7.848   2.468
27557WAT     H282914   9.414   7.877   2.501
27558WAT      O82915   8.315   6.792   0.661
27558WAT     H182916   8.412   6.788   0.636
27558WAT     H282917   8.299   6.871   0.720
27559WAT      O82918   5.828   0.383   7.677
27559WAT     H182919   5.772   0.451   7.724
27559WAT     H282920   5.918   0.422   7.657
27560WAT      O82921   9.100   2.134   5.705
27560WAT     H182922   9.051   2.216   5.735
27560WAT     H282923   9.058   2.100   5.620
27561WAT      O82924   2.753   4.772   7.286
27561WAT     H182925   2.718   4.861   7.256
27561WAT     H282926   2.820   4.739   7.220
27562WAT      O82927   7.211   2.972   0.744
27562WAT     H182928   7.154   2.965   0.662
27562WAT     H282929   7.301   2.931   0.726
27563WAT      O82930   7.969   6.065   4.060
27563WAT     H182931   7.901   6.089   4.131
27563WAT     H282932   7.924   6.013   3.988
27564WAT      O82933   4.409   1.334   0.250
27564WAT     H182934   4.320   1.365   0.216
27564WAT     H282935   4.434   1.388   0.331
27565WAT      O82936   7.727   5.174   1.240
27565WAT     H182937   7.762   5.217   1.324
27565WAT     H282938   7.738   5.238   1.164
27566WAT      O82939   8.756   0.132   3.925
27566WAT     H182940   8.789   0.217   3.885
27566WAT     H282941   8.732   0.146   4.021
27567WAT      O82942   0.574   0.307   7.772
27567WAT     H182943   0.637   0.231   7.751
27567WAT     H282944   0.543   0.349   7.687
27568WAT      O82945   7.423   9.501   8.280
27568WAT     H182946   7.369   9.425   8.316
27568WAT     H282947   7.372   9.547   8.208
27569WAT      O82948   1.573   0.385   5.522
27569WAT     H182949   1.490   0.434   5.496
27569WAT     H282950   1.553   0.287   5.530
27570WAT      O82951   8.536   4.074   9.761
27570WAT     H182952   8.629   4.093   9.791
27570WAT     H282953   8.479   4.054   9.841
27571WAT      O82954   5.807   5.513   9.556
27571WAT     H182955   5.742   5.566   9.610
27571WAT     H282956   5.830   5.429   9.604
27572WAT      O82957   7.365   2.678   7.450
27572WAT     H182958   7.298   2.627   7.504
27572WAT     H282959   7.426   2.729   7.511
27573WAT      O82960   0.346   4.483   1.311
27573WAT     H182961   0.417   4.471   1.380
27573WAT     H282962   0.340   4.580   1.286
27574WAT      O82963   1.724   2.205   4.099
27574WAT     H182964   1.740   2.276   4.167
27574WAT     H282965   1.678   2.127   4.141
27575WAT      O82966   8.926   7.942   0.843
27575WAT     H182967   9.002   7.999   0.874
27575WAT     H282968   8.921   7.859   0.898
27576WAT      O82969   8.040   0.573   9.759
27576WAT     H182970   8.022   0.608   9.850
27576WAT     H282971   7.953   0.554   9.712
27577WAT      O82972   6.643   1.399   2.287
27577WAT     H182973   6.588   1.316   2.280
27577WAT     H282974   6.731   1.385   2.241
27578WAT      O82975   6.440   7.113   6.460
27578WAT     H182976   6.419   7.046   6.389
27578WAT     H282977   6.459   7.066   6.546
27579WAT      O82978   9.039   3.559   0.512
27579WAT     H182979   9.111   3.498   0.547
27579WAT     H282980   9.055   3.652   0.544
27580WAT      O82981   7.390   9.678   5.719
27580WAT     H182982   7.438   9.763   5.700
27580WAT     H282983   7.291   9.691   5.708
27581WAT      O82984   3.091   0.252   0.323
27581WAT     H182985   3.080   0.338   0.372
27581WAT     H282986   3.187   0.226   0.321
27582WAT      O82987   0.961   2.109   2.309
27582WAT     H182988   0.899   2.063   2.372
27582WAT     H282989   0.924   2.105   2.216
27583WAT      O82990   8.634   8.367   0.114
27583WAT     H182991   8.724   8.362   0.157
27583WAT     H282992   8.582   8.284   0.134
27584WAT      O82993   2.964   2.885   2.537
27584WAT     H182994   3.042   2.883   2.600
27584WAT     H282995   2.921   2.975   2.540
27585WAT      O82996   0.555   4.495   0.187
27585WAT     H182997   0.487   4.559   0.150
27585WAT     H282998   0.601   4.537   0.265
27586WAT      O82999   2.534   4.201   2.329
27586WAT     H183000   2.611   4.252   2.367
27586WAT     H283001   2.503   4.247   2.246
27587WAT      O83002   1.065   5.278   9.762
27587WAT     H183003   1.104   5.342   9.828
27587WAT     H283004   0.968   5.265   9.782
27588WAT      O83005   9.531   8.072   5.394
27588WAT     H183006   9.564   8.163   5.368
27588WAT     H283007   9.431   8.073   5.399
27589WAT      O83008   4.787   2.815   2.341
27589WAT     H183009   4.698   2.858   2.324
27589WAT     H283010   4.774   2.733   2.397
27590WAT      O83011   4.712   1.610   5.168
27590WAT     H183012   4.696   1.649   5.259
27590WAT     H283013   4.652   1.655   5.102
27591WAT      O83014   1.946   0.322   9.501
27591WAT     H183015   1.959   0.227   9.470
27591WAT     H283016   1.956   0.384   9.424
27592WAT      O83017   4.375   7.698   8.090
27592WAT     H183018   4.425   7.783   8.103
27592WAT     H283019   4.326   7.674   8.174
27593WAT      O83020   8.930   1.031   3.141
27593WAT     H183021   8.854   0.974   3.172
27593WAT     H283022   8.906   1.128   3.154
27594WAT      O83023   1.407   4.534   8.178
27594WAT     H183024   1.390   4.475   8.099
27594WAT     H283025   1.468   4.608   8.151
27595WAT      O83026   3.133   1.433   7.593
27595WAT     H183027   3.212   1.482   7.630
27595WAT     H283028   3.161   1.341   7.565
27596WAT      O83029   5.812   7.647   7.425
27596WAT     H183030   5.893   7.606   7.382
27596WAT     H283031   5.746   7.674   7.355
27597WAT      O83032   5.718   7.491   4.849
27597WAT     H183033   5.621   7.517   4.847
27597WAT     H283034   5.730   7.407   4.796
27598WAT      O83035   4.233   6.795   1.070
27598WAT     H183036   4.222   6.817   0.973
27598WAT     H283037   4.148   6.813   1.119
27599WAT      O83038   9.552   4.394   9.627
27599WAT     H183039   9.559   4.304   9.584
27599WAT     H283040   9.641   4.422   9.661
27600WAT      O83041   1.011   3.115   7.027
27600WAT     H183042   1.069   3.196   7.025
27600WAT     H283043   0.966   3.108   7.116
27601WAT      O83044   1.323   8.616   0.029
27601WAT     H183045   1.248   8.631  -0.035
27601WAT     H283046   1.289   8.571   0.111
27602WAT      O83047   4.198   4.052   7.526
27602WAT     H183048   4.114   4.096   7.494
27602WAT     H283049   4.207   3.961   7.484
27603WAT      O83050   9.018   5.901   8.032
27603WAT     H183051   9.046   5.907   7.936
27603WAT     H283052   9.098   5.883   8.089
27604WAT      O83053   0.325   7.289   1.098
27604WAT     H183054   0.393   7.344   1.049
27604WAT     H283055   0.342   7.295   1.197
27605WAT      O83056   6.409   3.572   7.063
27605WAT     H183057   6.499   3.614   7.070
27605WAT     H283058   6.383   3.564   6.966
27606WAT      O83059   1.798   7.435   5.607
27606WAT     H183060   1.853   7.399   5.532
27606WAT     H283061   1.762   7.359   5.661
27607WAT      O83062   7.530   8.089   9.283
27607WAT     H183063   7.582   8.174   9.286
27607WAT     H283064   7.435   8.109   9.258
27608WAT      O83065   3.790   1.360   6.349
27608WAT     H183066   3.867   1.421   6.365
27608WAT     H283067   3.797   1.281   6.409
27609WAT      O83068   2.490   6.942   2.881
27609WAT     H183069   2.475   7.037   2.910
27609WAT     H283070   2.585   6.932   2.850
27610WAT      O83071   9.106   6.115   3.457
27610WAT     H183072   9.199   6.088   3.432
27610WAT     H283073   9.108   6.204   3.501
27611WAT      O83074   6.350   4.025   3.914
27611WAT     H183075   6.362   4.063   4.005
27611WAT     H283076   6.274   4.070   3.868
27612WAT      O83077   6.763   6.267   3.581
27612WAT     H183078   6.766   6.181   3.530
27612WAT     H283079   6.757   6.343   3.517
27613WAT      O83080   8.953   5.493   1.403
27613WAT     H183081   8.890   5.501   1.480
27613WAT     H283082   9.018   5.419   1.421
27614WAT      O83083   4.910   3.183   9.312
27614WAT     H183084   4.822   3.214   9.275
27614WAT     H283085   4.910   3.196   9.411
27615WAT      O83086   9.185   5.837   9.329
27615WAT     H183087   9.098   5.871   9.364
27615WAT     H283088   9.224   5.903   9.264
27616WAT      O83089   7.246   3.787   7.295
27616WAT     H183090   7.222   3.822   7.386
27616WAT     H283091   7.329   3.832   7.263
27617WAT      O83092   8.579   7.569   9.499
27617WAT     H183093   8.626   7.629   9.434
27617WAT     H283094   8.507   7.621   9.546
27618WAT      O83095   0.179   7.495   0.604
27618WAT     H183096   0.150   7.468   0.696
27618WAT     H283097   0.115   7.563   0.568
27619WAT      O83098   2.637   7.600   5.035
27619WAT     H183099   2.610   7.581   4.940
27619WAT     H283100   2.736   7.609   5.041
27620WAT      O83101   1.891   8.550   0.664
27620WAT     H183102   1.939   8.601   0.593
27620WAT     H283103   1.946   8.552   0.748
27621WAT      O83104   6.600   9.504   1.944
27621WAT     H183105   6.533   9.442   1.984
27621WAT     H283106   6.654   9.547   2.017
27622WAT      O83107   0.695   9.838   0.984
27622WAT     H183108   0.772   9.776   0.992
27622WAT     H283109   0.645   9.819   0.900
27623WAT      O83110   0.070   6.901   8.091
27623WAT     H183111   0.138   6.953   8.143
27623WAT     H283112   0.003   6.861   8.154
27624WAT      O83113   2.892   2.084   2.135
27624WAT     H183114   2.868   2.053   2.227
27624WAT     H283115   2.950   2.165   2.141
27625WAT      O83116   7.551   6.521   6.684
27625WAT     H183117   7.599   6.475   6.608
27625WAT     H283118   7.461   6.549   6.653
27626WAT      O83119   9.617   5.944   3.338
27626WAT     H183120   9.709   5.965   3.369
27626WAT     H283121   9.621   5.884   3.258
27627WAT      O83122   5.111   7.064   8.356
27627WAT     H183123   5.147   7.047   8.264
27627WAT     H283124   5.170   7.019   8.423
27628WAT      O83125   2.059   6.985   4.426
27628WAT     H183126   2.042   6.973   4.328
27628WAT     H283127   2.083   6.898   4.467
27629WAT      O83128   3.772   2.727   4.549
27629WAT     H183129   3.751   2.805   4.490
27629WAT     H283130   3.830   2.663   4.499
27630WAT      O83131   4.207   2.818   8.482
27630WAT     H183132   4.301   2.854   8.486
27630WAT     H283133   4.168   2.819   8.573
27631WAT      O83134   3.560   9.546   0.351
27631WAT     H183135   3.645   9.501   0.326
27631WAT     H283136   3.541   9.529   0.448
27632WAT      O83137   2.787   8.807   3.245
27632WAT     H183138   2.739   8.822   3.331
27632WAT     H283139   2.809   8.895   3.203
27633WAT      O83140   0.997   2.422   1.033
27633WAT     H183141   1.002   2.467   0.944
27633WAT     H283142   1.044   2.335   1.030
27634WAT      O83143   5.817   5.747   2.348
27634WAT     H183144   5.762   5.770   2.429
27634WAT     H283145   5.909   5.786   2.358
27635WAT      O83146   1.541   0.674   9.601
27635WAT     H183147   1.570   0.579   9.604
27635WAT     H283148   1.565   0.714   9.513
27636WAT      O83149   6.274   3.650   8.617
27636WAT     H183150   6.317   3.567   8.654
27636WAT     H283151   6.214   3.690   8.686
27637WAT      O83152   1.770   6.600   1.093
27637WAT     H183153   1.706   6.619   1.168
27637WAT     H283154   1.811   6.685   1.061
27638WAT      O83155   0.363   3.543   5.336
27638WAT     H183156   0.388   3.495   5.420
27638WAT     H283157   0.434   3.610   5.314
27639WAT      O83158   8.814   6.561   1.635
27639WAT     H183159   8.791   6.635   1.572
27639WAT     H283160   8.779   6.475   1.599
27640WAT      O83161   5.766   6.301   2.623
27640WAT     H183162   5.780   6.334   2.529
27640WAT     H283163   5.808   6.366   2.687
27641WAT      O83164   2.743   9.698   6.963
27641WAT     H183165   2.766   9.688   7.059
27641WAT     H283166   2.652   9.658   6.946
27642WAT      O83167   7.707   7.858   8.779
27642WAT     H183168   7.733   7.795   8.706
27642WAT     H283169   7.611   7.842   8.804
27643WAT      O83170   7.952   9.756   4.634
27643WAT     H183171   8.028   9.818   4.651
27643WAT     H283172   7.891   9.755   4.713
27644WAT      O83173   6.013   1.060   1.057
27644WAT     H183174   5.939   1.043   0.992
27644WAT     H283175   5.975   1.094   1.143
27645WAT      O83176   1.770   8.323   5.288
27645WAT     H183177   1.862   8.361   5.299
27645WAT     H283178   1.768   8.265   5.207
27646WAT      O83179   1.268   5.173   9.603
27646WAT     H183180   1.201   5.240   9.635
27646WAT     H283181   1.234   5.127   9.522
27647WAT      O83182   4.866   6.578   9.386
27647WAT     H183183   4.857   6.494   9.440
27647WAT     H283184   4.897   6.652   9.444
27648WAT      O83185   6.713   6.534   2.009
27648WAT     H183186   6.618   6.545   1.982
27648WAT     H283187   6.752   6.454   1.962
27649WAT      O83188   6.431   6.068   8.874
27649WAT     H183189   6.391   6.159   8.886
27649WAT     H283190   6.530   6.074   8.883
27650WAT      O83191   1.654   8.939   0.611
27650WAT     H183192   1.652   8.845   0.645
27650WAT     H283193   1.638   8.939   0.512
27651WAT      O83194   6.749   1.033   8.121
27651WAT     H183195   6.670   1.078   8.161
27651WAT     H283196   6.722   0.942   8.088
27652WAT      O83197   8.438   1.697   8.060
27652WAT     H183198   8.455   1.707   8.158
27652WAT     H283199   8.379   1.617   8.045
27653WAT      O83200   8.807   3.070   3.417
27653WAT     H183201   8.736   3.020   3.368
27653WAT     H283202   8.765   3.143   3.471
27654WAT      O83203   7.361   4.882   4.449
27654WAT     H183204   7.298   4.835   4.389
27654WAT     H283205   7.346   4.854   4.543
27655WAT      O83206   2.293   5.734   2.252
27655WAT     H183207   2.281   5.822   2.298
27655WAT     H283208   2.390   5.713   2.247
27656WAT      O83209   0.297   8.206   1.135
27656WAT     H183210   0.225   8.227   1.201
27656WAT     H283211   0.382   8.253   1.162
27657WAT      O83212   3.105   3.509   1.316
27657WAT     H183213   3.071   3.497   1.223
27657WAT     H283214   3.205   3.507   1.315
27658WAT      O83215   2.926   1.980   4.836
27658WAT     H183216   3.006   1.919   4.841
27658WAT     H283217   2.958   2.075   4.834
27659WAT      O83218   3.590   0.630   1.256
27659WAT     H183219   3.655   0.631   1.333
27659WAT     H283220   3.497   0.622   1.292
27660WAT      O83221   9.423   4.345   5.557
27660WAT     H183222   9.324   4.358   5.556
27660WAT     H283223   9.449   4.293   5.639
27661WAT      O83224   6.117   2.978   7.986
27661WAT     H183225   6.032   3.024   8.013
27661WAT     H283226   6.193   3.042   7.992
27662WAT      O83227   5.151   8.196   6.251
27662WAT     H183228   5.175   8.243   6.336
27662WAT     H283229   5.219   8.126   6.231
27663WAT      O83230   8.173   5.282   1.171
27663WAT     H183231   8.090   5.295   1.116
27663WAT     H283232   8.213   5.193   1.150
27664WAT      O83233   9.312   7.954   5.730
27664WAT     H183234   9.364   7.882   5.685
27664WAT     H283235   9.365   7.989   5.808
27665WAT      O83236   6.468   0.134   5.559
27665WAT     H183237   6.494   0.176   5.472
27665WAT     H283238   6.404   0.195   5.607
27666WAT      O83239   2.639   0.656   7.468
27666WAT     H183240   2.606   0.618   7.381
27666WAT     H283241   2.648   0.582   7.535
27667WAT      O83242   2.320   8.482   8.806
27667WAT     H183243   2.228   8.447   8.825
27667WAT     H283244   2.352   8.533   8.886
27668WAT      O83245   3.646   2.653   3.951
27668WAT     H183246   3.601   2.567   3.928
27668WAT     H283247   3.577   2.725   3.961
27669WAT      O83248   6.191   0.210   8.721
27669WAT     H183249   6.169   0.212   8.818
27669WAT     H283250   6.277   0.258   8.705
27670WAT      O83251   7.738   3.133   0.221
27670WAT     H183252   7.661   3.188   0.190
27670WAT     H283253   7.798   3.189   0.278
27671WAT      O83254   0.422   1.083   1.302
27671WAT     H183255   0.410   1.097   1.401
27671WAT     H283256   0.340   1.042   1.264
27672WAT      O83257   2.154   0.524   8.748
27672WAT     H183258   2.149   0.564   8.656
27672WAT     H283259   2.248   0.500   8.769
27673WAT      O83260   7.237   9.215   6.268
27673WAT     H183261   7.250   9.302   6.315
27673WAT     H283262   7.279   9.142   6.322
27674WAT      O83263   3.615   7.661   2.811
27674WAT     H183264   3.691   7.678   2.875
27674WAT     H283265   3.529   7.692   2.853
27675WAT      O83266   2.077   8.542   0.880
27675WAT     H183267   2.065   8.443   0.879
27675WAT     H283268   2.164   8.565   0.924
27676WAT      O83269   0.658   4.835   0.629
27676WAT     H183270   0.709   4.890   0.694
27676WAT     H283271   0.615   4.758   0.676
27677WAT      O83272   2.941   4.600   4.216
27677WAT     H183273   2.961   4.626   4.121
27677WAT     H283274   2.912   4.681   4.267
27678WAT      O83275   9.803   0.865   4.600
27678WAT     H183276   9.900   0.865   4.577
27678WAT     H283277   9.749   0.861   4.516
27679WAT      O83278   0.711   7.748   6.908
27679WAT     H183279   0.790   7.691   6.928
27679WAT     H283280   0.629   7.708   6.950
27680WAT      O83281   6.029   5.241   9.081
27680WAT     H183282   5.989   5.332   9.089
27680WAT     H283283   5.997   5.197   8.997
27681WAT      O83284   1.691   7.661   8.651
27681WAT     H183285   1.612   7.653   8.711
27681WAT     H283286   1.688   7.749   8.603
27682WAT      O83287   4.287   0.651   9.586
27682WAT     H183288   4.259   0.722   9.521
27682WAT     H283289   4.336   0.579   9.538
27683WAT      O83290   5.927   9.728   8.027
27683WAT     H183291   5.962   9.659   7.965
27683WAT     H283292   5.966   9.817   8.003
27684WAT      O83293   0.014   7.750   7.839
27684WAT     H183294  -0.074   7.795   7.857
27684WAT     H283295   0.068   7.748   7.924
27685WAT      O83296   4.857   9.075   7.051
27685WAT     H183297   4.759   9.077   7.075
27685WAT     H283298   4.907   9.028   7.123
27686WAT      O83299   5.303   6.732   7.158
27686WAT     H183300   5.390   6.741   7.206
27686WAT     H283301   5.319   6.688   7.069
27687WAT      O83302   3.359   1.389   1.461
27687WAT     H183303   3.374   1.291   1.447
27687WAT     H283304   3.281   1.419   1.406
27688WAT      O83305   3.897   8.777   4.922
27688WAT     H183306   3.876   8.835   4.844
27688WAT     H283307   3.884   8.828   5.007
27689WAT      O83308   8.459   6.461   5.370
27689WAT     H183309   8.518   6.463   5.450
27689WAT     H283310   8.368   6.428   5.396
27690WAT      O83311   8.818   3.241   7.448
27690WAT     H183312   8.756   3.290   7.387
27690WAT     H283313   8.901   3.294   7.461
27691WAT      O83314   3.442   3.106   7.298
27691WAT     H183315   3.384   3.078   7.374
27691WAT     H283316   3.510   3.035   7.280
27692WAT      O83317   4.871   5.866   5.941
27692WAT     H183318   4.864   5.954   5.893
27692WAT     H283319   4.890   5.793   5.876
27693WAT      O83320   8.607   0.490   9.462
27693WAT     H183321   8.519   0.462   9.499
27693WAT     H283322   8.676   0.487   9.535
27694WAT      O83323   0.893   9.639   3.088
27694WAT     H183324   0.857   9.548   3.107
27694WAT     H283325   0.913   9.647   2.990
27695WAT      O83326   9.193   6.936   5.298
27695WAT     H183327   9.226   7.017   5.250
27695WAT     H283328   9.223   6.939   5.394
27696WAT      O83329   5.961   6.236   4.717
27696WAT     H183330   5.959   6.181   4.634
27696WAT     H283331   6.028   6.200   4.781
27697WAT      O83332   7.989   6.084   0.636
27697WAT     H183333   8.042   6.067   0.719
27697WAT     H283334   8.045   6.064   0.556
27698WAT      O83335   8.432   8.109   8.254
27698WAT     H183336   8.432   8.013   8.282
27698WAT     H283337   8.498   8.160   8.309
27699WAT      O83338   7.053   4.200   2.254
27699WAT     H183339   6.970   4.239   2.215
27699WAT     H283340   7.098   4.142   2.186
27700WAT      O83341   1.963   3.259   9.662
27700WAT     H183342   1.915   3.255   9.750
27700WAT     H283343   1.896   3.274   9.589
27701WAT      O83344   8.079   0.744   5.755
27701WAT     H183345   8.064   0.792   5.841
27701WAT     H283346   8.005   0.678   5.739
27702WAT      O83347   7.208   0.036   5.437
27702WAT     H183348   7.170   0.119   5.479
27702WAT     H283349   7.154   0.010   5.358
27703WAT      O83350   9.458   0.498   9.065
27703WAT     H183351   9.554   0.524   9.056
27703WAT     H283352   9.438   0.481   9.162
27704WAT      O83353   9.129   5.110   6.856
27704WAT     H183354   9.143   5.133   6.953
27704WAT     H283355   9.035   5.130   6.830
27705WAT      O83356   0.243   3.168   5.764
27705WAT     H183357   0.167   3.168   5.699
27705WAT     H283358   0.249   3.079   5.808
27706WAT      O83359   2.241   3.215   0.911
27706WAT     H183360   2.145   3.243   0.912
27706WAT     H283361   2.280   3.232   0.821
27707WAT      O83362   2.242   4.570   2.969
27707WAT     H183363   2.266   4.482   2.929
27707WAT     H283364   2.269   4.643   2.906
27708WAT      O83365   7.200   6.997   3.038
27708WAT     H183366   7.213   6.928   3.109
27708WAT     H283367   7.138   7.068   3.072
27709WAT      O83368   6.221   0.909   6.958
27709WAT     H183369   6.190   1.004   6.958
27709WAT     H283370   6.311   0.903   6.914
27710WAT      O83371   8.437   5.368   0.813
27710WAT     H183372   8.402   5.369   0.906
27710WAT     H283373   8.415   5.454   0.767
27711WAT      O83374   3.360   8.241   0.786
27711WAT     H183375   3.280   8.299   0.799
27711WAT     H283376   3.347   8.154   0.834
27712WAT      O83377   7.315   2.089   3.585
27712WAT     H183378   7.255   2.029   3.532
27712WAT     H283379   7.313   2.181   3.546
27713WAT      O83380   9.109   4.822   2.128
27713WAT     H183381   9.147   4.749   2.186
27713WAT     H283382   9.163   4.905   2.140
27714WAT      O83383   9.866   6.311   3.321
27714WAT     H183384   9.929   6.283   3.249
27714WAT     H283385   9.909   6.383   3.376
27715WAT      O83386   4.101   0.397   7.295
27715WAT     H183387   4.034   0.390   7.221
27715WAT     H283388   4.181   0.447   7.263
27716WAT      O83389   6.925   9.458   1.597
27716WAT     H183390   6.872   9.385   1.639
27716WAT     H283391   6.864   9.519   1.547
27717WAT      O83392   5.635   0.663   5.912
27717WAT     H183393   5.630   0.589   5.980
27717WAT     H283394   5.571   0.644   5.837
27718WAT      O83395   6.893   6.692   6.875
27718WAT     H183396   6.903   6.592   6.873
27718WAT     H283397   6.805   6.718   6.835
27719WAT      O83398   5.234   1.293   9.578
27719WAT     H183399   5.151   1.244   9.604
27719WAT     H283400   5.244   1.375   9.635
27720WAT      O83401   5.341   4.857   1.940
27720WAT     H183402   5.366   4.927   2.006
27720WAT     H283403   5.271   4.797   1.979
27721WAT      O83404   4.803   0.405   8.260
27721WAT     H183405   4.879   0.365   8.207
27721WAT     H283406   4.781   0.344   8.337
27722WAT      O83407   6.311   6.961   2.191
27722WAT     H183408   6.215   6.989   2.194
27722WAT     H283409   6.319   6.864   2.215
27723WAT      O83410   3.960   1.481   0.080
27723WAT     H183411   3.987   1.486  -0.017
27723WAT     H283412   3.861   1.466   0.086
27724WAT      O83413   4.937   8.942   0.872
27724WAT     H183414   4.858   8.889   0.899
27724WAT     H283415   4.924   8.976   0.778
27725WAT      O83416   1.389   6.079   5.261
27725WAT     H183417   1.325   6.012   5.296
27725WAT     H283418   1.384   6.163   5.315
27726WAT      O83419   0.814   0.997   8.339
27726WAT     H183420   0.809   1.047   8.253
27726WAT     H283421   0.811   0.898   8.321
27727WAT      O83422   7.405   8.625   4.099
27727WAT     H183423   7.318   8.655   4.060
27727WAT     H283424   7.463   8.705   4.115
27728WAT      O83425   6.632   7.123   6.168
27728WAT     H183426   6.713   7.158   6.121
27728WAT     H283427   6.646   7.129   6.267
27729WAT      O83428   0.696   1.153   5.961
27729WAT     H183429   0.683   1.144   5.862
27729WAT     H283430   0.735   1.068   5.997
27730WAT      O83431   0.057   3.463   8.619
27730WAT     H183432   0.059   3.426   8.712
27730WAT     H283433  -0.036   3.454   8.582
27731WAT      O83434   0.411   3.041   7.746
27731WAT     H183435   0.363   3.040   7.833
27731WAT     H283436   0.488   3.105   7.751
27732WAT      O83437   0.521   8.942   6.254
27732WAT     H183438   0.607   8.892   6.247
27732WAT     H283439   0.528   9.029   6.207
27733WAT      O83440   8.474   0.785   4.648
27733WAT     H183441   8.487   0.734   4.563
27733WAT     H283442   8.561   0.791   4.698
27734WAT      O83443   9.741   5.571   3.589
27734WAT     H183444   9.727   5.670   3.587
27734WAT     H283445   9.789   5.543   3.506
27735WAT      O83446   6.091   6.949   3.351
27735WAT     H183447   6.005   6.971   3.397
27735WAT     H283448   6.121   7.027   3.296
27736WAT      O83449   3.815   2.430   6.172
27736WAT     H183450   3.794   2.474   6.259
27736WAT     H283451   3.838   2.499   6.104
27737WAT      O83452   9.576   5.895   8.646
27737WAT     H183453   9.568   5.989   8.613
27737WAT     H283454   9.489   5.864   8.683
27738WAT      O83455   4.705   2.699   6.998
27738WAT     H183456   4.613   2.664   7.018
27738WAT     H283457   4.733   2.761   7.072
27739WAT      O83458   4.388   4.410   8.820
27739WAT     H183459   4.319   4.384   8.888
27739WAT     H283460   4.342   4.440   8.736
27740WAT      O83461   4.587   2.270   3.880
27740WAT     H183462   4.521   2.336   3.843
27740WAT     H283463   4.616   2.208   3.808
27741WAT      O83464   3.233   3.281   3.652
27741WAT     H183465   3.241   3.245   3.744
27741WAT     H283466   3.189   3.371   3.654
27742WAT      O83467   2.857   0.704   2.337
27742WAT     H183468   2.886   0.696   2.433
27742WAT     H283469   2.819   0.795   2.322
27743WAT      O83470   5.067   5.442   2.653
27743WAT     H183471   5.039   5.537   2.638
27743WAT     H283472   5.057   5.391   2.568
27744WAT      O83473   1.406   7.725   6.656
27744WAT     H183474   1.319   7.768   6.631
27744WAT     H283475   1.463   7.792   6.704
27745WAT      O83476   2.854   7.100   5.204
27745WAT     H183477   2.849   7.181   5.262
27745WAT     H283478   2.783   7.106   5.134
27746WAT      O83479   1.653   1.580   8.310
27746WAT     H183480   1.653   1.676   8.336
27746WAT     H283481   1.748   1.550   8.297
27747WAT      O83482   5.268   5.634   6.054
27747WAT     H183483   5.217   5.551   6.077
27747WAT     H283484   5.345   5.645   6.117
27748WAT      O83485   3.094   8.562   1.235
27748WAT     H183486   3.083   8.597   1.141
27748WAT     H283487   3.160   8.618   1.284
27749WAT      O83488   0.087   3.038   4.017
27749WAT     H183489   0.169   3.072   3.970
27749WAT     H283490   0.113   2.972   4.087
27750WAT      O83491   6.476   9.179   5.439
27750WAT     H183492   6.448   9.091   5.401
27750WAT     H283493   6.527   9.230   5.370
27751WAT      O83494   2.331   4.919   8.193
27751WAT     H183495   2.275   4.844   8.229
27751WAT     H283496   2.356   4.900   8.098
27752WAT      O83497   4.240   8.949   1.133
27752WAT     H183498   4.298   9.021   1.170
27752WAT     H283499   4.273   8.923   1.042
27753WAT      O83500   4.542   7.763   1.980
27753WAT     H183501   4.575   7.855   1.999
27753WAT     H283502   4.548   7.708   2.063
27754WAT      O83503   4.420   2.183   1.097
27754WAT     H183504   4.356   2.195   1.022
27754WAT     H283505   4.504   2.234   1.078
27755WAT      O83506   7.522   2.507   6.716
27755WAT     H183507   7.585   2.575   6.752
27755WAT     H283508   7.534   2.499   6.617
27756WAT      O83509   4.880   1.146   6.405
27756WAT     H183510   4.908   1.069   6.463
27756WAT     H283511   4.801   1.191   6.445
27757WAT      O83512   2.422   2.820   2.975
27757WAT     H183513   2.488   2.858   2.909
27757WAT     H283514   2.426   2.873   3.060
27758WAT      O83515   4.289   4.421   9.711
27758WAT     H183516   4.360   4.368   9.665
27758WAT     H283517   4.260   4.497   9.652
27759WAT      O83518   7.580   6.513   4.346
27759WAT     H183519   7.613   6.511   4.252
27759WAT     H283520   7.532   6.599   4.364
27760WAT      O83521   7.773   0.060   8.215
27760WAT     H183522   7.794   0.028   8.122
27760WAT     H283523   7.678   0.093   8.218
27761WAT      O83524   5.921   8.247   8.104
27761WAT     H183525   5.858   8.238   8.027
27761WAT     H283526   6.009   8.282   8.072
27762WAT      O83527   5.077   0.236   7.692
27762WAT     H183528   5.004   0.198   7.747
27762WAT     H283529   5.143   0.284   7.751
27763WAT      O83530   3.184   0.403   5.576
27763WAT     H183531   3.214   0.406   5.481
27763WAT     H283532   3.232   0.330   5.624
27764WAT      O83533   1.438   2.350   6.082
27764WAT     H183534   1.463   2.301   6.164
27764WAT     H283535   1.521   2.378   6.033
27765WAT      O83536   8.896   8.817   8.834
27765WAT     H183537   8.860   8.752   8.901
27765WAT     H283538   8.941   8.766   8.760
27766WAT      O83539   2.339   0.834   7.420
27766WAT     H183540   2.328   0.870   7.328
27766WAT     H283541   2.339   0.734   7.418
27767WAT      O83542   2.734   0.268   8.360
27767WAT     H183543   2.731   0.320   8.446
27767WAT     H283544   2.776   0.179   8.377
27768WAT      O83545   4.659   6.511   8.469
27768WAT     H183546   4.702   6.571   8.537
27768WAT     H283547   4.606   6.566   8.405
27769WAT      O83548   7.790   6.102   7.143
27769WAT     H183549   7.808   6.077   7.238
27769WAT     H283550   7.722   6.175   7.141
27770WAT      O83551   9.769   3.511   3.809
27770WAT     H183552   9.865   3.521   3.836
27770WAT     H283553   9.728   3.601   3.798
27771WAT      O83554   6.919   0.181   2.865
27771WAT     H183555   6.894   0.138   2.952
27771WAT     H283556   6.850   0.159   2.796
27772WAT      O83557   6.416   5.725   3.965
27772WAT     H183558   6.453   5.675   4.044
27772WAT     H283559   6.487   5.785   3.927
27773WAT      O83560   5.428   3.786   5.281
27773WAT     H183561   5.450   3.872   5.327
27773WAT     H283562   5.436   3.711   5.347
27774WAT      O83563   6.211   5.106   2.211
27774WAT     H183564   6.219   5.068   2.119
27774WAT     H283565   6.207   5.031   2.277
27775WAT      O83566   2.369   3.359   9.406
27775WAT     H183567   2.412   3.396   9.324
27775WAT     H283568   2.380   3.260   9.408
27776WAT      O83569   3.737   6.049   7.272
27776WAT     H183570   3.811   6.080   7.212
27776WAT     H283571   3.649   6.064   7.227
27777WAT      O83572   6.994   5.338   2.251
27777WAT     H183573   6.904   5.328   2.293
27777WAT     H283574   7.063   5.354   2.322
27778WAT      O83575   5.181   2.037   6.245
27778WAT     H183576   5.223   2.036   6.154
27778WAT     H283577   5.109   1.968   6.249
27779WAT      O83578   8.588   1.716   3.032
27779WAT     H183579   8.551   1.721   2.940
27779WAT     H283580   8.657   1.788   3.044
27780WAT      O83581   1.217   8.106   9.890
27780WAT     H183582   1.120   8.102   9.867
27780WAT     H283583   1.266   8.032   9.844
27781WAT      O83584   0.916   3.700   6.110
27781WAT     H183585   0.821   3.671   6.107
27781WAT     H283586   0.935   3.763   6.036
27782WAT      O83587   6.025   0.776   9.197
27782WAT     H183588   5.998   0.684   9.226
27782WAT     H283589   6.024   0.837   9.276
27783WAT      O83590   6.250   2.124   4.770
27783WAT     H183591   6.251   2.091   4.675
27783WAT     H283592   6.212   2.216   4.773
27784WAT      O83593   4.042   3.113   3.981
27784WAT     H183594   3.946   3.137   3.997
27784WAT     H283595   4.061   3.116   3.883
27785WAT      O83596   8.033   6.764   0.683
27785WAT     H183597   8.131   6.752   0.700
27785WAT     H283598   8.011   6.862   0.684
27786WAT      O83599   2.347   4.509   3.393
27786WAT     H183600   2.444   4.532   3.380
27786WAT     H283601   2.314   4.554   3.476
27787WAT      O83602   8.950   6.246   7.054
27787WAT     H183603   8.883   6.319   7.071
27787WAT     H283604   9.031   6.262   7.111
27788WAT      O83605   0.659   5.070   5.950
27788WAT     H183606   0.575   5.018   5.939
27788WAT     H283607   0.730   5.031   5.891
27789WAT      O83608   2.052   1.943   0.764
27789WAT     H183609   2.042   1.844   0.779
27789WAT     H283610   1.980   1.974   0.702
27790WAT      O83611   9.345   0.323   2.136
27790WAT     H183612   9.352   0.339   2.038
27790WAT     H283613   9.249   0.319   2.163
27791WAT      O83614   4.396   8.525   3.000
27791WAT     H183615   4.323   8.537   3.068
27791WAT     H283616   4.418   8.613   2.959
27792WAT      O83617   7.395   4.192   9.092
27792WAT     H183618   7.417   4.218   8.998
27792WAT     H283619   7.320   4.125   9.091
27793WAT      O83620   7.917   7.832   5.715
27793WAT     H183621   7.894   7.889   5.795
27793WAT     H283622   7.834   7.787   5.682
27794WAT      O83623   9.022   3.891   8.342
27794WAT     H183624   8.953   3.824   8.315
27794WAT     H283625   8.980   3.959   8.403
27795WAT      O83626   9.797   0.225   9.670
27795WAT     H183627   9.808   0.129   9.646
27795WAT     H283628   9.868   0.252   9.736
27796WAT      O83629   5.154   8.790   8.379
27796WAT     H183630   5.249   8.763   8.361
27796WAT     H283631   5.152   8.888   8.402
27797WAT      O83632   8.848   7.730   5.749
27797WAT     H183633   8.800   7.668   5.687
27797WAT     H283634   8.793   7.745   5.831
27798WAT      O83635   4.824   0.395   5.229
27798WAT     H183636   4.796   0.491   5.221
27798WAT     H283637   4.921   0.386   5.206
27799WAT      O83638   4.979   7.153   7.272
27799WAT     H183639   5.064   7.137   7.221
27799WAT     H283640   4.902   7.156   7.208
27800WAT      O83641   9.811   1.311   4.544
27800WAT     H183642   9.711   1.313   4.541
27800WAT     H283643   9.841   1.244   4.612
27801WAT      O83644   8.777   1.415   7.648
27801WAT     H183645   8.787   1.368   7.560
27801WAT     H283646   8.682   1.447   7.657
27802WAT      O83647   6.570   8.514   5.556
27802WAT     H183648   6.652   8.537   5.609
27802WAT     H283649   6.597   8.484   5.465
27803WAT      O83650   9.498   1.965   9.554
27803WAT     H183651   9.569   2.032   9.535
27803WAT     H283652   9.480   1.963   9.653
27804WAT      O83653   2.006   9.309   7.257
27804WAT     H183654   2.028   9.212   7.268
27804WAT     H283655   1.939   9.336   7.326
27805WAT      O83656   7.278   0.572   7.756
27805WAT     H183657   7.217   0.575   7.835
27805WAT     H283658   7.224   0.576   7.672
27806WAT      O83659   8.679   5.620   0.070
27806WAT     H183660   8.774   5.593   0.054
27806WAT     H283661   8.667   5.645   0.166
27807WAT      O83662   4.818   2.372   2.902
27807WAT     H183663   4.769   2.439   2.958
27807WAT     H283664   4.830   2.288   2.955
27808WAT      O83665   5.791   0.881   3.434
27808WAT     H183666   5.816   0.941   3.358
27808WAT     H283667   5.851   0.801   3.435
27809WAT      O83668   8.126   6.827   5.243
27809WAT     H183669   8.047   6.878   5.208
27809WAT     H283670   8.197   6.891   5.272
27810WAT      O83671   3.155   1.513   9.701
27810WAT     H183672   3.171   1.462   9.616
27810WAT     H283673   3.069   1.563   9.694
27811WAT      O83674   0.184   5.509   1.259
27811WAT     H183675   0.139   5.523   1.347
27811WAT     H283676   0.213   5.598   1.222
27812WAT      O83677   1.335   1.810   0.821
27812WAT     H183678   1.389   1.753   0.883
27812WAT     H283679   1.264   1.858   0.873
27813WAT      O83680   6.207   7.175   3.228
27813WAT     H183681   6.271   7.191   3.154
27813WAT     H283682   6.206   7.253   3.290
27814WAT      O83683   5.208   3.133   0.018
27814WAT     H183684   5.134   3.066   0.020
27814WAT     H283685   5.183   3.212   0.073
27815WAT      O83686   8.640   5.757   5.428
27815WAT     H183687   8.715   5.698   5.398
27815WAT     H283688   8.563   5.746   5.365
27816WAT      O83689   6.307   6.681   9.242
27816WAT     H183690   6.284   6.635   9.156
27816WAT     H283691   6.360   6.763   9.224
27817WAT      O83692   2.311   7.018   5.111
27817WAT     H183693   2.389   7.008   5.174
27817WAT     H283694   2.276   6.927   5.087
27818WAT      O83695   3.652   2.702   1.548
27818WAT     H183696   3.714   2.645   1.494
27818WAT     H283697   3.600   2.645   1.610
27819WAT      O83698   3.077   0.322   8.146
27819WAT     H183699   3.104   0.231   8.178
27819WAT     H283700   3.122   0.391   8.201
27820WAT      O83701   4.710   3.399   4.091
27820WAT     H183702   4.777   3.471   4.107
27820WAT     H283703   4.749   3.329   4.031
27821WAT      O83704   0.829   9.649   1.894
27821WAT     H183705   0.859   9.652   1.990
27821WAT     H283706   0.757   9.580   1.884
27822WAT      O83707   3.316   2.149   1.265
27822WAT     H183708   3.396   2.102   1.303
27822WAT     H283709   3.249   2.082   1.235
27823WAT      O83710   8.579   2.201   8.766
27823WAT     H183711   8.619   2.127   8.712
27823WAT     H283712   8.531   2.264   8.705
27824WAT      O83713   4.816   3.134   6.155
27824WAT     H183714   4.902   3.148   6.204
27824WAT     H283715   4.805   3.205   6.085
27825WAT      O83716   0.905   7.010   1.912
27825WAT     H183717   1.005   7.001   1.907
27825WAT     H283718   0.864   6.966   1.832
27826WAT      O83719   7.996   0.684   7.563
27826WAT     H183720   7.941   0.702   7.646
27826WAT     H283721   8.038   0.594   7.570
27827WAT      O83722   7.704   9.766   3.911
27827WAT     H183723   7.619   9.789   3.863
27827WAT     H283724   7.694   9.677   3.955
27828WAT      O83725   0.072   2.077   9.413
27828WAT     H183726   0.136   2.027   9.354
27828WAT     H283727   0.121   2.116   9.491
27829WAT      O83728   6.955   8.167   7.612
27829WAT     H183729   7.014   8.099   7.570
27829WAT     H283730   6.864   8.162   7.572
27830WAT      O83731   9.042   1.445   2.167
27830WAT     H183732   9.036   1.351   2.135
27830WAT     H283733   8.956   1.470   2.212
27831WAT      O83734   7.801   3.142   0.765
27831WAT     H183735   7.836   3.141   0.859
27831WAT     H283736   7.713   3.095   0.761
27832WAT      O83737   0.432   9.501   8.384
27832WAT     H183738   0.455   9.416   8.431
27832WAT     H283739   0.473   9.500   8.292
27833WAT      O83740   0.506   9.609   0.225
27833WAT     H183741   0.548   9.541   0.163
27833WAT     H283742   0.552   9.604   0.314
27834WAT      O83743   8.956   0.697   0.522
27834WAT     H183744   8.982   0.683   0.426
27834WAT     H283745   8.856   0.694   0.529
27835WAT      O83746   2.991   5.689   1.770
27835WAT     H183747   3.004   5.786   1.750
27835WAT     H283748   3.076   5.640   1.750
27836WAT      O83749   9.305   0.800   0.902
27836WAT     H183750   9.295   0.772   0.806
27836WAT     H283751   9.216   0.794   0.947
27837WAT      O83752   8.010   3.163   0.606
27837WAT     H183753   8.050   3.072   0.594
27837WAT     H283754   7.938   3.159   0.675
27838WAT      O83755   7.293   5.881   2.917
27838WAT     H183756   7.216   5.938   2.947
27838WAT     H283757   7.312   5.899   2.821
27839WAT      O83758   7.579   2.013   4.171
27839WAT     H183759   7.667   2.045   4.135
27839WAT     H283760   7.579   2.023   4.271
27840WAT      O83761   6.570   3.578   5.884
27840WAT     H183762   6.484   3.543   5.847
27840WAT     H283763   6.584   3.541   5.975
27841WAT      O83764   5.070   3.189   3.268
27841WAT     H183765   4.995   3.251   3.291
27841WAT     H283766   5.130   3.233   3.202
27842WAT      O83767   4.274   2.587   7.964
27842WAT     H183768   4.221   2.598   8.048
27842WAT     H283769   4.362   2.632   7.974
27843WAT      O83770   8.914   2.407   7.317
27843WAT     H183771   8.843   2.426   7.385
27843WAT     H283772   8.948   2.314   7.331
27844WAT      O83773   2.611   3.901   5.637
27844WAT     H183774   2.700   3.904   5.682
27844WAT     H283775   2.608   3.823   5.574
27845WAT      O83776   2.067   0.615   7.163
27845WAT     H183777   2.127   0.682   7.119
27845WAT     H283778   2.022   0.559   7.093
27846WAT      O83779   3.809   1.820   8.423
27846WAT     H183780   3.820   1.741   8.363
27846WAT     H283781   3.747   1.886   8.379
27847WAT      O83782   3.263   7.182   6.443
27847WAT     H183783   3.310   7.250   6.499
27847WAT     H283784   3.168   7.209   6.430
27848WAT      O83785   6.506   9.287   7.085
27848WAT     H183786   6.434   9.266   7.151
27848WAT     H283787   6.506   9.385   7.066
27849WAT      O83788   2.455   1.580   5.822
27849WAT     H183789   2.391   1.635   5.875
27849WAT     H283790   2.407   1.533   5.749
27850WAT      O83791   1.213   1.793   2.922
27850WAT     H183792   1.221   1.879   2.871
27850WAT     H283793   1.202   1.717   2.858
27851WAT      O83794   1.265   1.610   8.711
27851WAT     H183795   1.245   1.538   8.778
27851WAT     H283796   1.204   1.687   8.726
27852WAT      O83797   1.885   0.874   1.216
27852WAT     H183798   1.798   0.914   1.189
27852WAT     H283799   1.921   0.818   1.141
27853WAT      O83800   5.082   8.207   0.524
27853WAT     H183801   5.145   8.158   0.465
27853WAT     H283802   5.125   8.224   0.613
27854WAT      O83803   3.562   8.647   6.375
27854WAT     H183804   3.646   8.594   6.364
27854WAT     H283805   3.580   8.724   6.438
27855WAT      O83806   9.563   2.340   9.412
27855WAT     H183807   9.491   2.298   9.358
27855WAT     H283808   9.540   2.334   9.509
27856WAT      O83809   4.723   9.020   5.381
27856WAT     H183810   4.630   8.984   5.380
27856WAT     H283811   4.765   9.001   5.469
27857WAT      O83812   9.803   4.774   7.841
27857WAT     H183813   9.780   4.814   7.930
27857WAT     H283814   9.751   4.820   7.769
27858WAT      O83815   7.516   1.542   8.679
27858WAT     H183816   7.587   1.502   8.622
27858WAT     H283817   7.449   1.588   8.622
27859WAT      O83818   3.822   8.595   0.617
27859WAT     H183819   3.827   8.688   0.582
27859WAT     H283820   3.742   8.585   0.677
27860WAT      O83821   3.568   2.475   7.317
27860WAT     H183822   3.637   2.527   7.368
27860WAT     H283823   3.511   2.424   7.381
27861WAT      O83824   2.161   8.006   5.793
27861WAT     H183825   2.104   7.939   5.840
27861WAT     H283826   2.226   8.046   5.858
27862WAT      O83827   8.262   5.223   1.637
27862WAT     H183828   8.314   5.306   1.618
27862WAT     H283829   8.312   5.167   1.703
27863WAT      O83830   6.897   5.384   5.214
27863WAT     H183831   6.895   5.445   5.135
27863WAT     H283832   6.921   5.436   5.296
27864WAT      O83833   9.771   3.349   2.250
27864WAT     H183834   9.752   3.251   2.255
27864WAT     H283835   9.803   3.372   2.158
27865WAT      O83836   7.864   4.052   7.349
27865WAT     H183837   7.808   4.134   7.345
27865WAT     H283838   7.954   4.074   7.387
27866WAT      O83839   0.772   5.283   7.473
27866WAT     H183840   0.757   5.332   7.387
27866WAT     H283841   0.827   5.339   7.534
27867WAT      O83842   2.654   2.771   8.552
27867WAT     H183843   2.693   2.762   8.460
27867WAT     H283844   2.725   2.753   8.620
27868WAT      O83845   0.487   9.168   4.608
27868WAT     H183846   0.530   9.126   4.688
27868WAT     H283847   0.541   9.146   4.526
27869WAT      O83848   3.776   6.011   3.966
27869WAT     H183849   3.743   5.983   4.057
27869WAT     H283850   3.698   6.024   3.905
27870WAT      O83851   8.489   5.288   4.562
27870WAT     H183852   8.532   5.232   4.491
27870WAT     H283853   8.400   5.249   4.586
27871WAT      O83854   1.972   8.004   3.748
27871WAT     H183855   2.017   7.947   3.679
27871WAT     H283856   1.993   8.100   3.730
27872WAT      O83857   2.778   9.439   1.787
27872WAT     H183858   2.782   9.444   1.887
27872WAT     H283859   2.723   9.515   1.752
27873WAT      O83860   1.121   9.507   5.789
27873WAT     H183861   1.149   9.602   5.803
27873WAT     H283862   1.147   9.453   5.869
27874WAT      O83863   8.315   0.275   5.059
27874WAT     H183864   8.397   0.246   5.010
27874WAT     H283865   8.297   0.371   5.040
27875WAT      O83866   1.481   2.920   3.046
27875WAT     H183867   1.434   2.858   3.108
27875WAT     H283868   1.508   2.870   2.964
27876WAT      O83869   9.166   2.608   5.819
27876WAT     H183870   9.132   2.631   5.728
27876WAT     H283871   9.236   2.536   5.811
27877WAT      O83872   1.577   0.958   7.140
27877WAT     H183873   1.581   0.944   7.239
27877WAT     H283874   1.575   1.056   7.121
27878WAT      O83875   9.709   5.139   9.238
27878WAT     H183876   9.684   5.054   9.191
27878WAT     H283877   9.630   5.201   9.239
27879WAT      O83878   1.473   7.827   8.537
27879WAT     H183879   1.475   7.842   8.636
27879WAT     H283880   1.420   7.901   8.494
27880WAT      O83881   7.244   0.082   8.320
27880WAT     H183882   7.239   0.170   8.273
27880WAT     H283883   7.199   0.088   8.409
27881WAT      O83884   8.855   6.706   0.415
27881WAT     H183885   8.857   6.607   0.407
27881WAT     H283886   8.774   6.742   0.367
27882WAT      O83887   1.077   9.232   4.158
27882WAT     H183888   1.028   9.257   4.242
27882WAT     H283889   1.070   9.308   4.093
27883WAT      O83890   8.445   9.425   6.307
27883WAT     H183891   8.377   9.361   6.272
27883WAT     H283892   8.441   9.426   6.407
27884WAT      O83893   6.368   4.883   4.955
27884WAT     H183894   6.343   4.790   4.927
27884WAT     H283895   6.466   4.896   4.945
27885WAT      O83896   5.738   5.655   0.376
27885WAT     H183897   5.775   5.601   0.451
27885WAT     H283898   5.688   5.595   0.313
27886WAT      O83899   8.509   4.705   2.300
27886WAT     H183900   8.601   4.744   2.301
27886WAT     H283901   8.482   4.681   2.393
27887WAT      O83902   2.398   0.381   8.339
27887WAT     H183903   2.464   0.451   8.365
27887WAT     H283904   2.407   0.302   8.400
27888WAT      O83905   8.474   0.068   3.305
27888WAT     H183906   8.488  -0.030   3.316
27888WAT     H283907   8.494   0.115   3.391
27889WAT      O83908   8.954   9.334   9.667
27889WAT     H183909   9.053   9.324   9.677
27889WAT     H283910   8.933   9.363   9.574
27890WAT      O83911   2.047   4.960   8.837
27890WAT     H183912   1.984   4.886   8.858
27890WAT     H283913   2.038   5.033   8.905
27891WAT      O83914   2.207   4.358   4.813
27891WAT     H183915   2.271   4.366   4.889
27891WAT     H283916   2.244   4.405   4.733
27892WAT      O83917   2.757   1.880   1.201
27892WAT     H183918   2.667   1.924   1.202
27892WAT     H283919   2.798   1.886   1.292
27893WAT      O83920   2.011   5.642   0.027
27893WAT     H183921   1.920   5.609   0.001
27893WAT     H283922   2.046   5.705  -0.043
27894WAT      O83923   1.064   0.765   6.696
27894WAT     H183924   1.077   0.668   6.673
27894WAT     H283925   0.967   0.784   6.705
27895WAT      O83926   4.230   3.884   8.928
27895WAT     H183927   4.204   3.966   8.877
27895WAT     H283928   4.329   3.871   8.922
27896WAT      O83929   3.106   1.283   4.976
27896WAT     H183930   3.166   1.272   4.896
27896WAT     H283931   3.037   1.353   4.957
27897WAT      O83932   2.004   9.306   8.867
27897WAT     H183933   2.087   9.253   8.852
27897WAT     H283934   1.986   9.314   8.965
27898WAT      O83935   3.940   1.340   1.777
27898WAT     H183936   3.954   1.407   1.705
27898WAT     H283937   3.875   1.376   1.844
27899WAT      O83938   6.444   2.291   4.460
27899WAT     H183939   6.398   2.362   4.515
27899WAT     H283940   6.406   2.202   4.483
27900WAT      O83941   7.901   1.882   8.816
27900WAT     H183942   7.992   1.900   8.854
27900WAT     H283943   7.899   1.791   8.776
27901WAT      O83944   8.694   2.206   4.223
27901WAT     H183945   8.749   2.288   4.238
27901WAT     H283946   8.631   2.221   4.147
27902WAT      O83947   3.925   4.739   1.715
27902WAT     H183948   3.894   4.693   1.798
27902WAT     H283949   3.970   4.825   1.739
27903WAT      O83950   6.023   7.026   9.369
27903WAT     H183951   6.008   7.094   9.296
27903WAT     H283952   6.102   7.054   9.424
27904WAT      O83953   5.775   8.236   6.776
27904WAT     H183954   5.767   8.321   6.723
27904WAT     H283955   5.764   8.157   6.715
27905WAT      O83956   4.439   1.847   9.788
27905WAT     H183957   4.475   1.877   9.699
27905WAT     H283958   4.462   1.915   9.857
27906WAT      O83959   3.478   6.884   8.400
27906WAT     H183960   3.526   6.961   8.359
27906WAT     H283961   3.487   6.804   8.340
27907WAT      O83962   7.012   2.072   7.374
27907WAT     H183963   6.980   2.004   7.308
27907WAT     H283964   7.062   2.027   7.447
27908WAT      O83965   1.260   6.234   3.219
27908WAT     H183966   1.336   6.178   3.249
27908WAT     H283967   1.261   6.242   3.120
27909WAT      O83968   0.388   1.889   1.862
27909WAT     H183969   0.401   1.986   1.842
27909WAT     H283970   0.418   1.834   1.785
27910WAT      O83971   2.502   4.770   2.309
27910WAT     H183972   2.601   4.756   2.299
27910WAT     H283973   2.472   4.838   2.243
27911WAT      O83974   5.018   2.180   0.735
27911WAT     H183975   5.042   2.157   0.641
27911WAT     H283976   5.031   2.278   0.750
27912WAT      O83977   4.137   3.008   7.272
27912WAT     H183978   4.146   2.931   7.209
27912WAT     H283979   4.131   2.974   7.365
27913WAT      O83980   2.094   6.537   2.984
27913WAT     H183981   2.104   6.633   2.961
27913WAT     H283982   2.176   6.506   3.033
27914WAT      O83983   0.690   3.322   0.962
27914WAT     H183984   0.654   3.229   0.967
27914WAT     H283985   0.615   3.387   0.971
27915WAT      O83986   7.718   8.408   8.768
27915WAT     H183987   7.739   8.451   8.681
27915WAT     H283988   7.618   8.408   8.782
27916WAT      O83989   4.329   3.592   7.994
27916WAT     H183990   4.379   3.534   8.058
27916WAT     H283991   4.231   3.589   8.016
27917WAT      O83992   6.835   4.757   7.474
27917WAT     H183993   6.870   4.848   7.495
27917WAT     H283994   6.821   4.749   7.375
27918WAT      O83995   8.723   4.561   6.904
27918WAT     H183996   8.636   4.556   6.953
27918WAT     H283997   8.755   4.469   6.885
27919WAT      O83998   4.195   9.707   2.198
27919WAT     H183999   4.215   9.638   2.268
27919WAT     H284000   4.143   9.665   2.124
27920WAT      O84001   6.799   0.834   6.544
27920WAT     H184002   6.752   0.753   6.511
27920WAT     H284003   6.753   0.916   6.511
27921WAT      O84004   3.636   3.598   6.523
27921WAT     H184005   3.631   3.563   6.429
27921WAT     H284006   3.729   3.630   6.541
27922WAT      O84007   7.303   8.048   1.525
27922WAT     H184008   7.338   8.004   1.608
27922WAT     H284009   7.354   8.131   1.508
27923WAT      O84010   7.003   8.348   9.639
27923WAT     H184011   6.941   8.270   9.625
27923WAT     H284012   6.976   8.398   9.722
27924WAT      O84013   6.786   4.633   4.270
27924WAT     H184014   6.807   4.535   4.267
27924WAT     H284015   6.714   4.649   4.337
27925WAT      O84016   1.601   8.130   1.146
27925WAT     H184017   1.579   8.151   1.241
27925WAT     H284018   1.670   8.058   1.142
27926WAT      O84019   8.574   3.067   1.052
27926WAT     H184020   8.630   2.984   1.049
27926WAT     H284021   8.592   3.121   0.970
27927WAT      O84022   9.019   2.976   4.543
27927WAT     H184023   9.065   3.064   4.528
27927WAT     H284024   9.004   2.963   4.641
27928WAT      O84025   9.657   2.217   8.000
27928WAT     H184026   9.560   2.192   8.002
27928WAT     H284027   9.670   2.307   8.042
27929WAT      O84028   7.250   1.239   9.300
27929WAT     H184029   7.249   1.323   9.247
27929WAT     H284030   7.163   1.192   9.290
27930WAT      O84031   8.490   4.913   4.084
27930WAT     H184032   8.431   4.885   4.160
27930WAT     H284033   8.447   4.988   4.034
27931WAT      O84034   5.943   8.813   2.628
27931WAT     H184035   5.926   8.770   2.717
27931WAT     H284036   5.947   8.913   2.639
27932WAT      O84037   8.420   5.811   4.494
27932WAT     H184038   8.455   5.861   4.415
27932WAT     H284039   8.443   5.714   4.485
27933WAT      O84040   5.940   3.349   9.008
27933WAT     H184041   5.975   3.256   8.996
27933WAT     H284042   5.981   3.389   9.090
27934WAT      O84043   9.013   8.689   3.047
27934WAT     H184044   8.974   8.777   3.019
27934WAT     H284045   8.957   8.615   3.009
27935WAT      O84046   3.708   3.720   3.746
27935WAT     H184047   3.652   3.645   3.782
27935WAT     H284048   3.685   3.737   3.650
27936WAT      O84049   2.851   4.807   1.080
27936WAT     H184050   2.756   4.809   1.111
27936WAT     H284051   2.906   4.754   1.145
27937WAT      O84052   5.424   3.217   3.805
27937WAT     H184053   5.346   3.174   3.761
27937WAT     H284054   5.506   3.202   3.750
27938WAT      O84055   1.470   1.334   9.522
27938WAT     H184056   1.545   1.366   9.580
27938WAT     H284057   1.503   1.259   9.464
27939WAT      O84058   6.076   7.222   4.680
27939WAT     H184059   6.004   7.240   4.613
27939WAT     H284060   6.147   7.165   4.639
27940WAT      O84061   1.657   3.245   7.067
27940WAT     H184062   1.558   3.230   7.060
27940WAT     H284063   1.705   3.165   7.031
27941WAT      O84064   0.222   3.677   8.569
27941WAT     H184065   0.186   3.591   8.606
27941WAT     H284066   0.168   3.703   8.489
27942WAT      O84067   3.665   5.695   2.915
27942WAT     H184068   3.657   5.719   3.012
27942WAT     H284069   3.588   5.733   2.864
27943WAT      O84070   3.645   9.282   5.000
27943WAT     H184071   3.618   9.377   4.985
27943WAT     H284072   3.744   9.274   4.992
27944WAT      O84073   4.286   3.614   6.468
27944WAT     H184074   4.238   3.614   6.380
27944WAT     H284075   4.298   3.520   6.500
27945WAT      O84076   5.206   1.606   7.206
27945WAT     H184077   5.255   1.693   7.202
27945WAT     H284078   5.259   1.535   7.161
27946WAT      O84079   2.591   7.210   4.606
27946WAT     H184080   2.581   7.166   4.516
27946WAT     H284081   2.502   7.210   4.652
27947WAT      O84082   7.306   4.588   2.420
27947WAT     H184083   7.381   4.592   2.487
27947WAT     H284084   7.240   4.519   2.448
27948WAT      O84085   1.936   4.040   5.910
27948WAT     H184086   2.035   4.026   5.906
27948WAT     H284087   1.896   4.024   5.820
27949WAT      O84088   2.324   4.982   8.885
27949WAT     H184089   2.239   4.989   8.833
27949WAT     H284090   2.334   4.889   8.920
27950WAT      O84091   6.177   0.588   5.530
27950WAT     H184092   6.140   0.610   5.620
27950WAT     H284093   6.114   0.622   5.460
27951WAT      O84094   5.448   6.667   3.195
27951WAT     H184095   5.445   6.569   3.172
27951WAT     H284096   5.542   6.695   3.212
27952WAT      O84097   1.329   7.708   7.302
27952WAT     H184098   1.239   7.667   7.292
27952WAT     H284099   1.365   7.732   7.211
27953WAT      O84100   9.726   9.586   3.360
27953WAT     H184101   9.792   9.597   3.287
27953WAT     H284102   9.658   9.517   3.334
27954WAT      O84103   5.549   1.507   0.748
27954WAT     H184104   5.647   1.526   0.749
27954WAT     H284105   5.534   1.409   0.753
27955WAT      O84106   3.177   0.843   2.815
27955WAT     H184107   3.155   0.904   2.740
27955WAT     H284108   3.258   0.876   2.863
27956WAT      O84109   7.118   6.707   9.548
27956WAT     H184110   7.066   6.744   9.472
27956WAT     H284111   7.154   6.781   9.604
27957WAT      O84112   3.853   1.222   8.124
27957WAT     H184113   3.755   1.205   8.135
27957WAT     H284114   3.890   1.261   8.208
27958WAT      O84115   4.608   6.894   9.454
27958WAT     H184116   4.543   6.819   9.471
27958WAT     H284117   4.586   6.970   9.515
27959WAT      O84118   0.755   7.207   8.488
27959WAT     H184119   0.656   7.210   8.479
27959WAT     H284120   0.791   7.301   8.494
27960WAT      O84121   8.273   6.206   3.525
27960WAT     H184122   8.339   6.140   3.490
27960WAT     H284123   8.247   6.181   3.618
27961WAT      O84124   5.899   8.163   3.323
27961WAT     H184125   5.995   8.137   3.312
27961WAT     H284126   5.841   8.105   3.265
27962WAT      O84127   1.357   3.342   8.589
27962WAT     H184128   1.314   3.388   8.667
27962WAT     H284129   1.453   3.325   8.609
27963WAT      O84130   3.538   1.325   5.210
27963WAT     H184131   3.541   1.365   5.118
27963WAT     H284132   3.604   1.371   5.269
27964WAT      O84133   9.059   0.633   7.067
27964WAT     H184134   9.087   0.552   7.014
27964WAT     H284135   9.066   0.613   7.164
27965WAT      O84136   5.722   9.502   6.634
27965WAT     H184137   5.798   9.522   6.572
27965WAT     H284138   5.748   9.429   6.698
27966WAT      O84139   0.300   7.930   8.198
27966WAT     H184140   0.357   8.011   8.208
27966WAT     H284141   0.230   7.929   8.270
27967WAT      O84142   4.773   1.146   4.250
27967WAT     H184143   4.687   1.132   4.200
27967WAT     H284144   4.849   1.117   4.192
27968WAT      O84145   1.813   1.217   3.464
27968WAT     H184146   1.876   1.183   3.533
27968WAT     H284147   1.851   1.201   3.373
27969WAT      O84148   9.818   5.970   8.301
27969WAT     H184149   9.741   6.029   8.274
27969WAT     H284150   9.792   5.916   8.381
27970WAT      O84151   2.891   4.213   6.396
27970WAT     H184152   2.828   4.208   6.473
27970WAT     H284153   2.851   4.269   6.323
27971WAT      O84154   6.137   1.388   9.545
27971WAT     H184155   6.153   1.352   9.637
27971WAT     H284156   6.197   1.466   9.529
27972WAT      O84157   3.015   9.451   7.181
27972WAT     H184158   2.932   9.506   7.188
27972WAT     H284159   3.040   9.416   7.271
27973WAT      O84160   2.462   9.454   0.340
27973WAT     H184161   2.549   9.424   0.301
27973WAT     H284162   2.432   9.538   0.295
27974WAT      O84163   0.801   4.831   3.838
27974WAT     H184164   0.838   4.743   3.810
27974WAT     H284165   0.704   4.835   3.816
27975WAT      O84166   2.290   0.494   4.129
27975WAT     H184167   2.330   0.558   4.063
27975WAT     H284168   2.214   0.538   4.177
27976WAT      O84169   9.830   7.093   7.949
27976WAT     H184170   9.763   7.070   7.879
27976WAT     H284171   9.885   7.013   7.971
27977WAT      O84172   7.070   5.659   4.543
27977WAT     H184173   7.002   5.636   4.472
27977WAT     H284174   7.143   5.713   4.502
27978WAT      O84175   0.588   4.174   9.291
27978WAT     H184176   0.592   4.250   9.226
27978WAT     H284177   0.498   4.131   9.287
27979WAT      O84178   4.755   8.355   7.143
27979WAT     H184179   4.684   8.286   7.157
27979WAT     H284180   4.828   8.341   7.210
27980WAT      O84181   5.551   5.319   7.697
27980WAT     H184182   5.533   5.335   7.794
27980WAT     H284183   5.521   5.398   7.644
27981WAT      O84184   9.240   3.143   6.000
27981WAT     H184185   9.238   3.045   5.980
27981WAT     H284186   9.149   3.175   6.023
27982WAT      O84187   1.982   2.480   3.950
27982WAT     H184188   2.042   2.408   3.913
27982WAT     H284189   2.033   2.566   3.954
27983WAT      O84190   2.422   6.697   5.274
27983WAT     H184191   2.354   6.707   5.202
27983WAT     H284192   2.464   6.607   5.267
27984WAT      O84193   0.767   3.025   8.196
27984WAT     H184194   0.699   2.956   8.172
27984WAT     H284195   0.726   3.116   8.191
27985WAT      O84196   1.186   4.527   2.871
27985WAT     H184197   1.219   4.567   2.785
27985WAT     H284198   1.107   4.577   2.903
27986WAT      O84199   1.694   3.077   3.825
27986WAT     H184200   1.747   3.101   3.744
27986WAT     H284201   1.597   3.100   3.809
27987WAT      O84202   5.685   1.274   7.203
27987WAT     H184203   5.755   1.280   7.132
27987WAT     H284204   5.597   1.251   7.162
27988WAT      O84205   4.556   9.702   2.800
27988WAT     H184206   4.554   9.796   2.765
27988WAT     H284207   4.517   9.701   2.892
27989WAT      O84208   3.507   1.608   2.268
27989WAT     H184209   3.538   1.698   2.299
27989WAT     H284210   3.528   1.540   2.338
27990WAT      O84211   1.908   5.038   0.317
27990WAT     H184212   1.867   5.123   0.282
27990WAT     H284213   1.919   4.973   0.241
27991WAT      O84214   3.186   4.992   5.560
27991WAT     H184215   3.167   4.973   5.464
27991WAT     H284216   3.189   4.906   5.611
27992WAT      O84217   0.394   3.387   1.724
27992WAT     H184218   0.331   3.321   1.766
27992WAT     H284219   0.426   3.351   1.636
27993WAT      O84220   4.355   7.795   0.419
27993WAT     H184221   4.381   7.754   0.506
27993WAT     H284222   4.291   7.870   0.434
27994WAT      O84223   4.386   6.288   0.425
27994WAT     H184224   4.424   6.347   0.354
27994WAT     H284225   4.324   6.341   0.483
27995WAT      O84226   0.825   0.372   2.947
27995WAT     H184227   0.847   0.342   3.040
27995WAT     H284228   0.726   0.385   2.939
27996WAT      O84229   3.244   3.948   2.519
27996WAT     H184230   3.223   3.982   2.611
27996WAT     H284231   3.275   3.853   2.526
27997WAT      O84232   0.582   3.597   0.480
27997WAT     H184233   0.595   3.629   0.574
27997WAT     H284234   0.634   3.512   0.466
27998WAT      O84235   6.215   9.750   6.689
27998WAT     H184236   6.183   9.843   6.669
27998WAT     H284237   6.307   9.755   6.727
27999WAT      O84238   5.821   8.787   1.343
27999WAT     H184239   5.851   8.853   1.412
27999WAT     H284240   5.812   8.697   1.385
28000WAT      O84241   8.174   0.018   1.721
28000WAT     H184242   8.100   0.082   1.741
28000WAT     H284243   8.165  -0.015   1.627
28001WAT      O84244   7.423   5.114   4.842
28001WAT     H184245   7.381   5.050   4.777
28001WAT     H284246   7.418   5.075   4.934
28002WAT      O84247   8.216   8.422   7.731
28002WAT     H184248   8.241   8.413   7.635
28002WAT     H284249   8.193   8.332   7.768
28003WAT      O84250   8.768   4.652   2.562
28003WAT     H184251   8.685   4.704   2.582
28003WAT     H284252   8.823   4.701   2.494
28004WAT      O84253   4.880   9.705   3.217
28004WAT     H184254   4.906   9.650   3.137
28004WAT     H284255   4.825   9.783   3.187
28005WAT      O84256   3.360   5.404   4.275
28005WAT     H184257   3.420   5.411   4.196
28005WAT     H284258   3.267   5.431   4.249
28006WAT      O84259   8.240   9.698   1.976
28006WAT     H184260   8.329   9.659   1.998
28006WAT     H284261   8.246   9.751   1.892
28007WAT      O84262   0.442   1.103   1.569
28007WAT     H184263   0.504   1.126   1.644
28007WAT     H284264   0.377   1.033   1.600
28008WAT      O84265   7.175   1.303   5.604
28008WAT     H184266   7.195   1.369   5.531
28008WAT     H284267   7.119   1.347   5.674
28009WAT      O84268   6.272   1.764   3.980
28009WAT     H184269   6.240   1.676   4.016
28009WAT     H284270   6.370   1.773   3.997
28010WAT      O84271   2.929   2.813   3.588
28010WAT     H184272   2.847   2.838   3.640
28010WAT     H284273   3.003   2.791   3.651
28011WAT      O84274   7.894   6.303   6.653
28011WAT     H184275   7.938   6.292   6.564
28011WAT     H284276   7.915   6.224   6.710
28012WAT      O84277   9.189   0.428   6.955
28012WAT     H184278   9.284   0.397   6.950
28012WAT     H284279   9.150   0.431   6.863
28013WAT      O84280   6.604   4.138   9.727
28013WAT     H184281   6.657   4.099   9.802
28013WAT     H284282   6.557   4.220   9.759
28014WAT      O84283   6.967   1.502   8.711
28014WAT     H184284   6.885   1.457   8.677
28014WAT     H284285   7.017   1.439   8.770
28015WAT      O84286   6.492   0.910   0.271
28015WAT     H184287   6.525   0.912   0.365
28015WAT     H284288   6.418   0.843   0.262
28016WAT      O84289   0.974   0.514   4.985
28016WAT     H184290   0.894   0.562   5.022
28016WAT     H284291   0.961   0.416   4.992
28017WAT      O84292   0.630   3.842   1.234
28017WAT     H184293   0.693   3.896   1.290
28017WAT     H284294   0.612   3.755   1.280
28018WAT      O84295   3.141   0.316   6.780
28018WAT     H184296   3.230   0.326   6.734
28018WAT     H284297   3.155   0.315   6.879
28019WAT      O84298   3.086   5.563   5.164
28019WAT     H184299   3.156   5.555   5.094
28019WAT     H284300   3.018   5.631   5.135
28020WAT      O84301   4.836   8.949   4.889
28020WAT     H184302   4.918   8.932   4.944
28020WAT     H284303   4.766   8.990   4.947
28021WAT      O84304   3.603   4.481   0.311
28021WAT     H184305   3.520   4.426   0.308
28021WAT     H284306   3.656   4.466   0.228
28022WAT      O84307   1.303   7.116   0.104
28022WAT     H184308   1.252   7.102   0.019
28022WAT     H284309   1.251   7.078   0.181
28023WAT      O84310   4.141   4.430   7.546
28023WAT     H184311   4.047   4.450   7.574
28023WAT     H284312   4.189   4.515   7.526
28024WAT      O84313   3.659   9.588   3.514
28024WAT     H184314   3.741   9.533   3.500
28024WAT     H284315   3.685   9.680   3.546
28025WAT      O84316   0.739   1.236   2.125
28025WAT     H184317   0.795   1.228   2.207
28025WAT     H284318   0.643   1.241   2.150
28026WAT      O84319   6.354   1.419   6.762
28026WAT     H184320   6.260   1.432   6.795
28026WAT     H284321   6.371   1.482   6.687
28027WAT      O84322   7.028   1.420   5.783
28027WAT     H184323   7.089   1.498   5.795
28027WAT     H284324   6.939   1.441   5.825
28028WAT      O84325   7.914   8.720   6.473
28028WAT     H184326   7.866   8.772   6.403
28028WAT     H284327   7.861   8.720   6.557
28029WAT      O84328   1.668   5.486   8.445
28029WAT     H184329   1.640   5.439   8.528
28029WAT     H284330   1.611   5.455   8.369
28030WAT      O84331   4.193   2.204   7.946
28030WAT     H184332   4.268   2.246   7.895
28030WAT     H284333   4.224   2.181   8.039
28031WAT      O84334   5.817   4.829   1.818
28031WAT     H184335   5.729   4.794   1.852
28031WAT     H284336   5.891   4.769   1.848
28032WAT      O84337   6.285   0.370   5.645
28032WAT     H184338   6.216   0.335   5.708
28032WAT     H284339   6.248   0.450   5.597
28033WAT      O84340   8.866   1.352   7.397
28033WAT     H184341   8.904   1.303   7.319
28033WAT     H284342   8.906   1.444   7.401
28034WAT      O84343   0.819   3.751   3.481
28034WAT     H184344   0.730   3.788   3.509
28034WAT     H284345   0.811   3.653   3.465
28035WAT      O84346   0.288   3.816   6.114
28035WAT     H184347   0.386   3.835   6.113
28035WAT     H284348   0.272   3.718   6.128
28036WAT      O84349   0.890   4.923   5.600
28036WAT     H184350   0.931   5.012   5.622
28036WAT     H284351   0.882   4.915   5.500
28037WAT      O84352   3.977   5.445   7.334
28037WAT     H184353   3.984   5.397   7.421
28037WAT     H284354   4.068   5.473   7.303
28038WAT      O84355   9.042   5.191   2.859
28038WAT     H184356   9.121   5.244   2.826
28038WAT     H284357   9.073   5.123   2.925
28039WAT      O84358   2.291   3.224   6.338
28039WAT     H184359   2.318   3.200   6.244
28039WAT     H284360   2.302   3.323   6.351
28040WAT      O84361   3.955   2.237   6.574
28040WAT     H184362   3.956   2.212   6.670
28040WAT     H284363   3.867   2.210   6.533
28041WAT      O84364   0.266   3.614   6.887
28041WAT     H184365   0.329   3.538   6.905
28041WAT     H284366   0.191   3.581   6.829
28042WAT      O84367   3.573   7.527   6.694
28042WAT     H184368   3.508   7.602   6.709
28042WAT     H284369   3.522   7.441   6.683
28043WAT      O84370   2.401   0.087   3.752
28043WAT     H184371   2.422  -0.011   3.752
28043WAT     H284372   2.322   0.104   3.811
28044WAT      O84373   4.895   7.586   6.198
28044WAT     H184374   4.903   7.676   6.241
28044WAT     H284375   4.801   7.553   6.209
28045WAT      O84376   2.029   8.931   0.757
28045WAT     H184377   1.999   8.878   0.835
28045WAT     H284378   1.969   9.009   0.744
28046WAT      O84379   5.100   4.761   5.581
28046WAT     H184380   5.163   4.685   5.565
28046WAT     H284381   5.148   4.835   5.629
28047WAT      O84382   6.006   7.984   8.194
28047WAT     H184383   6.095   7.993   8.149
28047WAT     H284384   5.955   8.070   8.187
28048WAT      O84385   4.163   3.640   8.947
28048WAT     H184386   4.194   3.585   8.869
28048WAT     H284387   4.183   3.736   8.930
28049WAT      O84388   4.552   7.086   3.482
28049WAT     H184389   4.513   7.150   3.415
28049WAT     H284390   4.542   7.124   3.574
28050WAT      O84391   1.778   5.119   5.621
28050WAT     H184392   1.699   5.156   5.572
28050WAT     H284393   1.841   5.079   5.555
28051WAT      O84394   0.251   0.601   7.853
28051WAT     H184395   0.276   0.509   7.885
28051WAT     H284396   0.158   0.599   7.816
28052WAT      O84397   3.388   2.542   3.888
28052WAT     H184398   3.424   2.449   3.888
28052WAT     H284399   3.375   2.574   3.794
28053WAT      O84400   9.866   2.776   9.505
28053WAT     H184401   9.817   2.795   9.590
28053WAT     H284402   9.814   2.712   9.450
28054WAT      O84403   0.986   4.356   9.777
28054WAT     H184404   0.927   4.312   9.709
28054WAT     H284405   0.941   4.355   9.866
28055WAT      O84406   8.288   8.528   5.245
28055WAT     H184407   8.358   8.477   5.196
28055WAT     H284408   8.218   8.465   5.280
28056WAT      O84409   7.146   7.929   9.693
28056WAT     H184410   7.114   7.973   9.609
28056WAT     H284411   7.111   7.978   9.772
28057WAT      O84412   3.524   9.506   0.621
28057WAT     H184413   3.425   9.508   0.636
28057WAT     H284414   3.562   9.423   0.662
28058WAT      O84415   1.925   4.827   4.532
28058WAT     H184416   1.826   4.822   4.519
28058WAT     H284417   1.958   4.916   4.502
28059WAT      O84418   1.722   7.691   6.137
28059WAT     H184419   1.797   7.626   6.147
28059WAT     H284420   1.693   7.694   6.042
28060WAT      O84421   4.358   6.533   5.407
28060WAT     H184422   4.328   6.617   5.361
28060WAT     H284423   4.427   6.557   5.476
28061WAT      O84424   4.659   2.229   2.219
28061WAT     H184425   4.687   2.191   2.131
28061WAT     H284426   4.566   2.200   2.240
28062WAT      O84427   0.115   5.932   9.858
28062WAT     H184428   0.134   5.858   9.923
28062WAT     H284429   0.095   6.016   9.909
28063WAT      O84430   4.968   1.873   2.701
28063WAT     H184431   5.012   1.942   2.644
28063WAT     H284432   4.872   1.898   2.716
28064WAT      O84433   5.864   3.098   8.022
28064WAT     H184434   5.776   3.062   8.054
28064WAT     H284435   5.849   3.152   7.939
28065WAT      O84436   6.375   4.252   7.811
28065WAT     H184437   6.310   4.310   7.860
28065WAT     H284438   6.339   4.231   7.720
28066WAT      O84439   4.210   1.201   8.877
28066WAT     H184440   4.273   1.200   8.955
28066WAT     H284441   4.119   1.227   8.908
28067WAT      O84442   6.290   9.359   0.444
28067WAT     H184443   6.350   9.342   0.367
28067WAT     H284444   6.327   9.316   0.527
28068WAT      O84445   0.166   8.652   8.249
28068WAT     H184446   0.234   8.677   8.179
28068WAT     H284447   0.088   8.714   8.244
28069WAT      O84448   2.730   5.622   6.382
28069WAT     H184449   2.770   5.633   6.290
28069WAT     H284450   2.734   5.709   6.430
28070WAT      O84451   2.840   0.118   6.956
28070WAT     H184452   2.910   0.140   7.024
28070WAT     H284453   2.822   0.020   6.957
28071WAT      O84454   3.020   5.003   7.710
28071WAT     H184455   3.083   5.078   7.691
28071WAT     H284456   3.067   4.932   7.763
28072WAT      O84457   7.204   4.927   5.056
28072WAT     H184458   7.120   4.906   5.007
28072WAT     H284459   7.278   4.870   5.021
28073WAT      O84460   9.334   6.807   7.206
28073WAT     H184461   9.311   6.894   7.162
28073WAT     H284462   9.339   6.821   7.305
28074WAT      O84463   0.379   7.845   5.791
28074WAT     H184464   0.468   7.890   5.782
28074WAT     H284465   0.351   7.807   5.703
28075WAT      O84466   9.054   9.666   4.104
28075WAT     H184467   9.115   9.596   4.066
28075WAT     H284468   9.037   9.736   4.034
28076WAT      O84469   8.048   8.136   8.408
28076WAT     H184470   8.006   8.124   8.498
28076WAT     H284471   8.037   8.053   8.354
28077WAT      O84472   3.794   4.581   1.530
28077WAT     H184473   3.791   4.488   1.567
28077WAT     H284474   3.844   4.641   1.593
28078WAT      O84475   6.137   1.430   0.557
28078WAT     H184476   6.092   1.388   0.479
28078WAT     H284477   6.234   1.406   0.557
28079WAT      O84478   8.432   7.482   0.669
28079WAT     H184479   8.391   7.391   0.676
28079WAT     H284480   8.442   7.520   0.761
28080WAT      O84481   4.704   6.913   3.049
28080WAT     H184482   4.607   6.892   3.058
28080WAT     H284483   4.736   6.959   3.132
28081WAT      O84484   7.839   9.548   1.275
28081WAT     H184485   7.861   9.559   1.372
28081WAT     H284486   7.924   9.554   1.221
28082WAT      O84487   6.974   5.611   5.387
28082WAT     H184488   7.019   5.582   5.472
28082WAT     H284489   6.983   5.710   5.376
28083WAT      O84490   0.985   6.912   7.140
28083WAT     H184491   0.998   6.814   7.128
28083WAT     H284492   1.073   6.956   7.157
28084WAT      O84493   6.937   4.244   1.991
28084WAT     H184494   6.851   4.262   1.943
28084WAT     H284495   6.995   4.184   1.936
28085WAT      O84496   6.391   9.574   1.788
28085WAT     H184497   6.460   9.561   1.860
28085WAT     H284498   6.437   9.591   1.701
28086WAT      O84499   3.483   9.278   5.235
28086WAT     H184500   3.560   9.286   5.172
28086WAT     H284501   3.480   9.185   5.272
28087WAT      O84502   7.229   5.347   4.245
28087WAT     H184503   7.269   5.293   4.319
28087WAT     H284504   7.158   5.407   4.281
28088WAT      O84505   0.676   3.054   0.595
28088WAT     H184506   0.630   3.031   0.680
28088WAT     H284507   0.708   3.149   0.598
28089WAT      O84508   0.119   1.211   2.224
28089WAT     H184509   0.096   1.308   2.215
28089WAT     H284510   0.171   1.196   2.308
28090WAT      O84511   2.760   1.771   0.162
28090WAT     H184512   2.839   1.833   0.167
28090WAT     H284513   2.739   1.737   0.254
28091WAT      O84514   1.454   5.929   7.711
28091WAT     H184515   1.518   5.999   7.677
28091WAT     H284516   1.506   5.853   7.749
28092WAT      O84517   3.323   5.873   8.392
28092WAT     H184518   3.290   5.910   8.305
28092WAT     H284519   3.406   5.921   8.419
28093WAT      O84520   2.473   5.411   8.847
28093WAT     H184521   2.492   5.320   8.882
28093WAT     H284522   2.517   5.479   8.906
28094WAT      O84523   1.120   5.263   0.397
28094WAT     H184524   1.218   5.272   0.411
28094WAT     H284525   1.078   5.354   0.394
28095WAT      O84526   7.718   1.860   1.878
28095WAT     H184527   7.713   1.763   1.903
28095WAT     H284528   7.774   1.870   1.796
28096WAT      O84529   7.306   2.756   6.221
28096WAT     H184530   7.303   2.685   6.291
28096WAT     H284531   7.253   2.835   6.251
28097WAT      O84532   3.224   9.703   6.842
28097WAT     H184533   3.156   9.744   6.782
28097WAT     H284534   3.276   9.776   6.887
28098WAT      O84535   4.704   0.492   8.597
28098WAT     H184536   4.650   0.501   8.681
28098WAT     H284537   4.706   0.396   8.569
28099WAT      O84538   7.574   1.330   2.186
28099WAT     H184539   7.626   1.352   2.269
28099WAT     H284540   7.505   1.261   2.207
28100WAT      O84541   5.776   2.962   8.907
28100WAT     H184542   5.722   2.976   8.990
28100WAT     H284543   5.808   2.868   8.903
28101WAT      O84544   7.015   6.771   2.391
28101WAT     H184545   7.073   6.695   2.363
28101WAT     H284546   6.919   6.742   2.388
28102WAT      O84547   3.439   7.053   9.757
28102WAT     H184548   3.425   7.003   9.672
28102WAT     H284549   3.371   7.025   9.824
28103WAT      O84550   7.565   0.721   8.426
28103WAT     H184551   7.544   0.629   8.392
28103WAT     H284552   7.664   0.733   8.430
28104WAT      O84553   6.355   8.056   7.361
28104WAT     H184554   6.448   8.069   7.396
28104WAT     H284555   6.292   8.047   7.438
28105WAT      O84556   7.567   7.903   2.801
28105WAT     H184557   7.645   7.939   2.750
28105WAT     H284558   7.580   7.805   2.817
28106WAT      O84559   3.605   0.207   3.067
28106WAT     H184560   3.530   0.270   3.044
28106WAT     H284561   3.650   0.239   3.150
28107WAT      O84562   2.127   4.999   6.104
28107WAT     H184563   2.066   5.011   6.026
28107WAT     H284564   2.106   4.913   6.150
28108WAT      O84565   8.987   4.812   3.193
28108WAT     H184566   8.990   4.825   3.292
28108WAT     H284567   8.919   4.742   3.170
28109WAT      O84568   4.380   7.206   4.897
28109WAT     H184569   4.405   7.197   4.800
28109WAT     H284570   4.457   7.177   4.954
28110WAT      O84571   2.597   1.702   4.988
28110WAT     H184572   2.564   1.613   4.957
28110WAT     H284573   2.607   1.763   4.909
28111WAT      O84574   0.074   1.886   3.981
28111WAT     H184575   0.046   1.826   4.056
28111WAT     H284576   0.119   1.832   3.910
28112WAT      O84577   6.439   1.482   7.569
28112WAT     H184578   6.521   1.504   7.622
28112WAT     H284579   6.466   1.456   7.476
28113WAT      O84580   5.673   1.512   4.057
28113WAT     H184581   5.613   1.447   4.103
28113WAT     H284582   5.733   1.556   4.124
28114WAT      O84583   3.401   5.526   6.184
28114WAT     H184584   3.314   5.491   6.217
28114WAT     H284585   3.408   5.513   6.085
28115WAT      O84586   5.831   3.263   3.833
28115WAT     H184587   5.762   3.243   3.764
28115WAT     H284588   5.922   3.264   3.790
28116WAT      O84589   1.195   9.565   7.683
28116WAT     H184590   1.107   9.543   7.641
28116WAT     H284591   1.264   9.498   7.654
28117WAT      O84592   1.689   4.259   1.199
28117WAT     H184593   1.784   4.227   1.204
28117WAT     H284594   1.651   4.235   1.110
28118WAT      O84595   8.855   5.909   0.505
28118WAT     H184596   8.914   5.941   0.431
28118WAT     H284597   8.760   5.909   0.475
28119WAT      O84598   5.734   0.582   9.536
28119WAT     H184599   5.828   0.591   9.502
28119WAT     H284600   5.684   0.666   9.517
28120WAT      O84601   3.936   8.716   8.207
28120WAT     H184602   3.914   8.637   8.151
28120WAT     H284603   3.999   8.688   8.280
28121WAT      O84604   3.818   9.012   8.453
28121WAT     H184605   3.816   8.940   8.522
28121WAT     H284606   3.906   9.009   8.404
28122WAT      O84607   1.596   1.416   8.080
28122WAT     H184608   1.691   1.388   8.069
28122WAT     H284609   1.586   1.470   8.164
28123WAT      O84610   6.230   5.614   4.587
28123WAT     H184611   6.263   5.528   4.625
28123WAT     H284612   6.163   5.655   4.649
28124WAT      O84613   5.564   0.455   0.194
28124WAT     H184614   5.598   0.418   0.107
28124WAT     H284615   5.482   0.406   0.221
28125WAT      O84616   3.424   1.626   9.300
28125WAT     H184617   3.407   1.537   9.342
28125WAT     H284618   3.519   1.630   9.268
28126WAT      O84619   9.382   6.118   8.539
28126WAT     H184620   9.394   6.042   8.475
28126WAT     H284621   9.471   6.156   8.563
28127WAT      O84622   5.285   4.949   5.673
28127WAT     H184623   5.346   4.880   5.634
28127WAT     H284624   5.337   5.010   5.732
28128WAT      O84625   2.210   3.674   4.247
28128WAT     H184626   2.140   3.611   4.279
28128WAT     H284627   2.295   3.658   4.298
28129WAT      O84628   8.606   9.675   9.159
28129WAT     H184629   8.562   9.591   9.193
28129WAT     H284630   8.561   9.704   9.075
28130WAT      O84631   8.992   2.549   4.620
28130WAT     H184632   9.077   2.504   4.650
28130WAT     H284633   9.014   2.622   4.555
28131WAT      O84634   2.574   6.676   4.811
28131WAT     H184635   2.513   6.606   4.849
28131WAT     H284636   2.663   6.672   4.856
28132WAT      O84637   0.012   0.847   0.960
28132WAT     H184638   0.044   0.761   1.000
28132WAT     H284639   0.075   0.921   0.986
28133WAT      O84640   3.432   6.330   5.336
28133WAT     H184641   3.459   6.253   5.279
28133WAT     H284642   3.337   6.320   5.365
28134WAT      O84643   0.843   7.655   0.381
28134WAT     H184644   0.766   7.619   0.434
28134WAT     H284645   0.895   7.579   0.341
28135WAT      O84646   2.259   9.280   2.258
28135WAT     H184647   2.242   9.223   2.338
28135WAT     H284648   2.334   9.343   2.278
28136WAT      O84649   8.595   9.166   9.866
28136WAT     H184650   8.561   9.093   9.925
28136WAT     H284651   8.529   9.183   9.793
28137WAT      O84652   0.553   2.366   4.290
28137WAT     H184653   0.587   2.440   4.231
28137WAT     H284654   0.491   2.308   4.237
28138WAT      O84655   8.007   1.079   5.783
28138WAT     H184656   8.055   1.165   5.800
28138WAT     H284657   8.018   1.018   5.861
28139WAT      O84658   1.726   2.946   8.233
28139WAT     H184659   1.798   3.010   8.258
28139WAT     H284660   1.699   2.893   8.313
28140WAT      O84661   7.607   6.412   8.654
28140WAT     H184662   7.682   6.406   8.720
28140WAT     H284663   7.538   6.344   8.676
28141WAT      O84664   5.258   2.674   0.499
28141WAT     H184665   5.186   2.711   0.439
28141WAT     H284666   5.288   2.585   0.465
28142WAT      O84667   6.906   5.068   8.396
28142WAT     H184668   6.921   5.004   8.472
28142WAT     H284669   6.934   5.025   8.310
28143WAT      O84670   5.779   8.639   2.456
28143WAT     H184671   5.838   8.710   2.493
28143WAT     H284672   5.707   8.680   2.400
28144WAT      O84673   8.487   5.195   3.140
28144WAT     H184674   8.399   5.236   3.119
28144WAT     H284675   8.488   5.165   3.235
28145WAT      O84676   7.554   7.322   0.486
28145WAT     H184677   7.570   7.350   0.581
28145WAT     H284678   7.456   7.330   0.465
28146WAT      O84679   7.124   5.183   5.733
28146WAT     H184680   7.164   5.242   5.804
28146WAT     H284681   7.027   5.170   5.751
28147WAT      O84682   2.173   5.204   3.207
28147WAT     H184683   2.090   5.255   3.232
28147WAT     H284684   2.160   5.107   3.228
28148WAT      O84685   0.616   5.535   4.409
28148WAT     H184686   0.609   5.489   4.321
28148WAT     H284687   0.712   5.551   4.430
28149WAT      O84688   1.927   6.322   9.450
28149WAT     H184689   1.842   6.272   9.436
28149WAT     H284690   1.979   6.280   9.525
28150WAT      O84691   9.549   7.192   1.715
28150WAT     H184692   9.474   7.160   1.772
28150WAT     H284693   9.542   7.291   1.704
28151WAT      O84694   7.195   9.349   2.724
28151WAT     H184695   7.239   9.323   2.639
28151WAT     H284696   7.261   9.394   2.784
28152WAT      O84697   5.637   9.478   3.634
28152WAT     H184698   5.699   9.418   3.686
28152WAT     H284699   5.583   9.422   3.571
28153WAT      O84700   0.126   4.360   3.391
28153WAT     H184701   0.147   4.444   3.341
28153WAT     H284702   0.210   4.323   3.430
28154WAT      O84703   6.771   5.944   7.589
28154WAT     H184704   6.859   5.904   7.615
28154WAT     H284705   6.777   6.043   7.592
28155WAT      O84706   8.516   8.631   4.087
28155WAT     H184707   8.495   8.619   3.990
28155WAT     H284708   8.456   8.573   4.142
28156WAT      O84709   5.679   3.480   9.065
28156WAT     H184710   5.737   3.440   8.994
28156WAT     H284711   5.715   3.457   9.155
28157WAT      O84712   9.034   2.509   2.981
28157WAT     H184713   9.115   2.566   2.990
28157WAT     H284714   9.023   2.454   3.064
28158WAT      O84715   6.667   2.504   3.473
28158WAT     H184716   6.661   2.549   3.384
28158WAT     H284717   6.632   2.410   3.466
28159WAT      O84718   6.881   4.065   4.129
28159WAT     H184719   6.981   4.058   4.121
28159WAT     H284720   6.849   3.999   4.197
28160WAT      O84721   6.939   4.556   7.820
28160WAT     H184722   6.896   4.466   7.828
28160WAT     H284723   7.005   4.554   7.745
28161WAT      O84724   4.049   5.667   0.278
28161WAT     H184725   4.140   5.704   0.261
28161WAT     H284726   4.006   5.645   0.191
28162WAT      O84727   5.363   8.086   4.467
28162WAT     H184728   5.418   8.084   4.383
28162WAT     H284729   5.405   8.148   4.533
28163WAT      O84730   0.138   8.836   5.643
28163WAT     H184731   0.212   8.779   5.606
28163WAT     H284732   0.056   8.823   5.588
28164WAT      O84733   9.556   6.483   1.522
28164WAT     H184734   9.570   6.582   1.530
28164WAT     H284735   9.556   6.442   1.613
28165WAT      O84736   3.804   1.224   5.286
28165WAT     H184737   3.772   1.297   5.346
28165WAT     H284738   3.780   1.135   5.326
28166WAT      O84739   0.152   1.778   1.880
28166WAT     H184740   0.239   1.828   1.877
28166WAT     H284741   0.163   1.696   1.936
28167WAT      O84742   7.106   9.811   1.082
28167WAT     H184743   7.175   9.739   1.080
28167WAT     H284744   7.066   9.822   0.992
28168WAT      O84745   2.062   6.433   9.223
28168WAT     H184746   1.984   6.432   9.161
28168WAT     H284747   2.036   6.391   9.310
28169WAT      O84748   8.799   0.722   7.114
28169WAT     H184749   8.718   0.668   7.091
28169WAT     H284750   8.881   0.665   7.104
28170WAT      O84751   7.675   0.016   1.139
28170WAT     H184752   7.758   0.010   1.084
28170WAT     H284753   7.658  -0.073   1.183
28171WAT      O84754   8.516   7.214   5.718
28171WAT     H184755   8.418   7.235   5.708
28171WAT     H284756   8.569   7.297   5.698
28172WAT      O84757   3.305   8.226   4.973
28172WAT     H184758   3.333   8.133   4.948
28172WAT     H284759   3.256   8.268   4.896
28173WAT      O84760   2.606   9.108   5.085
28173WAT     H184761   2.608   9.010   5.106
28173WAT     H284762   2.530   9.127   5.023
28174WAT      O84763   2.990   9.425   3.155
28174WAT     H184764   2.966   9.427   3.058
28174WAT     H284765   2.938   9.496   3.203
28175WAT      O84766   6.252   3.896   8.055
28175WAT     H184767   6.224   3.954   8.131
28175WAT     H284768   6.333   3.935   8.011
28176WAT      O84769   8.120   3.604   8.711
28176WAT     H184770   8.053   3.643   8.775
28176WAT     H284771   8.078   3.595   8.621
28177WAT      O84772   6.377   7.907   4.085
28177WAT     H184773   6.288   7.864   4.101
28177WAT     H284774   6.448   7.858   4.136
28178WAT      O84775   8.151   5.413   7.881
28178WAT     H184776   8.139   5.402   7.979
28178WAT     H284777   8.061   5.416   7.837
28179WAT      O84778   4.294   4.668   0.467
28179WAT     H184779   4.356   4.688   0.543
28179WAT     H284780   4.200   4.693   0.493
28180WAT      O84781   2.436   5.919   4.486
28180WAT     H184782   2.420   5.988   4.415
28180WAT     H284783   2.413   5.957   4.575
28181WAT      O84784   0.778   6.443   0.045
28181WAT     H184785   0.853   6.430   0.110
28181WAT     H284786   0.805   6.408  -0.044
28182WAT      O84787   7.425   6.954   1.639
28182WAT     H184788   7.417   6.966   1.738
28182WAT     H284789   7.499   7.010   1.604
28183WAT      O84790   2.208   4.443   0.443
28183WAT     H184791   2.183   4.347   0.443
28183WAT     H284792   2.137   4.496   0.490
28184WAT      O84793   7.901   1.148   4.245
28184WAT     H184794   7.838   1.097   4.186
28184WAT     H284795   7.885   1.246   4.234
28185WAT      O84796   2.578   5.926   9.338
28185WAT     H184797   2.622   5.893   9.422
28185WAT     H284798   2.524   5.852   9.297
28186WAT      O84799   8.789   1.349   5.375
28186WAT     H184800   8.834   1.277   5.322
28186WAT     H284801   8.799   1.437   5.328
28187WAT      O84802   6.717   2.240   4.729
28187WAT     H184803   6.669   2.178   4.791
28187WAT     H284804   6.747   2.321   4.780
28188WAT      O84805   8.574   8.576   9.581
28188WAT     H184806   8.543   8.518   9.656
28188WAT     H284807   8.538   8.542   9.494
28189WAT      O84808   4.794   2.803   2.727
28189WAT     H184809   4.869   2.739   2.713
28189WAT     H284810   4.804   2.880   2.664
28190WAT      O84811   6.891   1.341   1.278
28190WAT     H184812   6.799   1.308   1.298
28190WAT     H284813   6.906   1.429   1.323
28191WAT      O84814   2.047   8.726   9.251
28191WAT     H184815   2.054   8.683   9.160
28191WAT     H284816   1.958   8.771   9.259
28192WAT      O84817   3.677   1.442   6.721
28192WAT     H184818   3.660   1.377   6.647
28192WAT     H284819   3.756   1.500   6.697
28193WAT      O84820   5.593   7.331   1.163
28193WAT     H184821   5.530   7.407   1.176
28193WAT     H284822   5.644   7.314   1.247
28194WAT      O84823   1.151   6.854   5.215
28194WAT     H184824   1.161   6.889   5.122
28194WAT     H284825   1.176   6.926   5.280
28195WAT      O84826   4.740   1.233   7.638
28195WAT     H184827   4.664   1.270   7.691
28195WAT     H284828   4.827   1.263   7.679
28196WAT      O84829   1.355   2.063   6.007
28196WAT     H184830   1.266   2.019   5.995
28196WAT     H284831   1.342   2.161   6.024
28197WAT      O84832   0.459   3.346   4.696
28197WAT     H184833   0.554   3.317   4.685
28197WAT     H284834   0.436   3.413   4.625
28198WAT      O84835   7.896   3.853   5.234
28198WAT     H184836   7.970   3.900   5.282
28198WAT     H284837   7.808   3.888   5.266
28199WAT      O84838   8.492   8.970   7.414
28199WAT     H184839   8.485   9.065   7.446
28199WAT     H284840   8.402   8.927   7.417
28200WAT      O84841   0.293   7.759   6.018
28200WAT     H184842   0.323   7.800   5.933
28200WAT     H284843   0.371   7.743   6.078
28201WAT      O84844   6.064   1.458   6.789
28201WAT     H184845   6.020   1.448   6.878
28201WAT     H284846   6.023   1.393   6.724
28202WAT      O84847   2.350   2.242   6.449
28202WAT     H184848   2.366   2.286   6.361
28202WAT     H284849   2.336   2.311   6.520
28203WAT      O84850   9.013   3.295   8.109
28203WAT     H184851   8.965   3.378   8.084
28203WAT     H284852   9.110   3.315   8.124
28204WAT      O84853   1.652   3.716   6.057
28204WAT     H184854   1.621   3.702   6.151
28204WAT     H284855   1.719   3.791   6.055
28205WAT      O84856   7.418   6.747   6.402
28205WAT     H184857   7.443   6.790   6.489
28205WAT     H284858   7.501   6.734   6.347
28206WAT      O84859   0.724   1.248   4.124
28206WAT     H184860   0.811   1.199   4.123
28206WAT     H284861   0.740   1.344   4.147
28207WAT      O84862   3.818   6.254   1.123
28207WAT     H184863   3.747   6.187   1.144
28207WAT     H284864   3.793   6.342   1.163
28208WAT      O84865   2.581   1.925   6.749
28208WAT     H184866   2.649   1.998   6.741
28208WAT     H284867   2.555   1.894   6.658
28209WAT      O84868   0.918   2.631   8.527
28209WAT     H184869   1.001   2.653   8.578
28209WAT     H284870   0.898   2.704   8.461
28210WAT      O84871   0.542   5.761   6.429
28210WAT     H184872   0.475   5.687   6.426
28210WAT     H284873   0.617   5.735   6.490
28211WAT      O84874   5.625   2.407   9.374
28211WAT     H184875   5.549   2.449   9.423
28211WAT     H284876   5.602   2.401   9.277
28212WAT      O84877   2.568   6.315   8.333
28212WAT     H184878   2.574   6.278   8.240
28212WAT     H284879   2.479   6.360   8.345
28213WAT      O84880   7.582   4.126   7.993
28213WAT     H184881   7.526   4.170   8.063
28213WAT     H284882   7.670   4.099   8.032
28214WAT      O84883   1.884   0.164   1.823
28214WAT     H184884   1.904   0.187   1.728
28214WAT     H284885   1.843   0.243   1.869
28215WAT      O84886   4.060   8.195   0.336
28215WAT     H184887   4.012   8.263   0.393
28215WAT     H284888   3.993   8.143   0.283
28216WAT      O84889   7.100   6.446   1.386
28216WAT     H184890   7.149   6.488   1.462
28216WAT     H284891   7.015   6.405   1.419
28217WAT      O84892   7.043   9.164   9.428
28217WAT     H184893   7.035   9.262   9.409
28217WAT     H284894   7.125   9.128   9.384
28218WAT      O84895   9.497   4.746   0.192
28218WAT     H184896   9.467   4.841   0.181
28218WAT     H284897   9.595   4.745   0.212
28219WAT      O84898   7.584   4.424   8.480
28219WAT     H184899   7.517   4.494   8.504
28219WAT     H284900   7.643   4.458   8.407
28220WAT      O84901   0.309   3.280   5.136
28220WAT     H184902   0.325   3.353   5.069
28220WAT     H284903   0.292   3.321   5.225
28221WAT      O84904   6.958   1.555   5.462
28221WAT     H184905   7.044   1.587   5.501
28221WAT     H284906   6.949   1.587   5.368
28222WAT      O84907   8.339   2.742   3.819
28222WAT     H184908   8.308   2.745   3.914
28222WAT     H284909   8.359   2.647   3.794
28223WAT      O84910   2.804   1.544   8.514
28223WAT     H184911   2.779   1.611   8.585
28223WAT     H284912   2.783   1.582   8.424
28224WAT      O84913   4.486   2.440   2.843
28224WAT     H184914   4.388   2.437   2.863
28224WAT     H284915   4.511   2.532   2.813
28225WAT      O84916   6.226   1.720   4.907
28225WAT     H184917   6.266   1.716   4.816
28225WAT     H284918   6.235   1.814   4.943
28226WAT      O84919   7.985   3.548   6.555
28226WAT     H184920   7.962   3.496   6.473
28226WAT     H284921   8.043   3.626   6.531
28227WAT      O84922   3.247   3.228   1.441
28227WAT     H184923   3.262   3.236   1.539
28227WAT     H284924   3.309   3.290   1.392
28228WAT      O84925   4.080   2.764   2.246
28228WAT     H184926   4.140   2.801   2.174
28228WAT     H284927   4.123   2.683   2.286
28229WAT      O84928   3.841   0.294   9.866
28229WAT     H184929   3.802   0.350   9.793
28229WAT     H284930   3.915   0.345   9.911
28230WAT      O84931   4.223   5.706   5.614
28230WAT     H184932   4.213   5.607   5.605
28230WAT     H284933   4.318   5.731   5.597
28231WAT      O84934   2.635   8.692   9.629
28231WAT     H184935   2.586   8.747   9.562
28231WAT     H284936   2.619   8.595   9.610
28232WAT      O84937   8.234   5.091   2.267
28232WAT     H184938   8.298   5.034   2.215
28232WAT     H284939   8.286   5.143   2.336
28233WAT      O84940   4.154   9.523   7.121
28233WAT     H184941   4.090   9.473   7.180
28233WAT     H284942   4.103   9.569   7.048
28234WAT      O84943   9.841   1.764   4.755
28234WAT     H184944   9.930   1.805   4.778
28234WAT     H284945   9.814   1.701   4.828
28235WAT      O84946   1.291   3.468   6.554
28235WAT     H184947   1.325   3.444   6.463
28235WAT     H284948   1.351   3.537   6.595
28236WAT      O84949   8.467   9.140   3.238
28236WAT     H184950   8.477   9.058   3.181
28236WAT     H284951   8.446   9.218   3.180
28237WAT      O84952   3.773   6.183   3.377
28237WAT     H184953   3.821   6.213   3.459
28237WAT     H284954   3.822   6.215   3.296
28238WAT      O84955   2.651   7.110   0.458
28238WAT     H184956   2.597   7.110   0.542
28238WAT     H284957   2.592   7.086   0.381
28239WAT      O84958   1.977   1.346   2.541
28239WAT     H184959   1.928   1.297   2.613
28239WAT     H284960   2.018   1.429   2.579
28240WAT      O84961   7.561   6.651   7.156
28240WAT     H184962   7.475   6.616   7.191
28240WAT     H284963   7.636   6.619   7.214
28241WAT      O84964   5.947   3.600   2.003
28241WAT     H184965   6.035   3.631   2.040
28241WAT     H284966   5.905   3.674   1.951
28242WAT      O84967   6.617   1.362   0.606
28242WAT     H184968   6.551   1.431   0.577
28242WAT     H284969   6.705   1.380   0.562
28243WAT      O84970   1.064   8.223   2.621
28243WAT     H184971   1.109   8.257   2.703
28243WAT     H284972   1.130   8.219   2.546
28244WAT      O84973   7.651   7.945   4.703
28244WAT     H184974   7.552   7.949   4.693
28244WAT     H284975   7.692   7.909   4.619
28245WAT      O84976   1.678   1.729   7.862
28245WAT     H184977   1.596   1.673   7.879
28245WAT     H284978   1.734   1.731   7.945
28246WAT      O84979   0.300   8.081   7.650
28246WAT     H184980   0.390   8.092   7.608
28246WAT     H284981   0.310   8.028   7.735
28247WAT      O84982   7.099   3.333   8.437
28247WAT     H184983   7.123   3.254   8.380
28247WAT     H284984   7.076   3.302   8.529
28248WAT      O84985   2.857   2.632   5.876
28248WAT     H184986   2.844   2.539   5.843
28248WAT     H284987   2.799   2.695   5.823
28249WAT      O84988   6.408   9.241   0.677
28249WAT     H184989   6.444   9.308   0.741
28249WAT     H284990   6.334   9.190   0.721
28250WAT      O84991   3.788   2.549   7.509
28250WAT     H184992   3.843   2.466   7.500
28250WAT     H284993   3.846   2.625   7.539
28251WAT      O84994   5.683   0.526   4.545
28251WAT     H184995   5.708   0.434   4.514
28251WAT     H284996   5.589   0.546   4.520
28252WAT      O84997   2.716   7.246   1.292
28252WAT     H184998   2.682   7.168   1.239
28252WAT     H284999   2.644   7.316   1.297
28253WAT      O85000   5.229   4.490   2.899
28253WAT     H185001   5.166   4.443   2.961
28253WAT     H285002   5.288   4.423   2.855
28254WAT      O85003   5.478   7.812   2.529
28254WAT     H185004   5.398   7.811   2.469
28254WAT     H285005   5.479   7.728   2.583
28255WAT      O85006   2.770   1.982   2.828
28255WAT     H185007   2.806   1.893   2.854
28255WAT     H285008   2.694   1.970   2.764
28256WAT      O85009   5.463   2.218   7.002
28256WAT     H185010   5.379   2.273   7.001
28256WAT     H285011   5.457   2.148   6.931
28257WAT      O85012   9.583   9.744   7.461
28257WAT     H185013   9.653   9.811   7.438
28257WAT     H285014   9.592   9.664   7.402
28258WAT      O85015   4.403   2.764   1.794
28258WAT     H185016   4.474   2.743   1.726
28258WAT     H285017   4.347   2.840   1.761
28259WAT      O85018   1.178   6.948   4.968
28259WAT     H185019   1.268   6.911   4.943
28259WAT     H285020   1.116   6.941   4.890
28260WAT      O85021   2.477   3.991   6.320
28260WAT     H185022   2.469   4.091   6.321
28260WAT     H285023   2.488   3.957   6.413
28261WAT      O85024   7.873   5.264   5.904
28261WAT     H185025   7.807   5.253   5.977
28261WAT     H285026   7.960   5.297   5.942
28262WAT      O85027   2.973   9.830   4.642
28262WAT     H185028   2.930   9.740   4.634
28262WAT     H285029   2.925   9.884   4.711
28263WAT      O85030   2.534   5.621   0.274
28263WAT     H185031   2.452   5.637   0.329
28263WAT     H285032   2.596   5.561   0.323
28264WAT      O85033   3.106   5.951   3.849
28264WAT     H185034   3.157   5.928   3.766
28264WAT     H285035   3.097   5.870   3.907
28265WAT      O85036   8.929   4.735   7.477
28265WAT     H185037   8.953   4.642   7.448
28265WAT     H285038   8.833   4.738   7.503
28266WAT      O85039   8.516   4.091   5.977
28266WAT     H185040   8.580   4.160   6.010
28266WAT     H285041   8.474   4.044   6.054
28267WAT      O85042   2.967   2.023   9.582
28267WAT     H185043   2.906   2.024   9.661
28267WAT     H285044   2.928   2.078   9.508
28268WAT      O85045   1.281   6.787   6.469
28268WAT     H185046   1.261   6.778   6.567
28268WAT     H285047   1.281   6.884   6.444
28269WAT      O85048   7.438   8.464   6.682
28269WAT     H185049   7.446   8.458   6.781
28269WAT     H285050   7.489   8.388   6.640
28270WAT      O85051   6.695   8.114   8.093
28270WAT     H185052   6.621   8.151   8.148
28270WAT     H285053   6.754   8.057   8.151
28271WAT      O85054   5.130   8.328   9.540
28271WAT     H185055   5.070   8.248   9.537
28271WAT     H285056   5.133   8.371   9.449
28272WAT      O85057   4.796   9.051   5.648
28272WAT     H185058   4.866   9.060   5.719
28272WAT     H285059   4.737   8.973   5.668
28273WAT      O85060   9.496   0.306   4.975
28273WAT     H185061   9.402   0.284   4.948
28273WAT     H285062   9.560   0.253   4.919
28274WAT      O85063   0.983   5.851   5.236
28274WAT     H185064   0.966   5.785   5.163
28274WAT     H285065   1.079   5.849   5.262
28275WAT      O85066   4.617   3.795   1.500
28275WAT     H185067   4.685   3.725   1.480
28275WAT     H285068   4.658   3.866   1.557
28276WAT      O85069   0.622   9.173   1.325
28276WAT     H185070   0.525   9.165   1.303
28276WAT     H285071   0.632   9.203   1.420
28277WAT      O85072   7.301   6.872   5.496
28277WAT     H185073   7.214   6.888   5.449
28277WAT     H285074   7.294   6.903   5.591
28278WAT      O85075   0.645   5.054   8.618
28278WAT     H185076   0.566   5.109   8.590
28278WAT     H285077   0.691   5.018   8.537
28279WAT      O85078   8.146   5.651   9.373
28279WAT     H185079   8.123   5.571   9.430
28279WAT     H285080   8.069   5.673   9.313
28280WAT      O85081   8.568   4.903   9.838
28280WAT     H185082   8.525   4.821   9.799
28280WAT     H285083   8.561   4.979   9.774
28281WAT      O85084   7.187   5.523   0.304
28281WAT     H185085   7.238   5.473   0.374
28281WAT     H285086   7.216   5.493   0.213
28282WAT      O85087   9.209   9.334   5.581
28282WAT     H185088   9.191   9.308   5.676
28282WAT     H285089   9.126   9.370   5.540
28283WAT      O85090   0.166   6.620   0.508
28283WAT     H185091   0.098   6.566   0.460
28283WAT     H285092   0.163   6.715   0.475
28284WAT      O85093   9.390   1.159   1.084
28284WAT     H185094   9.445   1.085   1.047
28284WAT     H285095   9.409   1.243   1.033
28285WAT      O85096   5.328   5.778   4.952
28285WAT     H185097   5.312   5.771   4.853
28285WAT     H285098   5.380   5.861   4.971
28286WAT      O85099   9.206   9.710   3.094
28286WAT     H185100   9.289   9.655   3.107
28286WAT     H285101   9.132   9.650   3.061
28287WAT      O85102   4.404   0.093   8.557
28287WAT     H185103   4.471   0.143   8.611
28287WAT     H285104   4.352   0.031   8.616
28288WAT      O85105   2.878   1.448   7.835
28288WAT     H185106   2.837   1.370   7.788
28288WAT     H285107   2.892   1.523   7.770
28289WAT      O85108   9.302   5.524   9.007
28289WAT     H185109   9.246   5.606   8.992
28289WAT     H285110   9.396   5.551   9.026
28290WAT      O85111   9.705   5.278   2.828
28290WAT     H185112   9.729   5.248   2.920
28290WAT     H285113   9.638   5.214   2.788
28291WAT      O85114   2.766   4.268   0.899
28291WAT     H185115   2.860   4.300   0.905
28291WAT     H285116   2.742   4.218   0.982
28292WAT      O85117   9.310   5.573   4.026
28292WAT     H185118   9.336   5.563   3.930
28292WAT     H285119   9.390   5.601   4.079
28293WAT      O85120   8.623   7.180   3.020
28293WAT     H185121   8.584   7.203   2.931
28293WAT     H285122   8.661   7.087   3.017
28294WAT      O85123   6.550   1.675   2.715
28294WAT     H185124   6.585   1.665   2.622
28294WAT     H285125   6.532   1.771   2.734
28295WAT      O85126   2.940   3.943   8.992
28295WAT     H185127   3.001   3.870   8.961
28295WAT     H285128   2.884   3.909   9.068
28296WAT      O85129   7.394   4.776   4.954
28296WAT     H185130   7.399   4.688   5.002
28296WAT     H285131   7.478   4.827   4.971
28297WAT      O85132   1.433   2.866   4.691
28297WAT     H185133   1.356   2.863   4.628
28297WAT     H285134   1.513   2.905   4.645
28298WAT      O85135   8.358   4.380   9.135
28298WAT     H185136   8.456   4.366   9.148
28298WAT     H285137   8.335   4.475   9.153
28299WAT      O85138   1.679   3.557   6.508
28299WAT     H185139   1.755   3.542   6.570
28299WAT     H285140   1.660   3.473   6.457
28300WAT      O85141   6.597   2.302   2.898
28300WAT     H185142   6.505   2.303   2.860
28300WAT     H285143   6.652   2.374   2.855
28301WAT      O85144   8.187   3.141   6.035
28301WAT     H185145   8.241   3.173   5.957
28301WAT     H285146   8.183   3.041   6.034
28302WAT      O85147   3.006   0.700   5.799
28302WAT     H185148   3.020   0.602   5.813
28302WAT     H285149   3.060   0.751   5.866
28303WAT      O85150   2.666   7.634   4.367
28303WAT     H185151   2.683   7.586   4.453
28303WAT     H285152   2.568   7.636   4.349
28304WAT      O85153   1.318   8.534   9.184
28304WAT     H185154   1.388   8.525   9.255
28304WAT     H285155   1.358   8.580   9.104
28305WAT      O85156   6.444   7.455   2.082
28305WAT     H185157   6.385   7.375   2.069
28305WAT     H285158   6.394   7.526   2.130
28306WAT      O85159   8.543   5.557   2.347
28306WAT     H185160   8.532   5.561   2.446
28306WAT     H285161   8.515   5.645   2.307
28307WAT      O85162   7.566   5.173   8.477
28307WAT     H185163   7.573   5.163   8.377
28307WAT     H285164   7.574   5.083   8.520
28308WAT      O85165   7.256   8.095   7.726
28308WAT     H185166   7.272   8.098   7.628
28308WAT     H285167   7.278   8.184   7.766
28309WAT      O85168   4.689   8.730   0.373
28309WAT     H185169   4.701   8.799   0.444
28309WAT     H285170   4.676   8.640   0.416
28310WAT      O85171   4.618   8.399   5.814
28310WAT     H185172   4.530   8.352   5.823
28310WAT     H285173   4.659   8.376   5.726
28311WAT      O85174   0.841   7.720   6.664
28311WAT     H185175   0.923   7.664   6.680
28311WAT     H285176   0.809   7.757   6.752
28312WAT      O85177   0.721   6.580   3.666
28312WAT     H185178   0.683   6.503   3.615
28312WAT     H285179   0.657   6.607   3.738
28313WAT      O85180   3.351   0.421   5.341
28313WAT     H185181   3.272   0.397   5.285
28313WAT     H285182   3.386   0.511   5.313
28314WAT      O85183   6.932   7.090   9.317
28314WAT     H185184   6.953   7.143   9.399
28314WAT     H285185   6.961   7.142   9.236
28315WAT      O85186   7.759   8.639   1.508
28315WAT     H185187   7.818   8.677   1.437
28315WAT     H285188   7.793   8.667   1.598
28316WAT      O85189   5.010   6.933   8.948
28316WAT     H185190   4.981   7.007   8.888
28316WAT     H285191   5.046   6.971   9.033
28317WAT      O85192   5.285   0.893   3.033
28317WAT     H185193   5.254   0.816   2.977
28317WAT     H285194   5.279   0.977   2.980
28318WAT      O85195   5.864   7.170   5.761
28318WAT     H185196   5.776   7.171   5.715
28318WAT     H285197   5.927   7.232   5.715
28319WAT      O85198   3.577   5.650   5.576
28319WAT     H185199   3.612   5.557   5.560
28319WAT     H285200   3.655   5.713   5.582
28320WAT      O85201   0.631   8.700   2.745
28320WAT     H185202   0.531   8.709   2.749
28320WAT     H285203   0.672   8.736   2.828
28321WAT      O85204   5.059   4.108   6.845
28321WAT     H185205   4.980   4.086   6.902
28321WAT     H285206   5.091   4.201   6.866
28322WAT      O85207   4.017   6.385   9.874
28322WAT     H185208   4.087   6.454   9.862
28322WAT     H285209   4.023   6.317   9.800
28323WAT      O85210   8.805   8.167   7.631
28323WAT     H185211   8.748   8.122   7.562
28323WAT     H285212   8.885   8.110   7.650
28324WAT      O85213   4.062   0.487   9.717
28324WAT     H185214   4.096   0.576   9.687
28324WAT     H285215   4.046   0.488   9.816
28325WAT      O85216   7.883   5.856   8.761
28325WAT     H185217   7.818   5.828   8.831
28325WAT     H285218   7.964   5.896   8.804
28326WAT      O85219   9.280   4.047   3.050
28326WAT     H185220   9.254   3.969   3.107
28326WAT     H285221   9.202   4.074   2.993
28327WAT      O85222   7.383   6.363   2.421
28327WAT     H185223   7.331   6.325   2.498
28327WAT     H285224   7.457   6.421   2.456
28328WAT      O85225   6.369   6.568   2.807
28328WAT     H185226   6.357   6.566   2.708
28328WAT     H285227   6.285   6.602   2.850
28329WAT      O85228   1.397   5.142   2.760
28329WAT     H185229   1.312   5.164   2.809
28329WAT     H285230   1.387   5.166   2.664
28330WAT      O85231   6.685   7.149   5.831
28330WAT     H185232   6.629   7.200   5.766
28330WAT     H285233   6.694   7.202   5.915
28331WAT      O85234   1.739   2.399   3.910
28331WAT     H185235   1.725   2.321   3.971
28331WAT     H285236   1.834   2.431   3.917
28332WAT      O85237   6.090   3.910   0.170
28332WAT     H185238   6.089   4.008   0.149
28332WAT     H285239   6.176   3.887   0.216
28333WAT      O85240   0.528   8.129   7.515
28333WAT     H185241   0.536   8.229   7.521
28333WAT     H285242   0.510   8.103   7.420
28334WAT      O85243   0.127   2.391   7.092
28334WAT     H185244   0.120   2.481   7.135
28334WAT     H285245   0.198   2.394   7.021
28335WAT      O85246   9.599   1.130   8.757
28335WAT     H185247   9.600   1.063   8.831
28335WAT     H285248   9.552   1.213   8.788
28336WAT      O85249   7.672   6.515   8.392
28336WAT     H185250   7.738   6.590   8.384
28336WAT     H285251   7.665   6.487   8.487
28337WAT      O85252   4.833   8.338   0.444
28337WAT     H185253   4.867   8.372   0.357
28337WAT     H285254   4.910   8.309   0.501
28338WAT      O85255   0.569   3.848   7.692
28338WAT     H185256   0.565   3.860   7.592
28338WAT     H285257   0.582   3.937   7.735
28339WAT      O85258   0.575   5.709   1.285
28339WAT     H185259   0.584   5.613   1.311
28339WAT     H285260   0.504   5.719   1.215
28340WAT      O85261   6.178   6.198   6.466
28340WAT     H185262   6.127   6.278   6.497
28340WAT     H285263   6.142   6.166   6.378
28341WAT      O85264   5.780   5.639   4.747
28341WAT     H185265   5.700   5.592   4.784
28341WAT     H285266   5.857   5.628   4.811
28342WAT      O85267   8.705   4.091   0.086
28342WAT     H185268   8.742   4.143   0.163
28342WAT     H285269   8.634   4.030   0.120
28343WAT      O85270   0.623   3.870   7.377
28343WAT     H185271   0.708   3.860   7.428
28343WAT     H285272   0.624   3.956   7.326
28344WAT      O85273   8.460   1.928   7.728
28344WAT     H185274   8.374   1.913   7.777
28344WAT     H285275   8.521   1.851   7.745
28345WAT      O85276   5.050   9.094   7.475
28345WAT     H185277   5.120   9.166   7.475
28345WAT     H285278   4.960   9.136   7.486
28346WAT      O85279   6.425   4.696   1.199
28346WAT     H185280   6.360   4.636   1.153
28346WAT     H285281   6.439   4.778   1.144
28347WAT      O85282   4.075   9.389   4.305
28347WAT     H185283   4.003   9.361   4.369
28347WAT     H285284   4.054   9.354   4.214
28348WAT      O85285   3.750   9.211   2.644
28348WAT     H185286   3.700   9.226   2.558
28348WAT     H285287   3.755   9.297   2.694
28349WAT      O85288   0.433   5.184   8.852
28349WAT     H185289   0.393   5.253   8.913
28349WAT     H285290   0.404   5.202   8.758
28350WAT      O85291   0.081   5.208   2.789
28350WAT     H185292   0.118   5.171   2.704
28350WAT     H285293  -0.019   5.211   2.783
28351WAT      O85294   2.032   5.671   9.420
28351WAT     H185295   2.006   5.630   9.333
28351WAT     H285296   1.999   5.613   9.495
28352WAT      O85297   6.284   1.035   9.216
28352WAT     H185298   6.264   0.942   9.246
28352WAT     H285299   6.231   1.100   9.270
28353WAT      O85300   4.670   6.865   3.420
28353WAT     H185301   4.621   6.949   3.442
28353WAT     H285302   4.634   6.827   3.334
28354WAT      O85303   2.142   9.082   6.321
28354WAT     H185304   2.145   9.112   6.417
28354WAT     H285305   2.214   9.129   6.270
28355WAT      O85306   1.632   9.307   8.955
28355WAT     H185307   1.665   9.362   9.031
28355WAT     H285308   1.697   9.311   8.879
28356WAT      O85309   1.140   5.771   9.359
28356WAT     H185310   1.178   5.863   9.364
28356WAT     H285311   1.079   5.764   9.281
28357WAT      O85312   8.256   6.924   7.047
28357WAT     H185313   8.262   6.842   6.991
28357WAT     H285314   8.346   6.945   7.085
28358WAT      O85315   7.214   0.813   0.488
28358WAT     H185316   7.309   0.837   0.468
28358WAT     H285317   7.178   0.875   0.557
28359WAT      O85318   9.464   9.065   6.340
28359WAT     H185319   9.496   8.985   6.391
28359WAT     H285320   9.376   9.045   6.298
28360WAT      O85321   1.032   4.799   1.404
28360WAT     H185322   1.067   4.832   1.492
28360WAT     H285323   1.061   4.704   1.390
28361WAT      O85324   8.670   0.881   6.112
28361WAT     H185325   8.587   0.891   6.056
28361WAT     H285326   8.706   0.971   6.133
28362WAT      O85327   2.121   0.015   3.146
28362WAT     H185328   2.093  -0.056   3.082
28362WAT     H285329   2.202  -0.014   3.196
28363WAT      O85330   1.596   9.244   7.518
28363WAT     H185331   1.655   9.176   7.560
28363WAT     H285332   1.583   9.222   7.421
28364WAT      O85333   0.986   6.786   0.131
28364WAT     H185334   0.887   6.788   0.120
28364WAT     H285335   1.012   6.715   0.196
28365WAT      O85336   5.901   4.297   4.100
28365WAT     H185337   5.919   4.358   4.023
28365WAT     H285338   5.981   4.297   4.161
28366WAT      O85339   3.493   4.003   9.330
28366WAT     H185340   3.424   3.980   9.399
28366WAT     H285341   3.450   4.000   9.239
28367WAT      O85342   8.156   8.311   1.338
28367WAT     H185343   8.118   8.395   1.377
28367WAT     H285344   8.236   8.283   1.390
28368WAT      O85345   4.476   1.321   9.644
28368WAT     H185346   4.404   1.316   9.713
28368WAT     H285347   4.483   1.415   9.610
28369WAT      O85348   7.681   9.612   3.249
28369WAT     H185349   7.643   9.535   3.301
28369WAT     H285350   7.714   9.579   3.161
28370WAT      O85351   7.263   5.094   9.736
28370WAT     H185352   7.211   5.030   9.793
28370WAT     H285353   7.200   5.155   9.689
28371WAT      O85354   4.947   9.029   2.166
28371WAT     H185355   4.859   9.068   2.141
28371WAT     H285356   4.985   8.980   2.088
28372WAT      O85357   1.854   5.849   5.082
28372WAT     H185358   1.940   5.825   5.128
28372WAT     H285359   1.807   5.920   5.135
28373WAT      O85360   0.474   2.604   3.702
28373WAT     H185361   0.502   2.611   3.606
28373WAT     H285362   0.375   2.593   3.707
28374WAT      O85363   3.451   3.303   3.453
28374WAT     H185364   3.519   3.374   3.471
28374WAT     H285365   3.391   3.293   3.532
28375WAT      O85366   3.797   7.104   8.528
28375WAT     H185367   3.809   7.199   8.559
28375WAT     H285368   3.747   7.103   8.442
28376WAT      O85369   3.445   1.055   6.461
28376WAT     H185370   3.373   1.085   6.524
28376WAT     H285371   3.404   1.034   6.372
28377WAT      O85372   6.598   4.970   3.997
28377WAT     H185373   6.515   4.969   4.054
28377WAT     H285374   6.643   5.059   4.005
28378WAT      O85375   3.185   2.950   5.435
28378WAT     H185376   3.241   2.873   5.404
28378WAT     H285377   3.109   2.916   5.491
28379WAT      O85378   0.024   4.470   1.592
28379WAT     H185379   0.075   4.505   1.671
28379WAT     H285380  -0.074   4.480   1.609
28380WAT      O85381   1.781   3.036   6.951
28380WAT     H185382   1.797   3.028   6.852
28380WAT     H285383   1.728   2.957   6.982
28381WAT      O85384   8.314   1.622   2.285
28381WAT     H185385   8.260   1.617   2.370
28381WAT     H285386   8.366   1.708   2.285
28382WAT      O85387   4.285   3.218   0.424
28382WAT     H185388   4.189   3.202   0.399
28382WAT     H285389   4.335   3.248   0.343
28383WAT      O85390   0.270   8.499   5.123
28383WAT     H185391   0.277   8.441   5.204
28383WAT     H285392   0.233   8.588   5.148
28384WAT      O85393   6.025   5.310   3.383
28384WAT     H185394   6.011   5.395   3.331
28384WAT     H285395   5.952   5.299   3.450
28385WAT      O85396   2.923   5.175   9.409
28385WAT     H185397   3.009   5.135   9.440
28385WAT     H285398   2.860   5.184   9.486
28386WAT      O85399   6.069   0.638   5.774
28386WAT     H185400   6.020   0.725   5.773
28386WAT     H285401   6.018   0.571   5.829
28387WAT      O85402   3.411   8.992   2.559
28387WAT     H185403   3.431   8.921   2.492
28387WAT     H285404   3.437   9.081   2.521
28388WAT      O85405   6.603   5.558   5.698
28388WAT     H185406   6.646   5.557   5.788
28388WAT     H285407   6.607   5.466   5.658
28389WAT      O85408   0.442   7.909   6.500
28389WAT     H185409   0.363   7.848   6.513
28389WAT     H285410   0.458   7.960   6.584
28390WAT      O85411   6.890   3.247   8.166
28390WAT     H185412   6.970   3.266   8.110
28390WAT     H285413   6.807   3.272   8.116
28391WAT      O85414   7.198   3.151   3.890
28391WAT     H185415   7.267   3.211   3.850
28391WAT     H285416   7.187   3.173   3.987
28392WAT      O85417   5.702   9.736   7.075
28392WAT     H185418   5.603   9.737   7.061
28392WAT     H285419   5.743   9.668   7.014
28393WAT      O85420   6.959   8.868   6.006
28393WAT     H185421   6.973   8.953   6.058
28393WAT     H285422   6.982   8.884   5.910
28394WAT      O85423   9.172   8.672   1.089
28394WAT     H185424   9.105   8.734   1.048
28394WAT     H285425   9.142   8.577   1.077
28395WAT      O85426   5.953   4.781   8.126
28395WAT     H185427   5.991   4.873   8.117
28395WAT     H285428   5.961   4.750   8.221
28396WAT      O85429   3.011   9.708   1.870
28396WAT     H185430   2.978   9.771   1.940
28396WAT     H285431   3.094   9.663   1.903
28397WAT      O85432   1.170   2.621   3.176
28397WAT     H185433   1.171   2.591   3.080
28397WAT     H285434   1.082   2.596   3.217
28398WAT      O85435   1.075   1.742   7.968
28398WAT     H185436   1.071   1.841   7.960
28398WAT     H285437   0.983   1.704   7.959
28399WAT      O85438   8.992   8.946   2.295
28399WAT     H185439   9.018   8.899   2.380
28399WAT     H285440   8.901   8.986   2.307
28400WAT      O85441   5.861   6.120   3.235
28400WAT     H185442   5.941   6.161   3.279
28400WAT     H285443   5.779   6.171   3.260
28401WAT      O85444   9.145   5.510   5.481
28401WAT     H185445   9.172   5.430   5.427
28401WAT     H285446   9.176   5.594   5.436
28402WAT      O85447   9.361   2.814   1.673
28402WAT     H185448   9.453   2.798   1.637
28402WAT     H285449   9.367   2.866   1.758
28403WAT      O85450   8.995   3.911   7.818
28403WAT     H185451   8.900   3.883   7.804
28403WAT     H285452   9.038   3.931   7.730
28404WAT      O85453   2.153   4.419   8.300
28404WAT     H185454   2.147   4.396   8.203
28404WAT     H285455   2.065   4.402   8.344
28405WAT      O85456   8.315   8.759   1.712
28405WAT     H185457   8.348   8.854   1.718
28405WAT     H285458   8.355   8.715   1.632
28406WAT      O85459   9.143   8.737   1.642
28406WAT     H185460   9.108   8.731   1.548
28406WAT     H285461   9.238   8.769   1.640
28407WAT      O85462   2.180   8.755   7.637
28407WAT     H185463   2.150   8.829   7.697
28407WAT     H285464   2.113   8.740   7.565
28408WAT      O85465   4.280   3.186   7.089
28408WAT     H185466   4.252   3.092   7.068
28408WAT     H285467   4.201   3.238   7.122
28409WAT      O85468   9.807   3.264   9.695
28409WAT     H185469   9.750   3.268   9.776
28409WAT     H285470   9.881   3.332   9.702
28410WAT      O85471   0.841   5.231   4.585
28410WAT     H185472   0.909   5.299   4.614
28410WAT     H285473   0.872   5.187   4.500
28411WAT      O85474   3.320   5.159   8.414
28411WAT     H185475   3.353   5.245   8.374
28411WAT     H285476   3.248   5.179   8.481
28412WAT      O85477   7.527   0.247   2.951
28412WAT     H185478   7.543   0.174   3.017
28412WAT     H285479   7.441   0.293   2.973
28413WAT      O85480   8.969   8.124   0.152
28413WAT     H185481   8.911   8.204   0.168
28413WAT     H285482   9.065   8.152   0.157
28414WAT      O85483   9.565   7.419   9.248
28414WAT     H185484   9.640   7.484   9.245
28414WAT     H285485   9.595   7.331   9.211
28415WAT      O85486   4.411   8.182   5.000
28415WAT     H185487   4.312   8.191   4.995
28415WAT     H285488   4.447   8.154   4.911
28416WAT      O85489   8.192   7.526   3.856
28416WAT     H185490   8.288   7.554   3.850
28416WAT     H285491   8.163   7.491   3.767
28417WAT      O85492   4.080   2.878   5.189
28417WAT     H185493   3.983   2.895   5.172
28417WAT     H285494   4.089   2.800   5.252
28418WAT      O85495   4.475   5.042   8.740
28418WAT     H185496   4.419   5.074   8.817
28418WAT     H285497   4.416   5.020   8.663
28419WAT      O85498   0.526   0.747   2.175
28419WAT     H185499   0.494   0.689   2.251
28419WAT     H285500   0.581   0.822   2.211
28420WAT      O85501   5.424   0.714   5.708
28420WAT     H185502   5.398   0.695   5.614
28420WAT     H285503   5.439   0.813   5.719
28421WAT      O85504   5.799   0.031   9.247
28421WAT     H185505   5.708   0.043   9.207
28421WAT     H285506   5.842  -0.051   9.208
28422WAT      O85507   8.590   5.592   8.863
28422WAT     H185508   8.660   5.530   8.827
28422WAT     H285509   8.562   5.560   8.954
28423WAT      O85510   9.021   3.803   5.383
28423WAT     H185511   8.943   3.847   5.338
28423WAT     H285512   9.087   3.872   5.411
28424WAT      O85513   6.247   5.130   4.893
28424WAT     H185514   6.271   5.033   4.895
28424WAT     H285515   6.287   5.176   4.972
28425WAT      O85516   1.224   9.271   8.660
28425WAT     H185517   1.175   9.358   8.651
28425WAT     H285518   1.270   9.269   8.749
28426WAT      O85519   1.887   2.075   1.761
28426WAT     H185520   1.824   2.152   1.744
28426WAT     H285521   1.924   2.082   1.853
28427WAT      O85522   6.886   2.687   6.478
28427WAT     H185523   6.917   2.775   6.512
28427WAT     H285524   6.895   2.685   6.378
28428WAT      O85525   2.463   1.215   8.607
28428WAT     H185526   2.457   1.315   8.616
28428WAT     H285527   2.427   1.172   8.689
28429WAT      O85528   3.577   1.538   1.472
28429WAT     H185529   3.642   1.468   1.443
28429WAT     H285530   3.488   1.497   1.487
28430WAT      O85531   4.389   3.710   0.633
28430WAT     H185532   4.310   3.676   0.682
28430WAT     H285533   4.397   3.809   0.646
28431WAT      O85534   1.645   9.823   9.474
28431WAT     H185535   1.602   9.912   9.462
28431WAT     H285536   1.579   9.751   9.451
28432WAT      O85537   1.292   4.908   9.100
28432WAT     H185538   1.372   4.906   9.160
28432WAT     H285539   1.275   5.002   9.071
28433WAT      O85540   2.368   5.877   5.385
28433WAT     H185541   2.402   5.892   5.292
28433WAT     H285542   2.444   5.850   5.444
28434WAT      O85543   0.163   0.265   7.473
28434WAT     H185544   0.215   0.350   7.469
28434WAT     H285545   0.084   0.272   7.411
28435WAT      O85546   8.301   4.292   4.461
28435WAT     H185547   8.334   4.288   4.367
28435WAT     H285548   8.358   4.356   4.513
28436WAT      O85549   0.012   9.638   4.598
28436WAT     H185550  -0.083   9.616   4.622
28436WAT     H285551   0.063   9.663   4.681
28437WAT      O85552   7.623   8.435   6.144
28437WAT     H185553   7.706   8.404   6.097
28437WAT     H285554   7.614   8.534   6.135
28438WAT      O85555   2.009   3.610   3.195
28438WAT     H185556   2.074   3.686   3.194
28438WAT     H285557   2.038   3.541   3.128
28439WAT      O85558   5.337   5.064   6.935
28439WAT     H185559   5.354   4.974   6.976
28439WAT     H285560   5.421   5.119   6.939
28440WAT      O85561   5.232   0.618   3.552
28440WAT     H185562   5.189   0.537   3.590
28440WAT     H285563   5.323   0.630   3.592
28441WAT      O85564   0.534   8.867   4.436
28441WAT     H185565   0.518   8.827   4.526
28441WAT     H285566   0.567   8.961   4.447
28442WAT      O85567   8.729   8.513   0.526
28442WAT     H185568   8.764   8.421   0.505
28442WAT     H285569   8.802   8.567   0.568
28443WAT      O85570   0.172   2.275   0.885
28443WAT     H185571   0.125   2.264   0.972
28443WAT     H285572   0.259   2.321   0.899
28444WAT      O85573   2.344   4.077   4.570
28444WAT     H185574   2.389   3.987   4.571
28444WAT     H285575   2.411   4.147   4.594
28445WAT      O85576   4.134   3.653   8.471
28445WAT     H185577   4.060   3.597   8.433
28445WAT     H285578   4.172   3.712   8.399
28446WAT      O85579   9.631   5.670   2.371
28446WAT     H185580   9.533   5.680   2.391
28446WAT     H285581   9.658   5.575   2.387
28447WAT      O85582   9.110   7.743   6.645
28447WAT     H185583   9.021   7.767   6.605
28447WAT     H285584   9.131   7.648   6.621
28448WAT      O85585   8.072   7.493   4.213
28448WAT     H185586   8.070   7.438   4.129
28448WAT     H285587   8.137   7.453   4.277
28449WAT      O85588   4.745   0.928   8.654
28449WAT     H185589   4.704   0.871   8.725
28449WAT     H285590   4.690   0.923   8.571
28450WAT      O85591   2.633   0.136   2.640
28450WAT     H185592   2.722   0.093   2.624
28450WAT     H285593   2.645   0.221   2.691
28451WAT      O85594   1.874   2.405   8.290
28451WAT     H185595   1.958   2.454   8.311
28451WAT     H285596   1.862   2.330   8.355
28452WAT      O85597   5.922   7.856   6.440
28452WAT     H185598   5.954   7.848   6.345
28452WAT     H285599   5.880   7.770   6.468
28453WAT      O85600   2.060   6.791   7.759
28453WAT     H185601   2.067   6.692   7.771
28453WAT     H285602   1.967   6.821   7.778
28454WAT      O85603   1.594   3.472   3.597
28454WAT     H185604   1.530   3.486   3.521
28454WAT     H285605   1.544   3.479   3.683
28455WAT      O85606   6.849   6.144   1.475
28455WAT     H185607   6.864   6.172   1.569
28455WAT     H285608   6.786   6.207   1.430
28456WAT      O85609   0.987   3.140   7.847
28456WAT     H185610   0.991   3.122   7.945
28456WAT     H285611   0.930   3.220   7.829
28457WAT      O85612   3.244   5.414   6.903
28457WAT     H185613   3.210   5.348   6.836
28457WAT     H285614   3.232   5.506   6.867
28458WAT      O85615   5.337   6.377   2.499
28458WAT     H185616   5.325   6.288   2.544
28458WAT     H285617   5.261   6.393   2.436
28459WAT      O85618   7.142   5.781   8.175
28459WAT     H185619   7.151   5.824   8.265
28459WAT     H285620   7.078   5.705   8.180
28460WAT      O85621   4.397   4.176   1.236
28460WAT     H185622   4.440   4.095   1.277
28460WAT     H285623   4.301   4.158   1.218
28461WAT      O85624   4.446   0.521   4.125
28461WAT     H185625   4.486   0.612   4.118
28461WAT     H285626   4.490   0.471   4.199
28462WAT      O85627   1.527   0.084   5.902
28462WAT     H185628   1.446   0.075   5.843
28462WAT     H285629   1.609   0.064   5.848
28463WAT      O85630   0.131   2.070   8.781
28463WAT     H185631   0.107   2.010   8.857
28463WAT     H285632   0.087   2.038   8.697
28464WAT      O85633   4.327   8.665   9.478
28464WAT     H185634   4.286   8.736   9.536
28464WAT     H285635   4.291   8.674   9.385
28465WAT      O85636   5.572   9.581   4.781
28465WAT     H185637   5.640   9.558   4.711
28465WAT     H285638   5.573   9.511   4.852
28466WAT      O85639   9.877   0.149   7.673
28466WAT     H185640   9.873   0.051   7.656
28466WAT     H285641   9.942   0.192   7.609
28467WAT      O85642   4.684   6.757   9.222
28467WAT     H185643   4.750   6.704   9.275
28467WAT     H285644   4.628   6.812   9.283
28468WAT      O85645   7.404   4.727   2.026
28468WAT     H185646   7.312   4.690   2.018
28468WAT     H285647   7.402   4.825   2.006
28469WAT      O85648   8.214   5.108   9.752
28469WAT     H185649   8.276   5.186   9.754
28469WAT     H285650   8.163   5.108   9.665
28470WAT      O85651   5.027   5.509   4.172
28470WAT     H185652   5.015   5.523   4.270
28470WAT     H285653   4.982   5.424   4.144
28471WAT      O85654   6.667   2.994   7.109
28471WAT     H185655   6.749   2.965   7.060
28471WAT     H285656   6.690   3.068   7.172
28472WAT      O85657   1.689   6.881   5.981
28472WAT     H185658   1.697   6.936   6.064
28472WAT     H285659   1.705   6.785   6.002
28473WAT      O85660   1.930   6.593   2.774
28473WAT     H185661   1.943   6.691   2.760
28473WAT     H285662   1.972   6.565   2.860
28474WAT      O85663   0.143   0.626   8.535
28474WAT     H185664   0.151   0.709   8.480
28474WAT     H285665   0.200   0.554   8.496
28475WAT      O85666   0.017   5.238   9.629
28475WAT     H185667   0.076   5.162   9.658
28475WAT     H285668  -0.064   5.202   9.583
28476WAT      O85669   8.701   9.729   0.433
28476WAT     H185670   8.731   9.821   0.406
28476WAT     H285671   8.781   9.672   0.453
28477WAT      O85672   4.463   4.524   3.940
28477WAT     H185673   4.392   4.579   3.895
28477WAT     H285674   4.520   4.480   3.871
28478WAT      O85675   1.406   3.370   6.325
28478WAT     H185676   1.505   3.359   6.320
28478WAT     H285677   1.362   3.282   6.312
28479WAT      O85678   8.175   6.644   2.728
28479WAT     H185679   8.238   6.713   2.762
28479WAT     H285680   8.166   6.653   2.629
28480WAT      O85681   3.111   2.424   3.108
28480WAT     H185682   3.171   2.357   3.065
28480WAT     H285683   3.166   2.487   3.164
28481WAT      O85684   3.972   9.845   2.133
28481WAT     H185685   3.890   9.800   2.169
28481WAT     H285686   4.052   9.810   2.181
28482WAT      O85687   8.553   8.467   5.503
28482WAT     H185688   8.549   8.562   5.533
28482WAT     H285689   8.460   8.432   5.489
28483WAT      O85690   0.328   5.931   5.652
28483WAT     H185691   0.333   5.999   5.726
28483WAT     H285692   0.238   5.936   5.608
28484WAT      O85693   4.772   7.261   9.443
28484WAT     H185694   4.847   7.325   9.458
28484WAT     H285695   4.806   7.168   9.444
28485WAT      O85696   6.062   8.723   8.032
28485WAT     H185697   6.144   8.675   8.000
28485WAT     H285698   5.981   8.672   8.002
28486WAT      O85699   1.139   8.761   0.765
28486WAT     H185700   1.204   8.692   0.795
28486WAT     H285701   1.075   8.781   0.840
28487WAT      O85702   8.945   7.227   5.158
28487WAT     H185703   8.873   7.230   5.227
28487WAT     H285704   8.925   7.292   5.085
28488WAT      O85705   4.788   6.112   9.495
28488WAT     H185706   4.737   6.029   9.518
28488WAT     H285707   4.816   6.107   9.399
28489WAT      O85708   7.287   6.063   1.622
28489WAT     H185709   7.192   6.044   1.595
28489WAT     H285710   7.311   6.156   1.596
28490WAT      O85711   5.815   1.876   5.729
28490WAT     H185712   5.883   1.806   5.706
28490WAT     H285713   5.742   1.875   5.662
28491WAT      O85714   5.418   9.348   5.027
28491WAT     H185715   5.417   9.287   5.106
28491WAT     H285716   5.329   9.391   5.016
28492WAT      O85717   7.131   8.407   4.654
28492WAT     H185718   7.105   8.333   4.716
28492WAT     H285719   7.231   8.406   4.642
28493WAT      O85720   9.172   8.985   0.310
28493WAT     H185721   9.234   8.906   0.308
28493WAT     H285722   9.100   8.973   0.242
28494WAT      O85723   7.327   4.495   1.201
28494WAT     H185724   7.345   4.405   1.160
28494WAT     H285725   7.403   4.520   1.261
28495WAT      O85726   2.657   9.647   8.260
28495WAT     H185727   2.744   9.607   8.231
28495WAT     H285728   2.666   9.680   8.354
28496WAT      O85729   5.484   0.607   3.619
28496WAT     H185730   5.563   0.634   3.674
28496WAT     H285731   5.484   0.659   3.533
28497WAT      O85732   6.219   4.572   1.071
28497WAT     H185733   6.171   4.658   1.051
28497WAT     H285734   6.174   4.497   1.022
28498WAT      O85735   2.192   2.867   2.291
28498WAT     H185736   2.167   2.820   2.207
28498WAT     H285737   2.114   2.869   2.353
28499WAT      O85738   1.114   4.991   6.356
28499WAT     H185739   1.049   4.917   6.369
28499WAT     H285740   1.094   5.065   6.421
28500WAT      O85741   8.194   3.742   8.976
28500WAT     H185742   8.183   3.836   9.008
28500WAT     H285743   8.291   3.722   8.964
28501WAT      O85744   9.360   4.260   9.794
28501WAT     H185745   9.419   4.299   9.724
28501WAT     H285746   9.388   4.293   9.884
28502WAT      O85747   2.688   9.579   3.707
28502WAT     H185748   2.680   9.513   3.632
28502WAT     H285749   2.749   9.542   3.777
28503WAT      O85750   3.134   5.446   0.157
28503WAT     H185751   3.142   5.383   0.080
28503WAT     H285752   3.052   5.424   0.210
28504WAT      O85753   6.630   2.619   8.578
28504WAT     H185754   6.710   2.662   8.619
28504WAT     H285755   6.622   2.525   8.611
28505WAT      O85756   5.192   8.041   6.934
28505WAT     H185757   5.281   7.996   6.926
28505WAT     H285758   5.205   8.139   6.950
28506WAT      O85759   1.135   9.212   7.501
28506WAT     H185760   1.095   9.220   7.410
28506WAT     H285761   1.065   9.228   7.570
28507WAT      O85762   1.551   3.531   2.073
28507WAT     H185763   1.615   3.502   2.002
28507WAT     H285764   1.529   3.453   2.133
28508WAT      O85765   3.659   3.439   0.434
28508WAT     H185766   3.578   3.382   0.421
28508WAT     H285767   3.667   3.504   0.358
28509WAT      O85768   3.450   8.997   5.443
28509WAT     H185769   3.507   8.922   5.411
28509WAT     H285770   3.390   9.027   5.369
28510WAT      O85771   8.379   4.107   2.026
28510WAT     H185772   8.440   4.132   2.102
28510WAT     H285773   8.288   4.086   2.062
28511WAT      O85774   8.755   5.391   9.707
28511WAT     H185775   8.745   5.474   9.653
28511WAT     H285776   8.705   5.400   9.793
28512WAT      O85777   5.180   6.007   6.942
28512WAT     H185778   5.117   5.952   6.888
28512WAT     H285779   5.230   5.948   7.005
28513WAT      O85780   5.579   8.814   2.688
28513WAT     H185781   5.484   8.826   2.659
28513WAT     H285782   5.637   8.879   2.640
28514WAT      O85783   1.579   1.137   1.791
28514WAT     H185784   1.535   1.161   1.877
28514WAT     H285785   1.510   1.136   1.718
28515WAT      O85786   9.698   9.612   4.922
28515WAT     H185787   9.712   9.514   4.936
28515WAT     H285788   9.614   9.641   4.967
28516WAT      O85789   7.690   8.486   3.585
28516WAT     H185790   7.762   8.555   3.582
28516WAT     H285791   7.608   8.522   3.540
28517WAT      O85792   6.067   9.124   3.218
28517WAT     H185793   6.019   9.195   3.167
28517WAT     H285794   6.001   9.060   3.257
28518WAT      O85795   5.220   5.570   1.102
28518WAT     H185796   5.282   5.579   1.024
28518WAT     H285797   5.161   5.490   1.089
28519WAT      O85798   6.535   1.606   2.997
28519WAT     H185799   6.533   1.591   2.898
28519WAT     H285800   6.495   1.694   3.018
28520WAT      O85801   5.675   9.218   0.414
28520WAT     H185802   5.664   9.122   0.442
28520WAT     H285803   5.766   9.231   0.375
28521WAT      O85804   5.299   3.282   4.487
28521WAT     H185805   5.209   3.255   4.519
28521WAT     H285806   5.366   3.213   4.513
28522WAT      O85807   7.174   0.346   4.681
28522WAT     H185808   7.269   0.323   4.659
28522WAT     H285809   7.157   0.442   4.657
28523WAT      O85810   9.224   7.522   2.504
28523WAT     H185811   9.285   7.467   2.561
28523WAT     H285812   9.179   7.592   2.560
28524WAT      O85813   2.817   6.396   4.533
28524WAT     H185814   2.768   6.483   4.542
28524WAT     H285815   2.821   6.352   4.623
28525WAT      O85816   1.355   4.973   7.763
28525WAT     H185817   1.392   4.882   7.779
28525WAT     H285818   1.343   5.020   7.850
28526WAT      O85819   0.577   5.912   0.599
28526WAT     H185820   0.538   5.828   0.637
28526WAT     H285821   0.613   5.893   0.507
28527WAT      O85822   1.814   1.183   4.308
28527WAT     H185823   1.812   1.187   4.208
28527WAT     H285824   1.824   1.087   4.337
28528WAT      O85825   4.893   4.921   6.279
28528WAT     H185826   4.896   4.861   6.199
28528WAT     H285827   4.834   4.881   6.349
28529WAT      O85828   3.496   1.119   7.372
28529WAT     H185829   3.551   1.196   7.402
28529WAT     H285830   3.505   1.107   7.273
28530WAT      O85831   4.791   2.652   8.003
28530WAT     H185832   4.868   2.691   7.953
28530WAT     H285833   4.783   2.697   8.092
28531WAT      O85834   8.574   4.094   8.339
28531WAT     H185835   8.530   4.013   8.377
28531WAT     H285836   8.625   4.141   8.411
28532WAT      O85837   4.750   2.170   4.268
28532WAT     H185838   4.832   2.150   4.322
28532WAT     H285839   4.746   2.108   4.190
28533WAT      O85840   3.093   7.712   8.832
28533WAT     H185841   3.114   7.776   8.905
28533WAT     H285842   2.999   7.727   8.800
28534WAT      O85843   1.581   4.456   5.612
28534WAT     H185844   1.577   4.526   5.541
28534WAT     H285845   1.529   4.486   5.692
28535WAT      O85846   1.450   1.412   1.898
28535WAT     H185847   1.369   1.436   1.953
28535WAT     H285848   1.525   1.473   1.921
28536WAT      O85849   5.172   6.700   9.800
28536WAT     H185850   5.099   6.732   9.740
28536WAT     H285851   5.232   6.638   9.750
28537WAT      O85852   2.386   7.750   5.653
28537WAT     H185853   2.426   7.842   5.646
28537WAT     H285854   2.286   7.758   5.652
28538WAT      O85855   4.264   1.217   1.106
28538WAT     H185856   4.340   1.274   1.138
28538WAT     H285857   4.291   1.169   1.023
28539WAT      O85858   7.638   8.047   0.451
28539WAT     H185859   7.723   7.994   0.454
28539WAT     H285860   7.605   8.051   0.356
28540WAT      O85861   7.295   2.411   4.837
28540WAT     H185862   7.198   2.392   4.856
28540WAT     H285863   7.340   2.328   4.805
28541WAT      O85864   2.029   8.409   5.287
28541WAT     H185865   2.066   8.346   5.220
28541WAT     H285866   2.075   8.498   5.279
28542WAT      O85867   3.750   6.375   7.255
28542WAT     H185868   3.655   6.405   7.255
28542WAT     H285869   3.772   6.332   7.343
28543WAT      O85870   6.515   7.023   3.282
28543WAT     H185871   6.448   7.044   3.352
28543WAT     H285872   6.507   7.088   3.207
28544WAT      O85873   4.262   5.278   2.450
28544WAT     H185874   4.244   5.282   2.548
28544WAT     H285875   4.197   5.215   2.407
28545WAT      O85876   8.987   1.248   4.082
28545WAT     H185877   8.891   1.275   4.080
28545WAT     H285878   9.013   1.225   4.176
28546WAT      O85879   7.013   0.786   1.902
28546WAT     H185880   7.014   0.865   1.839
28546WAT     H285881   6.923   0.779   1.944
28547WAT      O85882   4.899   8.154   8.917
28547WAT     H185883   4.885   8.185   9.011
28547WAT     H285884   4.986   8.107   8.909
28548WAT      O85885   0.438   0.963   5.796
28548WAT     H185886   0.508   0.892   5.801
28548WAT     H285887   0.383   0.951   5.713
28549WAT      O85888   2.399   7.881   8.855
28549WAT     H185889   2.491   7.919   8.846
28549WAT     H285890   2.336   7.953   8.884
28550WAT      O85891   8.160   3.929   0.051
28550WAT     H185892   8.138   3.837   0.018
28550WAT     H285893   8.111   3.997  -0.004
28551WAT      O85894   7.110   0.884   7.398
28551WAT     H185895   7.051   0.927   7.330
28551WAT     H285896   7.059   0.870   7.483
28552WAT      O85897   3.175   9.846   1.577
28552WAT     H185898   3.104   9.796   1.626
28552WAT     H285899   3.161   9.836   1.479
28553WAT      O85900   0.280   3.333   8.491
28553WAT     H185901   0.209   3.403   8.500
28553WAT     H285902   0.237   3.242   8.492
28554WAT      O85903   3.745   3.786   4.613
28554WAT     H185904   3.792   3.711   4.567
28554WAT     H285905   3.791   3.806   4.699
28555WAT      O85906   6.620   2.257   2.528
28555WAT     H185907   6.648   2.161   2.538
28555WAT     H285908   6.574   2.287   2.612
28556WAT      O85909   0.335   1.640   8.583
28556WAT     H185910   0.378   1.574   8.522
28556WAT     H285911   0.252   1.599   8.623
28557WAT      O85912   8.134   0.380   0.339
28557WAT     H185913   8.041   0.367   0.305
28557WAT     H285914   8.186   0.295   0.330
28558WAT      O85915   9.465   3.298   5.686
28558WAT     H185916   9.465   3.235   5.608
28558WAT     H285917   9.373   3.303   5.724
28559WAT      O85918   9.654   6.813   3.659
28559WAT     H185919   9.637   6.841   3.565
28559WAT     H285920   9.596   6.866   3.721
28560WAT      O85921   1.610   4.597   1.467
28560WAT     H185922   1.521   4.602   1.512
28560WAT     H285923   1.598   4.615   1.369
28561WAT      O85924   4.939   6.591   2.465
28561WAT     H185925   4.974   6.608   2.557
28561WAT     H285926   4.855   6.643   2.451
28562WAT      O85927   6.751   0.271   0.508
28562WAT     H185928   6.846   0.300   0.507
28562WAT     H285929   6.739   0.193   0.446
28563WAT      O85930   5.633   3.615   1.048
28563WAT     H185931   5.604   3.696   0.997
28563WAT     H285932   5.730   3.598   1.031
28564WAT      O85933   7.188   5.785   3.219
28564WAT     H185934   7.131   5.732   3.157
28564WAT     H285935   7.131   5.835   3.284
28565WAT      O85936   1.342   4.474   4.701
28565WAT     H185937   1.289   4.448   4.782
28565WAT     H285938   1.332   4.403   4.631
28566WAT      O85939   2.582   9.231   5.895
28566WAT     H185940   2.494   9.234   5.943
28566WAT     H285941   2.566   9.242   5.796
28567WAT      O85942   0.578   1.511   2.936
28567WAT     H185943   0.504   1.461   2.892
28567WAT     H285944   0.665   1.486   2.894
28568WAT      O85945   8.944   6.780   5.987
28568WAT     H185946   9.015   6.709   5.994
28568WAT     H285947   8.983   6.862   5.945
28569WAT      O85948   3.687   0.382   9.632
28569WAT     H185949   3.629   0.305   9.603
28569WAT     H285950   3.642   0.468   9.608
28570WAT      O85951   2.752   0.405   5.976
28570WAT     H185952   2.826   0.443   5.919
28570WAT     H285953   2.694   0.479   6.007
28571WAT      O85954   6.106   9.594   4.990
28571WAT     H185955   6.007   9.599   4.976
28571WAT     H285956   6.149   9.672   4.944
28572WAT      O85957   0.069   3.888   1.061
28572WAT     H185958   0.126   3.888   0.979
28572WAT     H285959   0.085   3.972   1.113
28573WAT      O85960   3.709   0.573   6.958
28573WAT     H185961   3.610   0.588   6.954
28573WAT     H285962   3.750   0.639   7.021
28574WAT      O85963   0.530   8.643   5.359
28574WAT     H185964   0.609   8.677   5.308
28574WAT     H285965   0.547   8.548   5.387
28575WAT      O85966   1.123   8.070   1.050
28575WAT     H185967   1.105   7.972   1.054
28575WAT     H285968   1.216   8.086   1.017
28576WAT      O85969   2.755   8.426   5.183
28576WAT     H185970   2.750   8.491   5.259
28576WAT     H285971   2.837   8.369   5.193
28577WAT      O85972   2.536   9.284   7.698
28577WAT     H185973   2.529   9.384   7.704
28577WAT     H285974   2.538   9.256   7.602
28578WAT      O85975   3.014   7.575   3.417
28578WAT     H185976   2.942   7.630   3.376
28578WAT     H285977   2.978   7.525   3.496
28579WAT      O85978   7.032   5.212   5.054
28579WAT     H185979   6.951   5.224   5.111
28579WAT     H285980   7.070   5.120   5.070
28580WAT      O85981   5.541   0.681   8.869
28580WAT     H185982   5.603   0.674   8.947
28580WAT     H285983   5.477   0.757   8.885
28581WAT      O85984   0.596   6.641   2.617
28581WAT     H185985   0.536   6.630   2.538
28581WAT     H285986   0.585   6.564   2.679
28582WAT      O85987   0.623   9.529   1.128
28582WAT     H185988   0.612   9.542   1.227
28582WAT     H285989   0.539   9.556   1.081
28583WAT      O85990   9.698   7.410   7.551
28583WAT     H185991   9.679   7.492   7.496
28583WAT     H285992   9.630   7.340   7.531
28584WAT      O85993   7.917   4.444   4.330
28584WAT     H185994   7.857   4.376   4.374
28584WAT     H285995   7.882   4.536   4.348
28585WAT      O85996   6.906   2.626   6.931
28585WAT     H185997   6.881   2.545   6.984
28585WAT     H285998   6.844   2.636   6.854
28586WAT      O85999   0.246   7.391   3.462
28586WAT     H186000   0.204   7.392   3.553
28586WAT     H286001   0.338   7.353   3.469
28587WAT      O86002   1.729   3.704   4.254
28587WAT     H186003   1.741   3.663   4.345
28587WAT     H286004   1.670   3.645   4.199
28588WAT      O86005   0.263   5.000   4.354
28588WAT     H186006   0.209   4.931   4.306
28588WAT     H286007   0.319   4.956   4.424
28589WAT      O86008   3.290   1.086   9.255
28589WAT     H186009   3.372   1.141   9.238
28589WAT     H286010   3.316   0.989   9.261
28590WAT      O86011   1.377   6.289   4.231
28590WAT     H186012   1.332   6.221   4.289
28590WAT     H286013   1.471   6.303   4.263
28591WAT      O86014   5.488   4.422   6.987
28591WAT     H186015   5.428   4.480   7.042
28591WAT     H286016   5.532   4.477   6.916
28592WAT      O86017   9.270   1.285   8.092
28592WAT     H186018   9.174   1.260   8.078
28592WAT     H286019   9.329   1.218   8.047
28593WAT      O86020   4.792   8.193   4.939
28593WAT     H186021   4.730   8.237   5.005
28593WAT     H286022   4.787   8.241   4.852
28594WAT      O86023   8.233   4.827   7.929
28594WAT     H186024   8.220   4.918   7.966
28594WAT     H286025   8.266   4.834   7.835
28595WAT      O86026   9.841   5.496   1.556
28595WAT     H186027   9.850   5.428   1.484
28595WAT     H286028   9.893   5.578   1.531
28596WAT      O86029   5.380   1.618   1.499
28596WAT     H186030   5.381   1.713   1.529
28596WAT     H286031   5.471   1.592   1.465
28597WAT      O86032   3.093   0.759   7.946
28597WAT     H186033   3.035   0.740   7.867
28597WAT     H286034   3.165   0.690   7.952
28598WAT      O86035   8.315   9.544   2.454
28598WAT     H186036   8.235   9.499   2.494
28598WAT     H286037   8.339   9.624   2.508
28599WAT      O86038   4.211   9.742   1.566
28599WAT     H186039   4.252   9.802   1.497
28599WAT     H286040   4.160   9.669   1.519
28600WAT      O86041   0.311   8.669   3.087
28600WAT     H186042   0.367   8.668   3.170
28600WAT     H286043   0.240   8.599   3.093
28601WAT      O86044   5.994   8.478   9.560
28601WAT     H186045   5.981   8.480   9.660
28601WAT     H286046   5.976   8.569   9.522
28602WAT      O86047   8.038   5.064   4.835
28602WAT     H186048   8.023   5.111   4.922
28602WAT     H286049   8.046   4.966   4.851
28603WAT      O86050   0.923   1.617   5.491
28603WAT     H186051   0.859   1.579   5.424
28603WAT     H286052   0.905   1.578   5.581
28604WAT      O86053   7.605   5.946   5.345
28604WAT     H186054   7.664   5.990   5.413
28604WAT     H286055   7.622   5.848   5.344
28605WAT      O86056   9.382   7.107   2.511
28605WAT     H186057   9.357   7.075   2.420
28605WAT     H286058   9.442   7.041   2.555
28606WAT      O86059   4.645   1.605   5.684
28606WAT     H186060   4.736   1.634   5.655
28606WAT     H286061   4.587   1.590   5.604
28607WAT      O86062   7.775   3.895   2.465
28607WAT     H186063   7.860   3.934   2.502
28607WAT     H286064   7.785   3.881   2.367
28608WAT      O86065   7.095   7.054   2.792
28608WAT     H186066   7.151   7.082   2.869
28608WAT     H286067   7.150   7.053   2.708
28609WAT      O86068   3.202   0.372   9.560
28609WAT     H186069   3.112   0.344   9.528
28609WAT     H286070   3.206   0.365   9.660
28610WAT      O86071   4.947   1.868   4.052
28610WAT     H186072   4.948   1.840   4.148
28610WAT     H286073   5.031   1.917   4.031
28611WAT      O86074   8.468   7.545   3.845
28611WAT     H186075   8.518   7.631   3.841
28611WAT     H286076   8.524   7.476   3.889
28612WAT      O86077   2.866   4.173   8.843
28612WAT     H186078   2.828   4.130   8.760
28612WAT     H286079   2.900   4.101   8.904
28613WAT      O86080   5.318   3.517   6.013
28613WAT     H186081   5.293   3.484   6.104
28613WAT     H286082   5.345   3.440   5.955
28614WAT      O86083   0.366   7.163   2.207
28614WAT     H186084   0.452   7.201   2.241
28614WAT     H286085   0.382   7.119   2.118
28615WAT      O86086   1.017   1.515   9.343
28615WAT     H186087   1.114   1.494   9.330
28615WAT     H286088   0.963   1.458   9.281
28616WAT      O86089   5.164   0.717   3.302
28616WAT     H186090   5.187   0.670   3.388
28616WAT     H286091   5.200   0.810   3.304
28617WAT      O86092   8.530   1.452   1.187
28617WAT     H186093   8.537   1.447   1.087
28617WAT     H286094   8.434   1.442   1.214
28618WAT      O86095   5.853   5.600   4.482
28618WAT     H186096   5.837   5.596   4.580
28618WAT     H286097   5.950   5.616   4.465
28619WAT      O86098   7.048   2.247   2.149
28619WAT     H186099   7.046   2.264   2.248
28619WAT     H286100   7.101   2.164   2.131
28620WAT      O86101   4.592   1.105   4.049
28620WAT     H186102   4.503   1.150   4.045
28620WAT     H286103   4.584   1.013   4.009
28621WAT      O86104   0.936   7.625   7.003
28621WAT     H186105   1.016   7.685   7.007
28621WAT     H286106   0.964   7.531   7.022
28622WAT      O86107   4.004   1.336   8.356
28622WAT     H186108   4.097   1.304   8.372
28622WAT     H286109   3.948   1.320   8.437
28623WAT      O86110   9.809   7.470   3.371
28623WAT     H186111   9.842   7.376   3.364
28623WAT     H286112   9.826   7.504   3.464
28624WAT      O86113   9.355   1.343   6.168
28624WAT     H186114   9.355   1.252   6.128
28624WAT     H286115   9.448   1.371   6.189
28625WAT      O86116   6.023   5.193   0.831
28625WAT     H186117   6.010   5.211   0.929
28625WAT     H286118   6.120   5.204   0.808
28626WAT      O86119   4.617   1.783   2.482
28626WAT     H186120   4.589   1.878   2.497
28626WAT     H286121   4.551   1.721   2.524
28627WAT      O86122   3.305   8.234   0.516
28627WAT     H186123   3.321   8.254   0.612
28627WAT     H286124   3.248   8.152   0.508
28628WAT      O86125   7.266   0.976   6.160
28628WAT     H186126   7.283   1.036   6.238
28628WAT     H286127   7.335   0.993   6.090
28629WAT      O86128   3.232   2.521   2.435
28629WAT     H186129   3.220   2.496   2.339
28629WAT     H286130   3.149   2.565   2.469
28630WAT      O86131   2.101   1.352   7.666
28630WAT     H186132   2.119   1.450   7.671
28630WAT     H286133   2.187   1.302   7.671
28631WAT      O86134   9.066   4.946   4.013
28631WAT     H186135   8.979   4.942   4.061
28631WAT     H286136   9.128   5.007   4.062
28632WAT      O86137   7.567   1.767   1.461
28632WAT     H186138   7.516   1.844   1.500
28632WAT     H286139   7.643   1.743   1.522
28633WAT      O86140   7.205   8.465   3.840
28633WAT     H186141   7.191   8.403   3.917
28633WAT     H286142   7.118   8.481   3.794
28634WAT      O86143   2.242   7.900   9.791
28634WAT     H186144   2.265   7.807   9.821
28634WAT     H286145   2.318   7.936   9.737
28635WAT      O86146   3.336   6.765   3.664
28635WAT     H186147   3.379   6.832   3.725
28635WAT     H286148   3.290   6.814   3.590
28636WAT      O86149   0.400   2.810   3.355
28636WAT     H186150   0.487   2.775   3.389
28636WAT     H286151   0.330   2.739   3.365
28637WAT      O86152   8.047   6.648   7.743
28637WAT     H186153   7.955   6.684   7.734
28637WAT     H286154   8.086   6.675   7.831
28638WAT      O86155   4.912   3.492   4.691
28638WAT     H186156   4.918   3.496   4.791
28638WAT     H286157   4.993   3.446   4.655
28639WAT      O86158   8.870   6.801   5.587
28639WAT     H186159   8.843   6.813   5.682
28639WAT     H286160   8.969   6.799   5.580
28640WAT      O86161   0.517   5.189   3.608
28640WAT     H186162   0.426   5.166   3.573
28640WAT     H286163   0.578   5.208   3.531
28641WAT      O86164   2.729   2.809   8.210
28641WAT     H186165   2.777   2.724   8.230
28641WAT     H286166   2.639   2.789   8.172
28642WAT      O86167   6.443   2.198   5.177
28642WAT     H186168   6.516   2.259   5.210
28642WAT     H286169   6.399   2.153   5.255
28643WAT      O86170   3.870   9.395   3.233
28643WAT     H186171   3.951   9.391   3.175
28643WAT     H286172   3.800   9.451   3.189
28644WAT      O86173   9.656   5.858   7.391
28644WAT     H186174   9.646   5.890   7.297
28644WAT     H286175   9.612   5.768   7.401
28645WAT      O86176   4.317   8.817   7.541
28645WAT     H186177   4.283   8.738   7.593
28645WAT     H286178   4.282   8.814   7.448
28646WAT      O86179   4.263   1.043   5.377
28646WAT     H186180   4.362   1.058   5.388
28646WAT     H286181   4.221   1.126   5.343
28647WAT      O86182   0.643   6.299   1.173
28647WAT     H186183   0.701   6.349   1.238
28647WAT     H286184   0.654   6.338   1.082
28648WAT      O86185   2.369   3.563   3.067
28648WAT     H186186   2.286   3.522   3.029
28648WAT     H286187   2.345   3.616   3.149
28649WAT      O86188   2.747   0.529   4.765
28649WAT     H186189   2.725   0.595   4.837
28649WAT     H286190   2.673   0.527   4.698
28650WAT      O86191   0.883   3.477   2.661
28650WAT     H186192   0.980   3.476   2.638
28650WAT     H286193   0.864   3.553   2.722
28651WAT      O86194   1.286   5.323   4.183
28651WAT     H186195   1.346   5.402   4.186
28651WAT     H286196   1.334   5.246   4.140
28652WAT      O86197   3.886   2.005   5.338
28652WAT     H186198   3.908   1.954   5.256
28652WAT     H286199   3.796   1.977   5.373
28653WAT      O86200   1.493   8.851   8.420
28653WAT     H186201   1.501   8.829   8.518
28653WAT     H286202   1.469   8.948   8.410
28654WAT      O86203   2.355   3.835   9.087
28654WAT     H186204   2.386   3.843   9.182
28654WAT     H286205   2.263   3.873   9.079
28655WAT      O86206   7.767   4.399   4.944
28655WAT     H186207   7.751   4.309   4.984
28655WAT     H286208   7.812   4.389   4.855
28656WAT      O86209   2.447   6.135   6.619
28656WAT     H186210   2.537   6.094   6.605
28656WAT     H286211   2.429   6.141   6.717
28657WAT      O86212   0.559   5.672   8.947
28657WAT     H186213   0.466   5.653   8.978
28657WAT     H286214   0.613   5.588   8.950
28658WAT      O86215   6.530   2.380   7.887
28658WAT     H186216   6.614   2.344   7.927
28658WAT     H286217   6.527   2.357   7.789
28659WAT      O86218   8.308   3.036   3.294
28659WAT     H186219   8.318   2.949   3.343
28659WAT     H286220   8.223   3.035   3.241
28660WAT      O86221   8.184   2.917   7.648
28660WAT     H186222   8.282   2.907   7.670
28660WAT     H286223   8.174   2.946   7.553
28661WAT      O86224   7.293   8.862   6.641
28661WAT     H186225   7.263   8.956   6.658
28661WAT     H286226   7.253   8.802   6.710
28662WAT      O86227   1.462   5.035   0.016
28662WAT     H186228   1.441   5.072  -0.075
28662WAT     H286229   1.452   5.108   0.084
28663WAT      O86230   7.475   6.237   3.936
28663WAT     H186231   7.519   6.250   4.025
28663WAT     H286232   7.384   6.279   3.937
28664WAT      O86233   3.185   7.010   1.545
28664WAT     H186234   3.124   6.940   1.584
28664WAT     H286235   3.276   7.001   1.586
28665WAT      O86236   3.122   7.825   5.463
28665WAT     H186237   3.026   7.829   5.492
28665WAT     H286238   3.127   7.834   5.364
28666WAT      O86239   1.045   0.071   8.597
28666WAT     H186240   0.986   0.046   8.673
28666WAT     H286241   0.991   0.077   8.513
28667WAT      O86242   6.888   6.900   9.069
28667WAT     H186243   6.895   6.835   8.993
28667WAT     H286244   6.960   6.968   9.062
28668WAT      O86245   6.229   7.884   8.602
28668WAT     H186246   6.161   7.851   8.536
28668WAT     H286247   6.264   7.806   8.655
28669WAT      O86248   9.719   4.340   1.291
28669WAT     H186249   9.710   4.329   1.192
28669WAT     H286250   9.816   4.344   1.316
28670WAT      O86251   4.485   0.102   9.044
28670WAT     H186252   4.522   0.037   8.978
28670WAT     H286253   4.550   0.177   9.058
28671WAT      O86254   9.710   8.966   1.069
28671WAT     H186255   9.635   9.003   1.124
28671WAT     H286256   9.693   8.870   1.050
28672WAT      O86257   9.499   0.547   8.208
28672WAT     H186258   9.485   0.635   8.162
28672WAT     H286259   9.568   0.558   8.279
28673WAT      O86260   0.209   8.956   4.342
28673WAT     H186261   0.158   9.039   4.366
28673WAT     H286262   0.237   8.960   4.246
28674WAT      O86263   1.856   3.131   0.847
28674WAT     H186264   1.779   3.157   0.906
28674WAT     H286265   1.903   3.213   0.814
28675WAT      O86266   9.787   0.800   7.397
28675WAT     H186267   9.855   0.833   7.331
28675WAT     H286268   9.697   0.797   7.353
28676WAT      O86269   7.036   6.302   2.428
28676WAT     H186270   7.048   6.339   2.336
28676WAT     H286271   7.125   6.292   2.472
28677WAT      O86272   8.169   4.570   7.573
28677WAT     H186273   8.214   4.498   7.625
28677WAT     H286274   8.078   4.586   7.610
28678WAT      O86275   0.777   7.645   3.179
28678WAT     H186276   0.720   7.727   3.181
28678WAT     H286277   0.873   7.672   3.175
28679WAT      O86278   5.649   7.473   3.399
28679WAT     H186279   5.732   7.454   3.452
28679WAT     H286280   5.602   7.552   3.439
28680WAT      O86281   6.160   3.709   9.014
28680WAT     H186282   6.112   3.743   8.933
28680WAT     H286283   6.118   3.747   9.097
28681WAT      O86284   1.558   1.921   1.337
28681WAT     H186285   1.487   1.924   1.407
28681WAT     H286286   1.617   2.001   1.345
28682WAT      O86287   5.516   6.583   5.513
28682WAT     H186288   5.536   6.535   5.598
28682WAT     H286289   5.487   6.518   5.443
28683WAT      O86290   6.564   3.732   5.214
28683WAT     H186291   6.579   3.644   5.171
28683WAT     H286292   6.500   3.722   5.290
28684WAT      O86293   7.042   3.422   3.803
28684WAT     H186294   6.988   3.403   3.885
28684WAT     H286295   7.135   3.388   3.816
28685WAT      O86296   8.707   5.443   7.489
28685WAT     H186297   8.744   5.362   7.536
28685WAT     H286298   8.700   5.518   7.555
28686WAT      O86299   0.777   6.231   6.320
28686WAT     H186300   0.863   6.273   6.288
28686WAT     H286301   0.790   6.196   6.412
28687WAT      O86302   5.845   1.440   3.450
28687WAT     H186303   5.936   1.429   3.490
28687WAT     H286304   5.846   1.404   3.356
28688WAT      O86305   9.331   3.789   9.115
28688WAT     H186306   9.411   3.829   9.161
28688WAT     H286307   9.353   3.697   9.084
28689WAT      O86308   8.362   7.660   1.359
28689WAT     H186309   8.459   7.681   1.357
28689WAT     H286310   8.321   7.679   1.270
28690WAT      O86311   7.212   5.596   4.763
28690WAT     H186312   7.148   5.619   4.689
28690WAT     H286313   7.298   5.645   4.749
28691WAT      O86314   8.424   5.467   1.607
28691WAT     H186315   8.394   5.540   1.546
28691WAT     H286316   8.406   5.493   1.701
28692WAT      O86317   3.400   3.815   4.336
28692WAT     H186318   3.311   3.774   4.315
28692WAT     H286319   3.419   3.803   4.434
28693WAT      O86320   1.456   9.349   5.431
28693WAT     H186321   1.482   9.374   5.524
28693WAT     H286322   1.447   9.432   5.376
28694WAT      O86323   7.713   8.582   2.420
28694WAT     H186324   7.695   8.679   2.406
28694WAT     H286325   7.809   8.569   2.446
28695WAT      O86326   4.980   9.788   3.808
28695WAT     H186327   4.972   9.871   3.753
28695WAT     H286328   5.073   9.751   3.800
28696WAT      O86329   3.704   0.229   1.617
28696WAT     H186330   3.790   0.188   1.585
28696WAT     H286331   3.627   0.173   1.586
28697WAT      O86332   5.832   3.624   3.394
28697WAT     H186333   5.837   3.638   3.295
28697WAT     H286334   5.863   3.707   3.440
28698WAT      O86335   0.441   6.707   4.603
28698WAT     H186336   0.460   6.806   4.605
28698WAT     H286337   0.471   6.667   4.690
28699WAT      O86338   6.186   8.242   3.408
28699WAT     H186339   6.283   8.255   3.387
28699WAT     H286340   6.177   8.186   3.491
28700WAT      O86341   2.659   5.793   4.384
28700WAT     H186342   2.587   5.860   4.406
28700WAT     H286343   2.663   5.725   4.457
28701WAT      O86344   3.195   7.595   2.228
28701WAT     H186345   3.233   7.678   2.270
28701WAT     H286346   3.096   7.592   2.244
28702WAT      O86347   0.639   2.655   0.204
28702WAT     H186348   0.680   2.710   0.276
28702WAT     H286349   0.551   2.618   0.235
28703WAT      O86350   4.071   1.699   1.747
28703WAT     H186351   4.158   1.661   1.778
28703WAT     H286352   4.037   1.645   1.670
28704WAT      O86353   5.138   3.544   5.653
28704WAT     H186354   5.069   3.479   5.620
28704WAT     H286355   5.120   3.634   5.614
28705WAT      O86356   6.835   4.009   0.851
28705WAT     H186357   6.793   3.991   0.762
28705WAT     H286358   6.777   4.071   0.904
28706WAT      O86359   3.341   7.948   4.927
28706WAT     H186360   3.342   7.856   4.966
28706WAT     H286361   3.262   7.956   4.865
28707WAT      O86362   8.134   8.134   3.543
28707WAT     H186363   8.148   8.203   3.471
28707WAT     H286364   8.221   8.116   3.589
28708WAT      O86365   1.523   6.639   4.505
28708WAT     H186366   1.456   6.714   4.504
28708WAT     H286367   1.614   6.676   4.520
28709WAT      O86368   5.723   5.770   5.749
28709WAT     H186369   5.754   5.698   5.688
28709WAT     H286370   5.728   5.858   5.703
28710WAT      O86371   9.161   1.498   7.656
28710WAT     H186372   9.083   1.558   7.641
28710WAT     H286373   9.143   1.408   7.616
28711WAT      O86374   7.630   9.135   0.855
28711WAT     H186375   7.664   9.198   0.925
28711WAT     H286376   7.530   9.140   0.851
28712WAT      O86377   2.898   3.075   2.118
28712WAT     H186378   2.982   3.058   2.171
28712WAT     H286379   2.907   3.032   2.028
28713WAT      O86380   2.664   6.032   2.456
28713WAT     H186381   2.708   6.014   2.368
28713WAT     H286382   2.734   6.060   2.523
28714WAT      O86383   9.151   6.608   5.958
28714WAT     H186384   9.174   6.551   5.879
28714WAT     H286385   9.160   6.554   6.042
28715WAT      O86386   4.234   1.191   5.875
28715WAT     H186387   4.218   1.095   5.898
28715WAT     H286388   4.278   1.197   5.785
28716WAT      O86389   2.339   5.186   6.485
28716WAT     H186390   2.413   5.154   6.427
28716WAT     H286391   2.294   5.264   6.440
28717WAT      O86392   5.106   5.755   7.327
28717WAT     H186393   5.078   5.659   7.321
28717WAT     H286394   5.025   5.814   7.320
28718WAT      O86395   5.233   3.160   1.929
28718WAT     H186396   5.240   3.060   1.931
28718WAT     H286397   5.138   3.187   1.942
28719WAT      O86398   2.224   9.457   7.125
28719WAT     H186399   2.198   9.519   7.051
28719WAT     H286400   2.141   9.417   7.165
28720WAT      O86401   7.715   9.090   3.260
28720WAT     H186402   7.647   9.159   3.286
28720WAT     H286403   7.756   9.115   3.172
28721WAT      O86404   0.037   5.002   5.878
28721WAT     H186405   0.024   5.008   5.977
28721WAT     H286406   0.001   4.914   5.845
28722WAT      O86407   0.395   6.500   8.192
28722WAT     H186408   0.307   6.456   8.212
28722WAT     H286409   0.384   6.600   8.195
28723WAT      O86410   5.337   1.048   8.347
28723WAT     H186411   5.344   1.147   8.333
28723WAT     H286412   5.384   1.023   8.432
28724WAT      O86413   9.521   0.798   5.883
28724WAT     H186414   9.552   0.873   5.941
28724WAT     H286415   9.599   0.740   5.858
28725WAT      O86416   9.041   0.914   4.311
28725WAT     H186417   9.103   0.884   4.383
28725WAT     H286418   9.032   1.014   4.314
28726WAT      O86419   3.086   0.854   0.441
28726WAT     H186420   3.128   0.855   0.350
28726WAT     H286421   2.997   0.900   0.438
28727WAT      O86422   6.620   6.078   8.018
28727WAT     H186423   6.525   6.095   8.044
28727WAT     H286424   6.657   6.160   7.974
28728WAT      O86425   4.685   5.876   9.130
28728WAT     H186426   4.709   5.953   9.071
28728WAT     H286427   4.685   5.792   9.077
28729WAT      O86428   9.722   5.972   5.856
28729WAT     H186429   9.660   5.921   5.916
28729WAT     H286430   9.680   6.060   5.831
28730WAT      O86431   2.276   0.678   5.629
28730WAT     H186432   2.243   0.585   5.643
28730WAT     H286433   2.367   0.688   5.670
28731WAT      O86434   2.288   4.700   3.212
28731WAT     H186435   2.301   4.646   3.295
28731WAT     H286436   2.261   4.639   3.137
28732WAT      O86437   3.547   4.770   5.020
28732WAT     H186438   3.521   4.820   4.938
28732WAT     H286439   3.464   4.748   5.072
28733WAT      O86440   0.987   6.551   6.884
28733WAT     H186441   1.009   6.642   6.848
28733WAT     H286442   0.903   6.518   6.842
28734WAT      O86443   9.031   9.272   5.842
28734WAT     H186444   8.972   9.242   5.917
28734WAT     H286445   8.980   9.268   5.756
28735WAT      O86446   2.081   1.230   6.702
28735WAT     H186447   2.033   1.242   6.616
28735WAT     H286448   2.155   1.297   6.709
28736WAT      O86449   5.268   8.536   7.349
28736WAT     H186450   5.294   8.632   7.336
28736WAT     H286451   5.267   8.514   7.446
28737WAT      O86452   0.304   8.915   8.600
28737WAT     H186453   0.386   8.967   8.622
28737WAT     H286454   0.321   8.818   8.614
28738WAT      O86455   0.197   4.218   0.796
28738WAT     H186456   0.152   4.257   0.876
28738WAT     H286457   0.162   4.263   0.713
28739WAT      O86458   5.414   5.078   3.102
28739WAT     H186459   5.404   5.170   3.064
28739WAT     H286460   5.341   5.063   3.169
28740WAT      O86461   6.511   1.700   5.297
28740WAT     H186462   6.460   1.645   5.364
28740WAT     H286463   6.475   1.683   5.206
28741WAT      O86464   2.742   5.870   3.560
28741WAT     H186465   2.804   5.921   3.620
28741WAT     H286466   2.700   5.932   3.495
28742WAT      O86467   9.574   8.065   1.189
28742WAT     H186468   9.664   8.085   1.149
28742WAT     H286469   9.522   8.149   1.199
28743WAT      O86470   4.700   1.327   2.692
28743WAT     H186471   4.696   1.423   2.665
28743WAT     H286472   4.607   1.290   2.698
28744WAT      O86473   1.761   4.522   6.888
28744WAT     H186474   1.698   4.457   6.930
28744WAT     H286475   1.809   4.477   6.812
28745WAT      O86476   7.989   1.435   4.234
28745WAT     H186477   8.000   1.427   4.333
28745WAT     H286478   7.891   1.447   4.213
28746WAT      O86479   4.950   4.216   5.698
28746WAT     H186480   4.900   4.159   5.763
28746WAT     H286481   4.896   4.225   5.614
28747WAT      O86482   0.139   1.684   2.867
28747WAT     H186483   0.188   1.715   2.949
28747WAT     H286484   0.179   1.726   2.786
28748WAT      O86485   5.414   3.664   5.023
28748WAT     H186486   5.425   3.708   5.112
28748WAT     H286487   5.318   3.660   4.999
28749WAT      O86488   7.505   9.107   1.791
28749WAT     H186489   7.465   9.116   1.699
28749WAT     H286490   7.595   9.150   1.792
28750WAT      O86491   0.753   7.235   9.429
28750WAT     H186492   0.765   7.142   9.465
28750WAT     H286493   0.656   7.256   9.423
28751WAT      O86494   4.624   3.923   5.101
28751WAT     H186495   4.602   3.962   5.011
28751WAT     H286496   4.628   3.823   5.094
28752WAT      O86497   7.506   9.353   8.882
28752WAT     H186498   7.566   9.430   8.862
28752WAT     H286499   7.559   9.278   8.921
28753WAT      O86500   4.432   7.817   0.911
28753WAT     H186501   4.357   7.859   0.962
28753WAT     H286502   4.491   7.888   0.873
28754WAT      O86503   5.615   2.011   4.873
28754WAT     H186504   5.535   1.966   4.835
28754WAT     H286505   5.652   1.958   4.949
28755WAT      O86506   8.581   6.074   5.103
28755WAT     H186507   8.517   6.091   5.028
28755WAT     H286508   8.551   6.124   5.184
28756WAT      O86509   5.707   2.253   4.859
28756WAT     H186510   5.765   2.259   4.940
28756WAT     H286511   5.664   2.163   4.856
28757WAT      O86512   7.989   6.432   2.680
28757WAT     H186513   8.073   6.476   2.712
28757WAT     H286514   7.961   6.361   2.745
28758WAT      O86515   0.274   4.446   3.132
28758WAT     H186516   0.295   4.378   3.202
28758WAT     H286517   0.240   4.529   3.175
28759WAT      O86518   0.457   1.440   0.937
28759WAT     H186519   0.546   1.396   0.947
28759WAT     H286520   0.400   1.418   1.016
28760WAT      O86521   8.670   1.109   8.082
28760WAT     H186522   8.726   1.148   8.009
28760WAT     H286523   8.615   1.034   8.046
28761WAT      O86524   5.722   0.562   1.465
28761WAT     H186525   5.805   0.617   1.458
28761WAT     H286526   5.693   0.535   1.373
28762WAT      O86527   7.030   8.030   7.089
28762WAT     H186528   7.033   8.113   7.145
28762WAT     H286529   7.046   7.950   7.146
28763WAT      O86530   4.594   6.563   6.163
28763WAT     H186531   4.586   6.505   6.245
28763WAT     H286532   4.504   6.597   6.137
28764WAT      O86533   2.539   9.407   8.404
28764WAT     H186534   2.516   9.490   8.353
28764WAT     H286535   2.589   9.344   8.345
28765WAT      O86536   4.288   4.560   5.414
28765WAT     H186537   4.219   4.583   5.345
28765WAT     H286538   4.375   4.538   5.368
28766WAT      O86539   8.515   1.202   1.926
28766WAT     H186540   8.529   1.297   1.897
28766WAT     H286541   8.536   1.141   1.850
28767WAT      O86542   6.863   2.765   8.394
28767WAT     H186543   6.865   2.863   8.376
28767WAT     H286544   6.866   2.749   8.493
28768WAT      O86545   0.315   0.242   3.858
28768WAT     H186546   0.313   0.318   3.793
28768WAT     H286547   0.297   0.156   3.811
28769WAT      O86548   3.738   4.913   5.156
28769WAT     H186549   3.753   5.004   5.118
28769WAT     H286550   3.661   4.870   5.110
28770WAT      O86551   3.366   2.766   6.851
28770WAT     H186552   3.309   2.770   6.768
28770WAT     H286553   3.410   2.676   6.857
28771WAT      O86554   6.834   4.156   5.528
28771WAT     H186555   6.883   4.243   5.520
28771WAT     H286556   6.736   4.171   5.514
28772WAT      O86557   0.230   7.132   4.161
28772WAT     H186558   0.283   7.213   4.186
28772WAT     H286559   0.239   7.063   4.233
28773WAT      O86560   7.086   3.709   3.302
28773WAT     H186561   7.060   3.784   3.363
28773WAT     H286562   7.021   3.634   3.312
28774WAT      O86563   7.193   7.652   6.795
28774WAT     H186564   7.288   7.642   6.763
28774WAT     H286565   7.152   7.731   6.750
28775WAT      O86566   2.927   6.433   0.958
28775WAT     H186567   2.877   6.395   1.036
28775WAT     H286568   2.897   6.388   0.874
28776WAT      O86569   6.317   4.622   4.678
28776WAT     H186570   6.392   4.572   4.635
28776WAT     H286571   6.314   4.602   4.776
28777WAT      O86572   2.713   2.804   7.329
28777WAT     H186573   2.699   2.705   7.330
28777WAT     H286574   2.684   2.843   7.416
28778WAT      O86575   7.949   0.129   1.153
28778WAT     H186576   7.949   0.229   1.150
28778WAT     H286577   7.900   0.098   1.234
28779WAT      O86578   2.029   3.352   1.661
28779WAT     H186579   1.981   3.281   1.713
28779WAT     H286580   2.084   3.408   1.724
28780WAT      O86581   8.957   7.051   9.802
28780WAT     H186582   8.971   6.961   9.843
28780WAT     H286583   9.021   7.116   9.843
28781WAT      O86584   0.963   7.956   7.203
28781WAT     H186585   0.900   8.030   7.178
28781WAT     H286586   1.053   7.975   7.166
28782WAT      O86587   8.623   0.255   3.151
28782WAT     H186588   8.565   0.331   3.123
28782WAT     H286589   8.571   0.193   3.211
28783WAT      O86590   7.277   0.127   0.635
28783WAT     H186591   7.292   0.072   0.553
28783WAT     H286592   7.336   0.094   0.708
28784WAT      O86593   8.548   6.645   3.625
28784WAT     H186594   8.622   6.708   3.601
28784WAT     H286595   8.532   6.649   3.723
28785WAT      O86596   6.610   7.794   7.648
28785WAT     H186597   6.658   7.709   7.629
28785WAT     H286598   6.635   7.862   7.579
28786WAT      O86599   0.159   3.740   2.270
28786WAT     H186600   0.073   3.727   2.221
28786WAT     H286601   0.217   3.659   2.258
28787WAT      O86602   3.342   2.260   0.608
28787WAT     H186603   3.302   2.351   0.606
28787WAT     H286604   3.442   2.268   0.613
28788WAT      O86605   3.572   8.510   4.694
28788WAT     H186606   3.546   8.443   4.763
28788WAT     H286607   3.659   8.483   4.653
28789WAT      O86608   7.812   6.726   9.855
28789WAT     H186609   7.879   6.729   9.930
28789WAT     H286610   7.752   6.647   9.867
28790WAT      O86611   0.259   1.875   0.036
28790WAT     H186612   0.189   1.932   0.078
28790WAT     H286613   0.348   1.895   0.078
28791WAT      O86614   8.039   9.437   0.862
28791WAT     H186615   8.047   9.464   0.957
28791WAT     H286616   8.068   9.512   0.803
28792WAT      O86617   2.585   2.912   2.783
28792WAT     H186618   2.652   2.842   2.760
28792WAT     H286619   2.632   2.999   2.801
28793WAT      O86620   4.156   3.019   6.563
28793WAT     H186621   4.070   2.984   6.598
28793WAT     H286622   4.148   3.037   6.465
28794WAT      O86623   6.618   8.079   1.433
28794WAT     H186624   6.686   8.042   1.496
28794WAT     H286625   6.559   8.143   1.481
28795WAT      O86626   0.784   6.030   9.382
28795WAT     H186627   0.717   6.098   9.351
28795WAT     H286628   0.868   6.077   9.411
28796WAT      O86629   6.619   8.468   2.500
28796WAT     H186630   6.541   8.473   2.562
28796WAT     H286631   6.622   8.550   2.444
28797WAT      O86632   8.077   6.661   4.883
28797WAT     H186633   8.177   6.668   4.893
28797WAT     H286634   8.055   6.578   4.831
28798WAT      O86635   4.697   2.504   0.252
28798WAT     H186636   4.661   2.528   0.343
28798WAT     H286637   4.644   2.429   0.215
28799WAT      O86638   8.962   6.474   4.330
28799WAT     H186639   9.038   6.436   4.382
28799WAT     H286640   8.893   6.402   4.315
28800WAT      O86641   1.053   3.335   1.548
28800WAT     H186642   1.051   3.278   1.630
28800WAT     H286643   0.973   3.395   1.548
28801WAT      O86644   4.644   3.057   3.083
28801WAT     H186645   4.545   3.057   3.077
28801WAT     H286646   4.676   3.147   3.113
28802WAT      O86647   2.491   7.962   6.872
28802WAT     H186648   2.563   7.988   6.807
28802WAT     H286649   2.469   7.865   6.860
28803WAT      O86650   6.777   6.885   1.232
28803WAT     H186651   6.734   6.827   1.163
28803WAT     H286652   6.734   6.869   1.321
28804WAT      O86653   2.130   4.372   8.024
28804WAT     H186654   2.222   4.334   8.015
28804WAT     H286655   2.117   4.442   7.954
28805WAT      O86656   8.356   5.153   8.454
28805WAT     H186657   8.404   5.201   8.381
28805WAT     H286658   8.370   5.202   8.541
28806WAT      O86659   2.285   5.178   7.251
28806WAT     H186660   2.362   5.223   7.296
28806WAT     H286661   2.310   5.154   7.158
28807WAT      O86662   4.380   3.111   0.976
28807WAT     H186663   4.358   3.195   1.027
28807WAT     H286664   4.478   3.107   0.960
28808WAT      O86665   2.600   3.162   0.010
28808WAT     H186666   2.644   3.236   0.061
28808WAT     H286667   2.515   3.136   0.055
28809WAT      O86668   6.222   4.532   4.052
28809WAT     H186669   6.149   4.492   3.995
28809WAT     H286670   6.256   4.615   4.008
28810WAT      O86671   1.555   3.868   3.670
28810WAT     H186672   1.589   3.848   3.578
28810WAT     H286673   1.455   3.880   3.666
28811WAT      O86674   6.339   0.720   5.207
28811WAT     H186675   6.340   0.818   5.189
28811WAT     H286676   6.246   0.684   5.193
28812WAT      O86677   3.623   9.162   2.942
28812WAT     H186678   3.579   9.239   2.990
28812WAT     H286679   3.594   9.162   2.847
28813WAT      O86680   3.548   8.425   2.690
28813WAT     H186681   3.457   8.466   2.690
28813WAT     H286682   3.539   8.325   2.697
28814WAT      O86683   7.573   6.851   8.896
28814WAT     H186684   7.609   6.832   8.805
28814WAT     H286685   7.615   6.934   8.932
28815WAT      O86686   3.275   4.054   2.097
28815WAT     H186687   3.215   3.976   2.113
28815WAT     H286688   3.305   4.091   2.185
28816WAT      O86689   9.832   1.704   0.650
28816WAT     H186690   9.756   1.647   0.680
28816WAT     H286691   9.875   1.747   0.729
28817WAT      O86692   5.180   9.677   3.588
28817WAT     H186693   5.167   9.595   3.645
28817WAT     H286694   5.226   9.748   3.641
28818WAT      O86695   2.421   8.021   2.021
28818WAT     H186696   2.376   7.996   1.934
28818WAT     H286697   2.518   7.997   2.017
28819WAT      O86698   2.765   9.081   4.691
28819WAT     H186699   2.735   9.019   4.619
28819WAT     H286700   2.687   9.104   4.750
28820WAT      O86701   6.318   2.189   9.859
28820WAT     H186702   6.401   2.163   9.809
28820WAT     H286703   6.303   2.125   9.934
28821WAT      O86704   6.883   7.399   8.903
28821WAT     H186705   6.869   7.324   8.838
28821WAT     H286706   6.857   7.486   8.860
28822WAT      O86707   5.328   2.427   2.346
28822WAT     H186708   5.409   2.369   2.353
28822WAT     H286709   5.258   2.379   2.294
28823WAT      O86710   0.542   6.988   7.515
28823WAT     H186711   0.500   6.933   7.444
28823WAT     H286712   0.615   7.044   7.475
28824WAT      O86713   0.380   1.737   2.101
28824WAT     H186714   0.399   1.802   2.028
28824WAT     H286715   0.308   1.773   2.161
28825WAT      O86716   5.125   4.368   6.441
28825WAT     H186717   5.067   4.360   6.522
28825WAT     H286718   5.220   4.352   6.466
28826WAT      O86719   4.908   4.594   9.704
28826WAT     H186720   4.948   4.600   9.796
28826WAT     H286721   4.810   4.572   9.712
28827WAT      O86722   0.332   1.490   5.724
28827WAT     H186723   0.392   1.526   5.795
28827WAT     H286724   0.348   1.392   5.714
28828WAT      O86725   3.029   6.370   9.183
28828WAT     H186726   3.121   6.331   9.185
28828WAT     H286727   3.032   6.464   9.215
28829WAT      O86728   0.523   9.447   9.427
28829WAT     H186729   0.563   9.357   9.445
28829WAT     H286730   0.425   9.444   9.446
28830WAT      O86731   3.984   4.114   0.499
28830WAT     H186732   3.930   4.036   0.531
28830WAT     H286733   3.970   4.191   0.561
28831WAT      O86734   6.897   0.431   5.553
28831WAT     H186735   6.839   0.411   5.632
28831WAT     H286736   6.848   0.409   5.469
28832WAT      O86737   0.422   2.242   1.194
28832WAT     H186738   0.347   2.263   1.257
28832WAT     H286739   0.421   2.307   1.118
28833WAT      O86740   8.132   2.182   8.400
28833WAT     H186741   8.092   2.213   8.314
28833WAT     H286742   8.179   2.259   8.444
28834WAT      O86743   0.641   2.332   5.192
28834WAT     H186744   0.569   2.275   5.232
28834WAT     H286745   0.612   2.363   5.101
28835WAT      O86746   8.339   4.813   4.320
28835WAT     H186747   8.324   4.898   4.371
28835WAT     H286748   8.271   4.746   4.346
28836WAT      O86749   3.865   0.904   0.752
28836WAT     H186750   3.899   0.915   0.845
28836WAT     H286751   3.794   0.834   0.751
28837WAT      O86752   7.009   3.883   2.919
28837WAT     H186753   6.981   3.927   2.834
28837WAT     H286754   6.932   3.877   2.982
28838WAT      O86755   8.826   0.250   8.786
28838WAT     H186756   8.794   0.335   8.828
28838WAT     H286757   8.755   0.180   8.791
28839WAT      O86758   9.704   9.297   3.565
28839WAT     H186759   9.691   9.345   3.652
28839WAT     H286760   9.667   9.353   3.491
28840WAT      O86761   0.282   2.369   8.576
28840WAT     H186762   0.298   2.285   8.629
28840WAT     H286763   0.200   2.415   8.609
28841WAT      O86764   5.050   0.773   2.377
28841WAT     H186765   4.987   0.766   2.454
28841WAT     H286766   5.096   0.862   2.381
28842WAT      O86767   1.404   5.457   4.676
28842WAT     H186768   1.433   5.387   4.611
28842WAT     H286769   1.341   5.520   4.631
28843WAT      O86770   8.541   8.879   2.696
28843WAT     H186771   8.464   8.889   2.759
28843WAT     H286772   8.530   8.795   2.643
28844WAT      O86773   1.016   0.697   8.671
28844WAT     H186774   0.986   0.603   8.684
28844WAT     H286775   1.009   0.721   8.574
28845WAT      O86776   5.919   2.507   5.284
28845WAT     H186777   5.913   2.447   5.204
28845WAT     H286778   5.998   2.480   5.339
28846WAT      O86779   0.362   4.419   1.957
28846WAT     H186780   0.378   4.325   1.929
28846WAT     H286781   0.327   4.420   2.051
28847WAT      O86782   1.850   0.727   4.534
28847WAT     H186783   1.911   0.800   4.566
28847WAT     H286784   1.800   0.689   4.612
28848WAT      O86785   1.363   3.552   3.442
28848WAT     H186786   1.349   3.454   3.424
28848WAT     H286787   1.289   3.604   3.399
28849WAT      O86788   2.752   8.336   9.249
28849WAT     H186789   2.671   8.357   9.304
28849WAT     H286790   2.823   8.298   9.309
28850WAT      O86791   9.778   3.616   0.072
28850WAT     H186792   9.798   3.605   0.169
28850WAT     H286793   9.679   3.621   0.059
28851WAT      O86794   3.083   9.706   3.524
28851WAT     H186795   3.141   9.665   3.455
28851WAT     H286796   3.135   9.773   3.577
28852WAT      O86797   3.952   6.866   9.408
28852WAT     H186798   3.954   6.776   9.365
28852WAT     H286799   4.001   6.862   9.495
28853WAT      O86800   9.230   7.239   8.825
28853WAT     H186801   9.142   7.276   8.793
28853WAT     H286802   9.277   7.196   8.748
28854WAT      O86803   1.071   7.382   5.833
28854WAT     H186804   1.111   7.339   5.914
28854WAT     H286805   0.977   7.350   5.822
28855WAT      O86806   2.285   4.688   6.935
28855WAT     H186807   2.200   4.734   6.909
28855WAT     H286808   2.276   4.589   6.918
28856WAT      O86809   8.497   0.930   7.956
28856WAT     H186810   8.481   0.947   7.859
28856WAT     H286811   8.466   0.838   7.979
28857WAT      O86812   4.321   5.989   2.209
28857WAT     H186813   4.251   5.920   2.192
28857WAT     H286814   4.280   6.066   2.259
28858WAT      O86815   1.695   6.208   9.143
28858WAT     H186816   1.691   6.307   9.128
28858WAT     H286817   1.790   6.179   9.143
28859WAT      O86818   9.351   2.010   1.552
28859WAT     H186819   9.347   2.109   1.561
28859WAT     H286820   9.443   1.983   1.521
28860WAT      O86821   6.845   1.152   0.024
28860WAT     H186822   6.861   1.113  -0.067
28860WAT     H286823   6.931   1.152   0.076
28861WAT      O86824   7.155   1.701   0.082
28861WAT     H186825   7.082   1.721   0.148
28861WAT     H286826   7.235   1.756   0.104
28862WAT      O86827   7.291   9.713   4.239
28862WAT     H186828   7.258   9.620   4.259
28862WAT     H286829   7.278   9.733   4.142
28863WAT      O86830   5.955   8.613   8.705
28863WAT     H186831   6.024   8.568   8.762
28863WAT     H286832   5.866   8.606   8.749
28864WAT      O86833   5.386   8.819   7.809
28864WAT     H186834   5.343   8.792   7.723
28864WAT     H286835   5.337   8.897   7.847
28865WAT      O86836   1.407   4.257   2.612
28865WAT     H186837   1.441   4.267   2.706
28865WAT     H286838   1.468   4.306   2.550
28866WAT      O86839   8.956   6.850   0.763
28866WAT     H186840   8.918   6.766   0.723
28866WAT     H286841   8.911   6.929   0.722
28867WAT      O86842   5.083   4.303   3.048
28867WAT     H186843   4.988   4.283   3.022
28867WAT     H286844   5.099   4.270   3.141
28868WAT      O86845   5.329   5.378   2.109
28868WAT     H186846   5.341   5.387   2.207
28868WAT     H286847   5.385   5.445   2.061
28869WAT      O86848   5.313   8.365   1.449
28869WAT     H186849   5.215   8.377   1.435
28869WAT     H286850   5.360   8.368   1.360
28870WAT      O86851   6.645   4.071   3.968
28870WAT     H186852   6.657   4.039   3.875
28870WAT     H286853   6.726   4.049   4.022
28871WAT      O86854   0.179   8.328   1.715
28871WAT     H186855   0.199   8.259   1.646
28871WAT     H286856   0.169   8.283   1.804
28872WAT      O86857   6.682   2.081   3.685
28872WAT     H186858   6.595   2.031   3.689
28872WAT     H286859   6.757   2.019   3.708
28873WAT      O86860   0.645   4.462   1.907
28873WAT     H186861   0.676   4.401   1.834
28873WAT     H286862   0.563   4.423   1.949
28874WAT      O86863   9.367   1.280   8.846
28874WAT     H186864   9.356   1.313   8.752
28874WAT     H286865   9.314   1.196   8.859
28875WAT      O86866   9.680   3.952   2.645
28875WAT     H186867   9.698   3.967   2.548
28875WAT     H286868   9.739   3.879   2.679
28876WAT      O86869   4.744   6.439   1.739
28876WAT     H186870   4.775   6.481   1.824
28876WAT     H286871   4.776   6.344   1.735
28877WAT      O86872   1.166   1.453   6.715
28877WAT     H186873   1.184   1.365   6.671
28877WAT     H286874   1.078   1.488   6.685
28878WAT      O86875   3.279   5.626   7.761
28878WAT     H186876   3.202   5.593   7.706
28878WAT     H286877   3.341   5.679   7.703
28879WAT      O86878   6.922   2.930   4.858
28879WAT     H186879   6.933   2.841   4.813
28879WAT     H286880   6.979   2.934   4.940
28880WAT      O86881   0.403   9.022   2.749
28880WAT     H186882   0.491   9.069   2.740
28880WAT     H286883   0.410   8.952   2.819
28881WAT      O86884   4.820   2.310   9.231
28881WAT     H186885   4.763   2.263   9.164
28881WAT     H286886   4.765   2.335   9.310
28882WAT      O86887   7.138   1.756   9.625
28882WAT     H186888   7.086   1.783   9.707
28882WAT     H286889   7.235   1.745   9.649
28883WAT      O86890   7.792   4.664   0.003
28883WAT     H186891   7.724   4.619   0.062
28883WAT     H286892   7.882   4.659   0.046
28884WAT      O86893   2.681   2.897   3.845
28884WAT     H186894   2.663   2.806   3.809
28884WAT     H286895   2.688   2.962   3.769
28885WAT      O86896   2.185   8.981   5.931
28885WAT     H186897   2.104   8.970   5.874
28885WAT     H286898   2.222   8.891   5.955
28886WAT      O86899   9.067   5.225   4.531
28886WAT     H186900   9.143   5.159   4.538
28886WAT     H286901   9.057   5.272   4.618
28887WAT      O86902   5.586   5.055   1.670
28887WAT     H186903   5.488   5.071   1.656
28887WAT     H286904   5.624   5.009   1.590
28888WAT      O86905   2.672   4.838   3.421
28888WAT     H186906   2.638   4.854   3.329
28888WAT     H286907   2.763   4.796   3.416
28889WAT      O86908   4.982   0.639   7.141
28889WAT     H186909   5.044   0.658   7.218
28889WAT     H286910   4.949   0.545   7.148
28890WAT      O86911   5.015   2.027   7.619
28890WAT     H186912   5.063   2.086   7.555
28890WAT     H286913   5.011   2.072   7.709
28891WAT      O86914   4.922   1.815   8.008
28891WAT     H186915   4.964   1.865   8.084
28891WAT     H286916   4.826   1.841   8.000
28892WAT      O86917   2.351   3.626   5.430
28892WAT     H186918   2.264   3.674   5.423
28892WAT     H286919   2.425   3.692   5.445
28893WAT      O86920   6.840   5.118   1.260
28893WAT     H186921   6.936   5.113   1.232
28893WAT     H286922   6.829   5.191   1.327
28894WAT      O86923   0.659   1.565   2.389
28894WAT     H186924   0.608   1.488   2.429
28894WAT     H286925   0.685   1.542   2.295
28895WAT      O86926   1.199   6.931   0.906
28895WAT     H186927   1.230   6.866   0.836
28895WAT     H286928   1.108   6.964   0.882
28896WAT      O86929   8.635   2.731   7.305
28896WAT     H186930   8.728   2.768   7.304
28896WAT     H286931   8.606   2.716   7.399
28897WAT      O86932   4.454   8.788   0.672
28897WAT     H186933   4.411   8.794   0.582
28897WAT     H286934   4.483   8.879   0.701
28898WAT      O86935   7.073   3.930   3.653
28898WAT     H186936   7.042   3.841   3.688
28898WAT     H286937   7.131   3.974   3.721
28899WAT      O86938   9.184   2.767   0.999
28899WAT     H186939   9.273   2.801   1.029
28899WAT     H286940   9.172   2.787   0.902
28900WAT      O86941   0.837   3.963   8.554
28900WAT     H186942   0.886   3.877   8.537
28900WAT     H286943   0.903   4.038   8.562
28901WAT      O86944   1.332   8.856   5.419
28901WAT     H186945   1.378   8.931   5.466
28901WAT     H286946   1.397   8.808   5.361
28902WAT      O86947   4.914   7.143   6.423
28902WAT     H186948   4.907   7.099   6.513
28902WAT     H286949   4.840   7.110   6.365
28903WAT      O86950   0.261   5.062   5.728
28903WAT     H186951   0.182   5.047   5.786
28903WAT     H286952   0.308   4.976   5.712
28904WAT      O86953   7.482   4.512   3.288
28904WAT     H186954   7.518   4.425   3.253
28904WAT     H286955   7.386   4.501   3.314
28905WAT      O86956   6.136   6.057   2.333
28905WAT     H186957   6.160   6.121   2.406
28905WAT     H286958   6.147   6.102   2.244
28906WAT      O86959   5.986   0.224   4.467
28906WAT     H186960   6.042   0.148   4.435
28906WAT     H286961   6.026   0.310   4.437
28907WAT      O86962   5.886   6.427   6.183
28907WAT     H186963   5.811   6.466   6.131
28907WAT     H286964   5.850   6.369   6.257
28908WAT      O86965   0.713   6.512   5.715
28908WAT     H186966   0.681   6.484   5.624
28908WAT     H286967   0.703   6.436   5.779
28909WAT      O86968   1.283   1.091   9.038
28909WAT     H186969   1.244   1.108   8.947
28909WAT     H286970   1.227   1.136   9.107
28910WAT      O86971   0.578   6.124   8.130
28910WAT     H186972   0.551   6.199   8.070
28910WAT     H286973   0.658   6.151   8.183
28911WAT      O86974   8.777   6.262   2.963
28911WAT     H186975   8.724   6.181   2.991
28911WAT     H286976   8.784   6.264   2.863
28912WAT      O86977   2.363   7.903   4.409
28912WAT     H186978   2.408   7.988   4.437
28912WAT     H286979   2.401   7.826   4.460
28913WAT      O86980   4.986   1.313   3.715
28913WAT     H186981   5.045   1.290   3.638
28913WAT     H286982   4.922   1.385   3.688
28914WAT      O86983   5.952   2.595   3.685
28914WAT     H186984   5.866   2.550   3.663
28914WAT     H286985   5.942   2.694   3.673
28915WAT      O86986   5.716   1.506   3.781
28915WAT     H186987   5.672   1.433   3.729
28915WAT     H286988   5.695   1.495   3.878
28916WAT      O86989   0.874   7.406   1.057
28916WAT     H186990   0.969   7.397   1.028
28916WAT     H286991   0.816   7.417   0.976
28917WAT      O86992   1.109   2.541   9.032
28917WAT     H186993   1.174   2.466   9.022
28917WAT     H286994   1.017   2.504   9.039
28918WAT      O86995   1.818   0.877   9.706
28918WAT     H186996   1.897   0.940   9.705
28918WAT     H286997   1.792   0.856   9.612
28919WAT      O86998   7.307   3.785   1.068
28919WAT     H186999   7.261   3.730   1.138
28919WAT     H287000   7.294   3.743   0.978
28920WAT      O87001   7.066   3.864   0.110
28920WAT     H187002   7.127   3.896   0.038
28920WAT     H287003   6.973   3.858   0.074
28921WAT      O87004   6.229   6.273   8.492
28921WAT     H187005   6.210   6.329   8.573
28921WAT     H287006   6.309   6.216   8.509
28922WAT      O87007   0.903   8.497   1.567
28922WAT     H187008   0.926   8.456   1.479
28922WAT     H287009   0.916   8.596   1.562
28923WAT      O87010   7.333   2.326   6.457
28923WAT     H187011   7.407   2.393   6.460
28923WAT     H287012   7.363   2.241   6.501
28924WAT      O87013   8.728   0.194   4.195
28924WAT     H187014   8.818   0.214   4.234
28924WAT     H287015   8.686   0.119   4.247
28925WAT      O87016   7.410   0.212   1.420
28925WAT     H187017   7.360   0.294   1.395
28925WAT     H287018   7.423   0.210   1.520
28926WAT      O87019   4.462   4.989   7.510
28926WAT     H187020   4.411   5.068   7.476
28926WAT     H287021   4.425   4.961   7.598
28927WAT      O87022   0.373   2.887   7.194
28927WAT     H187023   0.304   2.960   7.196
28927WAT     H287024   0.412   2.876   7.286
28928WAT      O87025   9.152   6.765   2.866
28928WAT     H187026   9.090   6.842   2.884
28928WAT     H287027   9.183   6.768   2.772
28929WAT      O87028   2.564   8.283   1.234
28929WAT     H187029   2.493   8.228   1.189
28929WAT     H287030   2.652   8.238   1.222
28930WAT      O87031   1.160   9.253   2.794
28930WAT     H187032   1.118   9.214   2.876
28930WAT     H287033   1.254   9.279   2.815
28931WAT      O87034   5.902   2.646   9.521
28931WAT     H187035   5.874   2.718   9.585
28931WAT     H287036   5.822   2.595   9.491
28932WAT      O87037   7.501   2.554   5.124
28932WAT     H187038   7.412   2.520   5.154
28932WAT     H287039   7.528   2.631   5.182
28933WAT      O87040   9.132   5.967   7.802
28933WAT     H187041   9.207   6.002   7.857
28933WAT     H287042   9.117   6.026   7.723
28934WAT      O87043   1.345   2.992   3.580
28934WAT     H187044   1.257   3.012   3.537
28934WAT     H287045   1.329   2.950   3.670
28935WAT      O87046   7.475   6.905   8.039
28935WAT     H187047   7.461   6.811   8.008
28935WAT     H287048   7.491   6.905   8.138
28936WAT      O87049   0.697   8.972   5.533
28936WAT     H187050   0.737   9.057   5.497
28936WAT     H287051   0.646   8.926   5.461
28937WAT      O87052   6.457   0.897   6.747
28937WAT     H187053   6.426   0.825   6.685
28937WAT     H287054   6.402   0.979   6.732
28938WAT      O87055   0.020   4.384   2.984
28938WAT     H187056   0.094   4.365   3.049
28938WAT     H287057  -0.003   4.481   2.987
28939WAT      O87058   3.595   8.114   5.898
28939WAT     H187059   3.562   8.183   5.834
28939WAT     H287060   3.542   8.030   5.887
28940WAT      O87061   6.622   2.761   5.599
28940WAT     H187062   6.651   2.766   5.694
28940WAT     H287063   6.603   2.853   5.565
28941WAT      O87064   5.099   1.466   4.922
28941WAT     H187065   5.198   1.455   4.908
28941WAT     H287066   5.084   1.533   4.995
28942WAT      O87067   0.008   3.930   9.478
28942WAT     H187068   0.038   4.015   9.522
28942WAT     H287069  -0.092   3.928   9.475
28943WAT      O87070   0.536   8.618   9.601
28943WAT     H187071   0.631   8.649   9.592
28943WAT     H287072   0.508   8.571   9.518
28944WAT      O87073   7.311   2.402   7.102
28944WAT     H187074   7.217   2.371   7.119
28944WAT     H287075   7.328   2.402   7.003
28945WAT      O87076   8.031   8.726   2.512
28945WAT     H187077   8.008   8.822   2.532
28945WAT     H287078   8.026   8.710   2.413
28946WAT      O87079   0.112   5.394   6.857
28946WAT     H187080   0.101   5.306   6.810
28946WAT     H287081   0.164   5.456   6.799
28947WAT      O87082   4.224   6.275   2.672
28947WAT     H187083   4.186   6.320   2.752
28947WAT     H287084   4.283   6.200   2.701
28948WAT      O87085   3.433   5.786   3.861
28948WAT     H187086   3.424   5.767   3.958
28948WAT     H287087   3.528   5.776   3.833
28949WAT      O87088   7.595   8.431   2.954
28949WAT     H187089   7.550   8.399   2.871
28949WAT     H287090   7.670   8.493   2.931
28950WAT      O87091   5.013   2.060   2.236
28950WAT     H187092   4.951   2.008   2.177
28950WAT     H287093   4.958   2.113   2.302
28951WAT      O87094   1.158   8.524   4.743
28951WAT     H187095   1.159   8.461   4.821
28951WAT     H287096   1.245   8.519   4.694
28952WAT      O87097   6.228   3.135   9.672
28952WAT     H187098   6.277   3.149   9.586
28952WAT     H287099   6.134   3.169   9.664
28953WAT      O87100   8.395   0.975   7.686
28953WAT     H187101   8.431   0.882   7.674
28953WAT     H287102   8.432   1.034   7.614
28954WAT      O87103   2.407   0.398   2.840
28954WAT     H187104   2.350   0.451   2.777
28954WAT     H287105   2.357   0.317   2.870
28955WAT      O87106   2.953   5.367   0.340
28955WAT     H187107   2.983   5.371   0.435
28955WAT     H287108   2.921   5.274   0.320
28956WAT      O87109   5.807   7.715   3.106
28956WAT     H187110   5.758   7.654   3.043
28956WAT     H287111   5.760   7.803   3.111
28957WAT      O87112   6.272   6.830   4.416
28957WAT     H187113   6.333   6.754   4.393
28957WAT     H287114   6.202   6.800   4.480
28958WAT      O87115   5.233   7.910   5.918
28958WAT     H187116   5.287   7.827   5.928
28958WAT     H287117   5.138   7.892   5.946
28959WAT      O87118   7.514   3.097   7.923
28959WAT     H187119   7.570   3.032   7.872
28959WAT     H287120   7.526   3.082   8.021
28960WAT      O87121   5.177   3.715   4.872
28960WAT     H187122   5.221   3.646   4.814
28960WAT     H287123   5.153   3.794   4.817
28961WAT      O87124   9.323   0.686   2.201
28961WAT     H187125   9.412   0.708   2.162
28961WAT     H287126   9.257   0.672   2.128
28962WAT      O87127   8.640   8.392   8.752
28962WAT     H187128   8.720   8.377   8.810
28962WAT     H287129   8.637   8.322   8.681
28963WAT      O87130   9.394   8.416   2.487
28963WAT     H187131   9.492   8.396   2.498
28963WAT     H287132   9.344   8.330   2.475
28964WAT      O87133   7.592   7.040   6.525
28964WAT     H187134   7.528   6.979   6.569
28964WAT     H287135   7.646   6.990   6.457
28965WAT      O87136   0.012   4.538   0.809
28965WAT     H187137  -0.064   4.600   0.826
28965WAT     H287138   0.030   4.534   0.711
28966WAT      O87139   4.689   8.903   9.268
28966WAT     H187140   4.724   8.822   9.316
28966WAT     H287141   4.736   8.912   9.180
28967WAT      O87142   6.532   9.659   4.026
28967WAT     H187143   6.598   9.702   4.088
28967WAT     H287144   6.554   9.684   3.932
28968WAT      O87145   2.154   0.973   6.637
28968WAT     H187146   2.206   0.982   6.552
28968WAT     H287147   2.122   1.063   6.667
28969WAT      O87148   1.377   2.192   1.046
28969WAT     H187149   1.416   2.102   1.068
28969WAT     H287150   1.329   2.187   0.958
28970WAT      O87151   0.471   6.017   7.610
28970WAT     H187152   0.529   5.945   7.648
28970WAT     H287153   0.391   6.029   7.668
28971WAT      O87154   2.118   1.535   1.373
28971WAT     H187155   2.103   1.445   1.413
28971WAT     H287156   2.151   1.525   1.279
28972WAT      O87157   8.434   3.414   2.464
28972WAT     H187158   8.466   3.502   2.430
28972WAT     H287159   8.458   3.403   2.560
28973WAT      O87160   0.023   2.185   7.404
28973WAT     H187161   0.078   2.168   7.486
28973WAT     H287162  -0.064   2.137   7.412
28974WAT      O87163   4.884   7.125   8.791
28974WAT     H187164   4.841   7.137   8.701
28974WAT     H287165   4.973   7.171   8.791
28975WAT      O87166   5.733   1.087   6.196
28975WAT     H187167   5.658   1.086   6.262
28975WAT     H287168   5.809   1.140   6.233
28976WAT      O87169   2.164   4.317   2.272
28976WAT     H187170   2.186   4.233   2.322
28976WAT     H287171   2.161   4.394   2.335
28977WAT      O87172   6.166   5.574   2.356
28977WAT     H187173   6.262   5.551   2.368
28977WAT     H287174   6.123   5.508   2.294
28978WAT      O87175   4.381   0.386   3.598
28978WAT     H187176   4.469   0.389   3.646
28978WAT     H287177   4.344   0.293   3.604
28979WAT      O87178   0.887   4.963   5.344
28979WAT     H187179   0.960   4.926   5.287
28979WAT     H287180   0.800   4.955   5.296
28980WAT      O87181   7.621   8.267   5.310
28980WAT     H187182   7.620   8.255   5.409
28980WAT     H287183   7.679   8.197   5.269
28981WAT      O87184   1.910   3.885   1.606
28981WAT     H187185   1.841   3.934   1.554
28981WAT     H287186   1.983   3.948   1.633
28982WAT      O87187   9.434   0.855   8.675
28982WAT     H187188   9.436   0.764   8.633
28982WAT     H287189   9.488   0.855   8.758
28983WAT      O87190   9.537   1.233   4.559
28983WAT     H187191   9.545   1.164   4.631
28983WAT     H287192   9.474   1.200   4.489
28984WAT      O87193   9.701   3.711   1.941
28984WAT     H187194   9.626   3.772   1.916
28984WAT     H287195   9.700   3.631   1.882
28985WAT      O87196   1.185   4.673   5.315
28985WAT     H187197   1.276   4.651   5.350
28985WAT     H287198   1.117   4.653   5.385
28986WAT      O87199   8.151   3.611   3.484
28986WAT     H187200   8.120   3.592   3.391
28986WAT     H287201   8.192   3.529   3.523
28987WAT      O87202   8.397   4.399   6.001
28987WAT     H187203   8.426   4.389   5.906
28987WAT     H287204   8.309   4.446   6.005
28988WAT      O87205   6.680   1.929   8.555
28988WAT     H187206   6.623   1.853   8.523
28988WAT     H287207   6.729   1.902   8.637
28989WAT      O87208   0.157   7.076   4.946
28989WAT     H187209   0.121   7.108   5.034
28989WAT     H287210   0.114   6.990   4.921
28990WAT      O87211   1.020   0.966   1.490
28990WAT     H187212   0.934   1.010   1.462
28990WAT     H287213   1.040   0.889   1.429
28991WAT      O87214   5.388   7.898   0.563
28991WAT     H187215   5.339   7.967   0.509
28991WAT     H287216   5.486   7.920   0.564
28992WAT      O87217   9.093   2.805   3.463
28992WAT     H187218   9.025   2.819   3.536
28992WAT     H287219   9.132   2.713   3.473
28993WAT      O87220   0.331   7.981   7.916
28993WAT     H187221   0.342   7.899   7.972
28993WAT     H287222   0.419   8.027   7.905
28994WAT      O87223   5.207   6.357   6.648
28994WAT     H187224   5.247   6.289   6.710
28994WAT     H287225   5.113   6.377   6.677
28995WAT      O87226   0.228   6.532   4.623
28995WAT     H187227   0.274   6.621   4.624
28995WAT     H287228   0.296   6.459   4.625
28996WAT      O87229   5.406   2.006   5.918
28996WAT     H187230   5.447   2.045   6.000
28996WAT     H287231   5.362   1.918   5.941
28997WAT      O87232   5.261   5.957   3.416
28997WAT     H187233   5.307   5.916   3.495
28997WAT     H287234   5.289   6.052   3.407
28998WAT      O87235   8.147   5.763   0.888
28998WAT     H187236   8.138   5.859   0.914
28998WAT     H287237   8.217   5.719   0.944
28999WAT      O87238   8.693   8.810   7.822
28999WAT     H187239   8.769   8.765   7.777
28999WAT     H287240   8.608   8.790   7.773
29000WAT      O87241   3.513   6.196   3.040
29000WAT     H187242   3.564   6.277   3.070
29000WAT     H287243   3.567   6.144   2.975
29001WAT      O87244   9.216   7.036   1.745
29001WAT     H187245   9.168   7.067   1.827
29001WAT     H287246   9.168   7.070   1.664
29002WAT      O87247   0.381   2.934   0.094
29002WAT     H187248   0.388   2.854   0.155
29002WAT     H287249   0.347   2.904   0.005
29003WAT      O87250   0.071   8.083   5.828
29003WAT     H187251   0.152   8.099   5.771
29003WAT     H287252   0.081   8.133   5.914
29004WAT      O87253   4.661   9.126   6.776
29004WAT     H187254   4.665   9.037   6.731
29004WAT     H287255   4.754   9.158   6.794
29005WAT      O87256   7.324   9.070   4.575
29005WAT     H187257   7.260   9.136   4.613
29005WAT     H287258   7.323   9.076   4.475
29006WAT      O87259   6.833   3.497   7.352
29006WAT     H187260   6.902   3.475   7.421
29006WAT     H287261   6.796   3.588   7.370
29007WAT      O87262   8.269   4.416   2.274
29007WAT     H187263   8.173   4.443   2.286
29007WAT     H287264   8.301   4.445   2.184
29008WAT      O87265   2.889   2.858   6.064
29008WAT     H187266   2.934   2.826   5.981
29008WAT     H287267   2.958   2.894   6.128
29009WAT      O87268   3.086   7.168   4.012
29009WAT     H187269   3.022   7.092   4.025
29009WAT     H287270   3.060   7.243   4.073
29010WAT      O87271   1.119   3.157   4.663
29010WAT     H187272   1.166   3.196   4.584
29010WAT     H287273   1.101   3.061   4.647
29011WAT      O87274   8.564   4.536   5.048
29011WAT     H187275   8.581   4.625   5.005
29011WAT     H287276   8.575   4.545   5.147
29012WAT      O87277   8.159   2.095   3.721
29012WAT     H187278   8.124   2.058   3.807
29012WAT     H287279   8.250   2.059   3.703
29013WAT      O87280   6.143   2.167   7.827
29013WAT     H187281   6.147   2.243   7.892
29013WAT     H287282   6.056   2.118   7.837
29014WAT      O87283   7.954   5.561   8.466
29014WAT     H187284   7.945   5.654   8.503
29014WAT     H287285   8.046   5.549   8.428
29015WAT      O87286   6.440   4.295   1.667
29015WAT     H187287   6.387   4.237   1.730
29015WAT     H287288   6.495   4.237   1.608
29016WAT      O87289   2.687   4.088   3.125
29016WAT     H187290   2.668   4.152   3.200
29016WAT     H287291   2.619   4.014   3.127
29017WAT      O87292   7.939   1.325   9.261
29017WAT     H187293   7.895   1.262   9.197
29017WAT     H287294   7.953   1.279   9.349
29018WAT      O87295   1.991   7.342   1.353
29018WAT     H187296   1.973   7.244   1.364
29018WAT     H287297   1.941   7.393   1.423
29019WAT      O87298   1.642   7.714   5.854
29019WAT     H187299   1.583   7.774   5.799
29019WAT     H287300   1.713   7.675   5.795
29020WAT      O87301   0.533   9.499   2.507
29020WAT     H187302   0.611   9.445   2.537
29020WAT     H287303   0.565   9.587   2.471
29021WAT      O87304   8.465   3.538   7.373
29021WAT     H187305   8.534   3.611   7.369
29021WAT     H287306   8.468   3.485   7.289
29022WAT      O87307   3.341   1.435   7.089
29022WAT     H187308   3.340   1.530   7.058
29022WAT     H287309   3.286   1.426   7.172
29023WAT      O87310   7.997   0.430   5.400
29023WAT     H187311   7.962   0.378   5.322
29023WAT     H287312   7.984   0.377   5.484
29024WAT      O87313   5.548   9.333   7.885
29024WAT     H187314   5.572   9.251   7.832
29024WAT     H287315   5.567   9.317   7.981
29025WAT      O87316   0.584   8.331   5.898
29025WAT     H187317   0.525   8.317   5.978
29025WAT     H287318   0.593   8.244   5.849
29026WAT      O87319   2.268   9.138   1.099
29026WAT     H187320   2.342   9.150   1.165
29026WAT     H287321   2.262   9.042   1.073
29027WAT      O87322   7.356   5.097   6.719
29027WAT     H187323   7.365   5.148   6.805
29027WAT     H287324   7.426   5.026   6.715
29028WAT      O87325   0.713   5.426   1.002
29028WAT     H187326   0.686   5.445   1.096
29028WAT     H287327   0.813   5.433   0.994
29029WAT      O87328   4.413   4.198   7.620
29029WAT     H187329   4.365   4.280   7.649
29029WAT     H287330   4.346   4.132   7.583
29030WAT      O87331   0.125   4.640   1.173
29030WAT     H187332   0.099   4.680   1.261
29030WAT     H287333   0.119   4.709   1.101
29031WAT      O87334   4.082   1.485   9.724
29031WAT     H187335   4.143   1.409   9.745
29031WAT     H287336   4.110   1.526   9.637
29032WAT      O87337   4.146   5.510   5.953
29032WAT     H187338   4.085   5.460   5.892
29032WAT     H287339   4.095   5.541   6.033
29033WAT      O87340   8.807   6.455   8.984
29033WAT     H187341   8.899   6.485   9.010
29033WAT     H287342   8.799   6.356   8.996
29034WAT      O87343   1.804   4.009   5.217
29034WAT     H187344   1.715   3.995   5.175
29034WAT     H287345   1.832   3.925   5.264
29035WAT      O87346   6.626   5.684   2.590
29035WAT     H187347   6.687   5.606   2.600
29035WAT     H287348   6.630   5.740   2.673
29036WAT      O87349   6.133   1.913   0.309
29036WAT     H187350   6.047   1.877   0.273
29036WAT     H287351   6.166   1.854   0.382
29037WAT      O87352   2.158   4.723   6.164
29037WAT     H187353   2.167   4.721   6.064
29037WAT     H287354   2.214   4.650   6.204
29038WAT      O87355   4.810   2.527   7.246
29038WAT     H187356   4.903   2.504   7.273
29038WAT     H287357   4.764   2.444   7.213
29039WAT      O87358   2.648   0.851   8.172
29039WAT     H187359   2.746   0.854   8.191
29039WAT     H287360   2.627   0.770   8.117
29040WAT      O87361   2.968   3.491   3.814
29040WAT     H187362   3.017   3.476   3.899
29040WAT     H287363   2.955   3.589   3.800
29041WAT      O87364   8.930   5.301   7.074
29041WAT     H187365   8.850   5.331   7.126
29041WAT     H287366   9.008   5.360   7.095
29042WAT      O87367   3.128   3.195   5.110
29042WAT     H187368   3.046   3.139   5.121
29042WAT     H287369   3.130   3.234   5.018
29043WAT      O87370   9.069   0.811   8.972
29043WAT     H187371   9.151   0.754   8.963
29043WAT     H287372   8.993   0.768   8.924
29044WAT      O87373   0.122   1.751   9.577
29044WAT     H187374   0.028   1.784   9.576
29044WAT     H287375   0.185   1.827   9.593
29045WAT      O87376   7.065   5.167   3.772
29045WAT     H187377   7.031   5.073   3.779
29045WAT     H287378   7.046   5.203   3.680
29046WAT      O87379   6.096   5.004   5.923
29046WAT     H187380   6.075   4.907   5.935
29046WAT     H287381   6.153   5.016   5.842
29047WAT      O87382   5.320   6.992   0.251
29047WAT     H187383   5.299   7.033   0.162
29047WAT     H287384   5.256   6.917   0.269
29048WAT      O87385   5.043   1.511   0.881
29048WAT     H187386   5.059   1.509   0.979
29048WAT     H287387   4.992   1.429   0.854
29049WAT      O87388   1.402   3.825   1.159
29049WAT     H187389   1.420   3.774   1.244
29049WAT     H287390   1.429   3.920   1.171
29050WAT      O87391   6.477   1.422   4.494
29050WAT     H187392   6.380   1.407   4.474
29050WAT     H287393   6.532   1.357   4.441
29051WAT      O87394   3.397   5.413   9.195
29051WAT     H187395   3.356   5.504   9.192
29051WAT     H287396   3.358   5.361   9.271
29052WAT      O87397   9.682   7.441   6.927
29052WAT     H187398   9.662   7.529   6.970
29052WAT     H287399   9.684   7.370   6.996
29053WAT      O87400   5.736   5.673   4.254
29053WAT     H187401   5.682   5.757   4.259
29053WAT     H287402   5.757   5.642   4.346
29054WAT      O87403   7.559   9.293   7.994
29054WAT     H187404   7.563   9.199   8.028
29054WAT     H287405   7.610   9.353   8.056
29055WAT      O87406   8.984   2.500   8.861
29055WAT     H187407   8.958   2.411   8.822
29055WAT     H287408   8.989   2.492   8.961
29056WAT      O87409   8.295   2.883   5.037
29056WAT     H187410   8.393   2.876   5.021
29056WAT     H287411   8.269   2.821   5.111
29057WAT      O87412   2.360   8.746   6.290
29057WAT     H187413   2.409   8.754   6.204
29057WAT     H287414   2.356   8.649   6.317
29058WAT      O87415   5.826   7.133   9.557
29058WAT     H187416   5.892   7.183   9.614
29058WAT     H287417   5.875   7.075   9.492
29059WAT      O87418   9.639   6.812   6.163
29059WAT     H187419   9.580   6.891   6.157
29059WAT     H287420   9.696   6.818   6.245
29060WAT      O87421   6.189   3.663   1.584
29060WAT     H187422   6.103   3.616   1.604
29060WAT     H287423   6.188   3.696   1.490
29061WAT      O87424   5.419   1.365   5.321
29061WAT     H187425   5.339   1.348   5.378
29061WAT     H287426   5.463   1.450   5.351
29062WAT      O87427   5.344   8.906   3.473
29062WAT     H187428   5.356   9.001   3.503
29062WAT     H287429   5.365   8.900   3.376
29063WAT      O87430   9.159   1.018   7.187
29063WAT     H187431   9.184   0.968   7.104
29063WAT     H287432   9.232   1.083   7.210
29064WAT      O87433   4.566   9.492   2.234
29064WAT     H187434   4.519   9.435   2.165
29064WAT     H287435   4.534   9.465   2.325
29065WAT      O87436   8.025   5.500   7.221
29065WAT     H187437   7.959   5.501   7.295
29065WAT     H287438   8.097   5.433   7.242
29066WAT      O87439   6.263   5.192   9.253
29066WAT     H187440   6.185   5.179   9.191
29066WAT     H287441   6.277   5.109   9.306
29067WAT      O87442   0.839   5.435   6.247
29067WAT     H187443   0.800   5.396   6.164
29067WAT     H287444   0.784   5.408   6.326
29068WAT      O87445   3.843   4.497   9.592
29068WAT     H187446   3.914   4.429   9.573
29068WAT     H287447   3.886   4.588   9.598
29069WAT      O87448   3.627   0.556   3.213
29069WAT     H187449   3.603   0.462   3.188
29069WAT     H287450   3.708   0.555   3.271
29070WAT      O87451   9.864   0.412   4.040
29070WAT     H187452   9.833   0.377   3.952
29070WAT     H287453   9.936   0.353   4.076
29071WAT      O87454   1.204   8.253   6.373
29071WAT     H187455   1.154   8.168   6.391
29071WAT     H287456   1.302   8.237   6.385
29072WAT      O87457   2.670   4.073   3.728
29072WAT     H187458   2.728   4.131   3.670
29072WAT     H287459   2.650   4.121   3.813
29073WAT      O87460   1.323   5.187   3.117
29073WAT     H187461   1.241   5.242   3.096
29073WAT     H287462   1.312   5.095   3.079
29074WAT      O87463   7.570   4.544   0.221
29074WAT     H187464   7.641   4.591   0.274
29074WAT     H287465   7.596   4.448   0.208
29075WAT      O87466   7.955   4.702   8.247
29075WAT     H187467   8.042   4.698   8.298
29075WAT     H287468   7.942   4.794   8.211
29076WAT      O87469   5.937   5.121   4.818
29076WAT     H187470   5.922   5.076   4.906
29076WAT     H287471   6.030   5.157   4.814
29077WAT      O87472   7.282   5.167   8.266
29077WAT     H187473   7.276   5.069   8.284
29077WAT     H287474   7.374   5.199   8.286
29078WAT      O87475   9.104   5.736   5.804
29078WAT     H187476   9.027   5.775   5.753
29078WAT     H287477   9.134   5.651   5.759
29079WAT      O87478   4.661   4.051   1.894
29079WAT     H187479   4.738   4.104   1.930
29079WAT     H287480   4.663   4.052   1.794
29080WAT      O87481   5.149   5.392   7.770
29080WAT     H187482   5.067   5.399   7.713
29080WAT     H287483   5.176   5.483   7.802
29081WAT      O87484   7.835   9.844   9.803
29081WAT     H187485   7.782   9.779   9.749
29081WAT     H287486   7.896   9.795   9.864
29082WAT      O87487   6.621   9.800   7.785
29082WAT     H187488   6.649   9.889   7.822
29082WAT     H287489   6.694   9.764   7.727
29083WAT      O87490   3.719   9.488   4.518
29083WAT     H187491   3.789   9.427   4.480
29083WAT     H287492   3.648   9.434   4.562
29084WAT      O87493   7.544   7.193   7.403
29084WAT     H187494   7.488   7.224   7.481
29084WAT     H287495   7.551   7.093   7.405
29085WAT      O87496   6.908   8.596   5.929
29085WAT     H187497   6.916   8.686   5.970
29085WAT     H287498   6.852   8.537   5.987
29086WAT      O87499   2.178   8.846   7.095
29086WAT     H187500   2.278   8.847   7.085
29086WAT     H287501   2.136   8.871   7.008
29087WAT      O87502   2.114   4.927   8.569
29087WAT     H187503   2.204   4.887   8.581
29087WAT     H287504   2.073   4.945   8.659
29088WAT      O87505   1.907   5.011   2.389
29088WAT     H187506   1.995   5.002   2.437
29088WAT     H287507   1.922   5.054   2.300
29089WAT      O87508   4.559   0.167   5.757
29089WAT     H187509   4.480   0.147   5.700
29089WAT     H287510   4.639   0.119   5.722
29090WAT      O87511   3.483   3.657   1.508
29090WAT     H187512   3.460   3.754   1.506
29090WAT     H287513   3.429   3.611   1.579
29091WAT      O87514   6.290   4.408   9.606
29091WAT     H187515   6.360   4.440   9.541
29091WAT     H287516   6.269   4.312   9.587
29092WAT      O87517   4.890   0.275   2.268
29092WAT     H187518   4.920   0.186   2.304
29092WAT     H287519   4.792   0.270   2.248
29093WAT      O87520   3.329   5.795   2.152
29093WAT     H187521   3.422   5.827   2.168
29093WAT     H287522   3.326   5.744   2.066
29094WAT      O87523   1.903   9.346   5.254
29094WAT     H187524   1.912   9.433   5.304
29094WAT     H287525   1.935   9.271   5.312
29095WAT      O87526   4.589   7.608   0.107
29095WAT     H187527   4.596   7.591   0.205
29095WAT     H287528   4.642   7.539   0.058
29096WAT      O87529   0.322   7.833   0.404
29096WAT     H187530   0.338   7.930   0.420
29096WAT     H287531   0.406   7.791   0.369
29097WAT      O87532   2.615   4.186   3.977
29097WAT     H187533   2.621   4.214   4.073
29097WAT     H287534   2.531   4.133   3.963
29098WAT      O87535   8.586   3.794   1.580
29098WAT     H187536   8.559   3.890   1.592
29098WAT     H287537   8.506   3.735   1.592
29099WAT      O87538   7.477   1.624   4.082
29099WAT     H187539   7.381   1.597   4.091
29099WAT     H287540   7.482   1.721   4.060
29100WAT      O87541   0.558   2.733   7.901
29100WAT     H187542   0.602   2.801   7.843
29100WAT     H287543   0.459   2.740   7.893
29101WAT      O87544   2.438   8.377   6.866
29101WAT     H187545   2.425   8.292   6.918
29101WAT     H287546   2.513   8.365   6.801
29102WAT      O87547   2.518   7.697   5.309
29102WAT     H187548   2.555   7.656   5.226
29102WAT     H287549   2.500   7.626   5.377
29103WAT      O87550   8.924   3.115   1.041
29103WAT     H187551   9.023   3.109   1.029
29103WAT     H287552   8.888   3.024   1.064
29104WAT      O87553   6.695   2.580   1.426
29104WAT     H187554   6.785   2.544   1.450
29104WAT     H287555   6.704   2.674   1.392
29105WAT      O87556   0.881   6.491   7.654
29105WAT     H187557   0.912   6.567   7.597
29105WAT     H287558   0.793   6.514   7.696
29106WAT      O87559   7.155   9.640   1.856
29106WAT     H187560   7.064   9.611   1.829
29106WAT     H287561   7.195   9.696   1.783
29107WAT      O87562   6.471   3.053   3.362
29107WAT     H187563   6.454   2.987   3.436
29107WAT     H287564   6.416   3.027   3.282
29108WAT      O87565   4.219   4.754   7.960
29108WAT     H187566   4.185   4.750   8.054
29108WAT     H287567   4.318   4.742   7.960
29109WAT      O87568   7.612   9.059   6.393
29109WAT     H187569   7.675   8.993   6.351
29109WAT     H287570   7.518   9.025   6.386
29110WAT      O87571   7.812   6.380   6.935
29110WAT     H187572   7.823   6.427   6.848
29110WAT     H287573   7.718   6.347   6.944
29111WAT      O87574   4.188   5.648   9.246
29111WAT     H187575   4.097   5.687   9.262
29111WAT     H287576   4.178   5.558   9.204
29112WAT      O87577   8.311   6.585   0.131
29112WAT     H187578   8.245   6.630   0.191
29112WAT     H287579   8.327   6.492   0.164
29113WAT      O87580   0.955   7.095   9.886
29113WAT     H187581   0.969   7.076   9.984
29113WAT     H287582   1.039   7.076   9.836
29114WAT      O87583   5.870   0.434   4.189
29114WAT     H187584   5.952   0.450   4.243
29114WAT     H287585   5.894   0.385   4.106
29115WAT      O87586   2.524   8.762   8.699
29115WAT     H187587   2.589   8.698   8.739
29115WAT     H287588   2.466   8.714   8.633
29116WAT      O87589   8.071   4.980   3.989
29116WAT     H187590   8.095   4.890   4.025
29116WAT     H287591   8.065   4.976   3.889
29117WAT      O87592   1.218   4.251   6.934
29117WAT     H187593   1.272   4.169   6.921
29117WAT     H287594   1.261   4.328   6.887
29118WAT      O87595   6.297   1.097   0.819
29118WAT     H187596   6.243   1.015   0.838
29118WAT     H287597   6.253   1.176   0.862
29119WAT      O87598   8.436   7.729   9.860
29119WAT     H187599   8.396   7.720   9.769
29119WAT     H287600   8.375   7.688   9.928
29120WAT      O87601   9.876   6.050   7.918
29120WAT     H187602   9.930   6.049   7.834
29120WAT     H287603   9.869   5.957   7.954
29121WAT      O87604   7.956   7.679   6.024
29121WAT     H187605   7.891   7.702   6.097
29121WAT     H287606   7.919   7.604   5.969
29122WAT      O87607   2.662   1.023   1.368
29122WAT     H187608   2.748   0.974   1.379
29122WAT     H287609   2.657   1.062   1.276
29123WAT      O87610   7.976   1.694   4.246
29123WAT     H187611   7.932   1.731   4.328
29123WAT     H287612   7.983   1.595   4.254
29124WAT      O87613   9.184   0.016   3.687
29124WAT     H187614   9.115   0.039   3.756
29124WAT     H287615   9.206  -0.082   3.693
29125WAT      O87616   8.017   3.317   4.207
29125WAT     H187617   7.936   3.264   4.183
29125WAT     H287618   8.055   3.359   4.125
29126WAT      O87619   2.552   4.704   7.006
29126WAT     H187620   2.457   4.681   6.984
29126WAT     H287621   2.558   4.728   7.103
29127WAT      O87622   4.056   3.893   4.302
29127WAT     H187623   4.096   3.802   4.290
29127WAT     H287624   4.030   3.930   4.213
29128WAT      O87625   4.625   5.499   6.762
29128WAT     H187626   4.661   5.582   6.719
29128WAT     H287627   4.587   5.439   6.692
29129WAT      O87628   6.447   7.083   1.018
29129WAT     H187629   6.535   7.065   0.973
29129WAT     H287630   6.463   7.103   1.115
29130WAT      O87631   5.675   9.674   8.105
29130WAT     H187632   5.690   9.598   8.169
29130WAT     H287633   5.763   9.705   8.070
29131WAT      O87634   9.869   9.520   2.279
29131WAT     H187635   9.844   9.596   2.338
29131WAT     H287636   9.831   9.535   2.187
29132WAT      O87637   5.562   3.234   1.198
29132WAT     H187638   5.503   3.313   1.178
29132WAT     H287639   5.637   3.263   1.257
29133WAT      O87640   0.561   1.222   2.581
29133WAT     H187641   0.521   1.289   2.644
29133WAT     H287642   0.490   1.187   2.520
29134WAT      O87643   5.638   4.391   1.192
29134WAT     H187644   5.571   4.463   1.174
29134WAT     H287645   5.651   4.382   1.291
29135WAT      O87646   1.024   1.680   7.173
29135WAT     H187647   1.093   1.649   7.238
29135WAT     H287648   1.055   1.765   7.130
29136WAT      O87649   1.882   5.123   4.763
29136WAT     H187650   1.804   5.105   4.703
29136WAT     H287651   1.852   5.121   4.858
29137WAT      O87652   0.065   6.882   9.684
29137WAT     H187653   0.122   6.820   9.629
29137WAT     H287654   0.123   6.939   9.741
29138WAT      O87655   3.361   8.700   1.225
29138WAT     H187656   3.399   8.648   1.149
29138WAT     H287657   3.424   8.696   1.303
29139WAT      O87658   0.650   7.717   5.476
29139WAT     H187659   0.712   7.794   5.458
29139WAT     H287660   0.623   7.676   5.389
29140WAT      O87661   7.574   2.762   7.608
29140WAT     H187662   7.602   2.828   7.678
29140WAT     H287663   7.600   2.670   7.637
29141WAT      O87664   6.606   0.250   8.729
29141WAT     H187665   6.510   0.264   8.704
29141WAT     H287666   6.645   0.337   8.759
29142WAT      O87667   3.799   3.119   1.025
29142WAT     H187668   3.805   3.038   1.084
29142WAT     H287669   3.723   3.107   0.961
29143WAT      O87670   7.411   5.810   1.657
29143WAT     H187671   7.358   5.892   1.638
29143WAT     H287672   7.469   5.825   1.737
29144WAT      O87673   7.994   8.545   7.634
29144WAT     H187674   8.087   8.535   7.671
29144WAT     H287675   7.991   8.504   7.543
29145WAT      O87676   5.179   3.881   8.265
29145WAT     H187677   5.099   3.829   8.235
29145WAT     H287678   5.246   3.884   8.190
29146WAT      O87679   5.460   0.991   5.752
29146WAT     H187680   5.465   1.008   5.850
29146WAT     H287681   5.396   1.057   5.710
29147WAT      O87682   1.760   7.089   2.264
29147WAT     H187683   1.840   7.073   2.207
29147WAT     H287684   1.729   7.002   2.303
29148WAT      O87685   0.978   0.119   6.550
29148WAT     H187686   0.912   0.096   6.477
29148WAT     H287687   0.934   0.181   6.615
29149WAT      O87688   9.058   0.771   4.076
29149WAT     H187689   9.142   0.777   4.022
29149WAT     H287690   9.055   0.846   4.143
29150WAT      O87691   8.746   8.391   2.477
29150WAT     H187692   8.804   8.418   2.399
29150WAT     H287693   8.651   8.417   2.458
29151WAT      O87694   3.229   3.390   5.586
29151WAT     H187695   3.246   3.481   5.547
29151WAT     H287696   3.252   3.320   5.518
29152WAT      O87697   7.966   4.609   3.090
29152WAT     H187698   7.918   4.566   3.014
29152WAT     H287699   7.900   4.644   3.156
29153WAT      O87700   8.014   0.867   5.991
29153WAT     H187701   7.945   0.796   6.005
29153WAT     H287702   8.081   0.863   6.064
29154WAT      O87703   6.496   1.355   5.462
29154WAT     H187704   6.452   1.294   5.396
29154WAT     H287705   6.595   1.348   5.452
29155WAT      O87706   4.941   5.491   8.976
29155WAT     H187707   4.890   5.406   8.990
29155WAT     H287708   5.038   5.470   8.969
29156WAT      O87709   2.671   8.162   9.517
29156WAT     H187710   2.758   8.151   9.565
29156WAT     H287711   2.612   8.083   9.537
29157WAT      O87712   0.462   2.867   5.297
29157WAT     H187713   0.527   2.824   5.360
29157WAT     H287714   0.379   2.811   5.291
29158WAT      O87715   2.059   5.986   2.270
29158WAT     H187716   2.072   5.913   2.203
29158WAT     H287717   2.144   5.998   2.322
29159WAT      O87718   8.122   1.565   0.594
29159WAT     H187719   8.147   1.533   0.503
29159WAT     H287720   8.051   1.507   0.633
29160WAT      O87721   8.207   2.595   2.665
29160WAT     H187722   8.280   2.527   2.651
29160WAT     H287723   8.188   2.604   2.762
29161WAT      O87724   4.511   2.945   3.358
29161WAT     H187725   4.472   2.966   3.269
29161WAT     H287726   4.605   2.914   3.347
29162WAT      O87727   5.543   3.347   6.177
29162WAT     H187728   5.596   3.344   6.262
29162WAT     H287729   5.450   3.380   6.197
29163WAT      O87730   9.323   1.270   2.519
29163WAT     H187731   9.239   1.318   2.494
29163WAT     H287732   9.330   1.266   2.619
29164WAT      O87733   6.309   4.824   9.717
29164WAT     H187734   6.252   4.770   9.656
29164WAT     H287735   6.396   4.777   9.732
29165WAT      O87736   4.731   1.429   3.069
29165WAT     H187737   4.800   1.501   3.059
29165WAT     H287738   4.735   1.391   3.162
29166WAT      O87739   6.101   5.666   6.618
29166WAT     H187740   6.175   5.711   6.569
29166WAT     H287741   6.119   5.567   6.623
29167WAT      O87742   4.710   3.247   6.833
29167WAT     H187743   4.638   3.309   6.863
29167WAT     H287744   4.777   3.235   6.906
29168WAT      O87745   3.243   9.562   8.913
29168WAT     H187746   3.181   9.487   8.891
29168WAT     H287747   3.310   9.572   8.840
29169WAT      O87748   6.414   3.823   2.160
29169WAT     H187749   6.470   3.749   2.198
29169WAT     H287750   6.449   3.911   2.192
29170WAT      O87751   9.835   8.719   9.643
29170WAT     H187752   9.927   8.707   9.606
29170WAT     H287753   9.772   8.740   9.569
29171WAT      O87754   2.370   6.673   1.401
29171WAT     H187755   2.465   6.697   1.383
29171WAT     H287756   2.311   6.748   1.373
29172WAT      O87757   1.625   4.444   2.724
29172WAT     H187758   1.559   4.395   2.782
29172WAT     H287759   1.713   4.396   2.726
29173WAT      O87760   5.315   0.369   0.480
29173WAT     H187761   5.257   0.429   0.424
29173WAT     H287762   5.314   0.277   0.442
29174WAT      O87763   7.983   0.546   3.990
29174WAT     H187764   8.016   0.484   3.918
29174WAT     H287765   7.968   0.495   4.074
29175WAT      O87766   1.674   3.317   6.279
29175WAT     H187767   1.710   3.224   6.285
29175WAT     H287768   1.687   3.352   6.186
29176WAT      O87769   0.036   0.121   4.278
29176WAT     H187770   0.100   0.129   4.201
29176WAT     H287771   0.041   0.028   4.315
29177WAT      O87772   3.942   7.512   0.522
29177WAT     H187773   4.014   7.474   0.465
29177WAT     H287774   3.853   7.478   0.491
29178WAT      O87775   9.551   2.100   3.791
29178WAT     H187776   9.526   2.066   3.700
29178WAT     H287777   9.590   2.026   3.846
29179WAT      O87778   9.713   3.603   5.800
29179WAT     H187779   9.759   3.666   5.862
29179WAT     H287780   9.733   3.509   5.828
29180WAT      O87781   0.708   9.452   4.773
29180WAT     H187782   0.722   9.407   4.861
29180WAT     H287783   0.740   9.547   4.778
29181WAT      O87784   4.252   7.701   2.038
29181WAT     H187785   4.297   7.679   1.952
29181WAT     H287786   4.276   7.794   2.066
29182WAT      O87787   0.232   0.870   8.436
29182WAT     H187788   0.212   0.911   8.347
29182WAT     H287789   0.329   0.849   8.442
29183WAT      O87790   1.515   4.527   4.959
29183WAT     H187791   1.542   4.489   4.871
29183WAT     H287792   1.538   4.624   4.962
29184WAT      O87793   8.121   2.569   3.637
29184WAT     H187794   8.143   2.628   3.559
29184WAT     H287795   8.104   2.625   3.718
29185WAT      O87796   2.260   1.558   0.121
29185WAT     H187797   2.188   1.538   0.187
29185WAT     H287798   2.343   1.586   0.170
29186WAT      O87799   2.232   4.624   1.826
29186WAT     H187800   2.282   4.707   1.803
29186WAT     H287801   2.189   4.634   1.915
29187WAT      O87802   8.357   7.510   7.900
29187WAT     H187803   8.347   7.530   7.802
29187WAT     H287804   8.299   7.573   7.952
29188WAT      O87805   7.282   8.086   6.397
29188WAT     H187806   7.343   8.137   6.457
29188WAT     H287807   7.217   8.150   6.355
29189WAT      O87808   5.501   3.730   3.139
29189WAT     H187809   5.599   3.710   3.139
29189WAT     H287810   5.486   3.822   3.102
29190WAT      O87811   8.889   4.162   7.326
29190WAT     H187812   8.853   4.235   7.268
29190WAT     H287813   8.855   4.173   7.419
29191WAT      O87814   9.761   2.292   2.054
29191WAT     H187815   9.852   2.294   2.013
29191WAT     H287816   9.708   2.216   2.015
29192WAT      O87817   7.479   7.245   0.164
29192WAT     H187818   7.415   7.195   0.108
29192WAT     H287819   7.453   7.236   0.261
29193WAT      O87820   1.024   7.442   5.136
29193WAT     H187821   1.076   7.436   5.221
29193WAT     H287822   0.951   7.373   5.136
29194WAT      O87823   6.463   1.624   6.590
29194WAT     H187824   6.544   1.593   6.540
29194WAT     H287825   6.487   1.702   6.648
29195WAT      O87826   3.591   9.073   1.149
29195WAT     H187827   3.510   9.098   1.097
29195WAT     H287828   3.618   9.149   1.209
29196WAT      O87829   4.520   7.398   3.723
29196WAT     H187830   4.467   7.469   3.770
29196WAT     H287831   4.465   7.315   3.716
29197WAT      O87832   7.998   8.471   0.836
29197WAT     H187833   8.027   8.553   0.786
29197WAT     H287834   8.046   8.392   0.799
29198WAT      O87835   3.076   3.912   6.923
29198WAT     H187836   2.988   3.914   6.970
29198WAT     H287837   3.133   3.839   6.963
29199WAT      O87838   6.225   1.367   6.436
29199WAT     H187839   6.150   1.332   6.381
29199WAT     H287840   6.249   1.459   6.404
29200WAT      O87841   1.834   8.098   6.718
29200WAT     H187842   1.897   8.175   6.711
29200WAT     H287843   1.877   8.016   6.681
29201WAT      O87844   8.114   4.722   2.633
29201WAT     H187845   8.173   4.766   2.565
29201WAT     H287846   8.066   4.791   2.686
29202WAT      O87847   2.152   4.671   2.074
29202WAT     H187848   2.089   4.736   2.116
29202WAT     H287849   2.223   4.645   2.140
29203WAT      O87850   9.803   1.697   9.870
29203WAT     H187851   9.811   1.785   9.823
29203WAT     H287852   9.749   1.634   9.815
29204WAT      O87853   3.311   2.547   0.628
29204WAT     H187854   3.271   2.591   0.708
29204WAT     H287855   3.405   2.579   0.616
29205WAT      O87856   2.037   1.818   9.471
29205WAT     H187857   2.065   1.723   9.482
29205WAT     H287858   1.938   1.825   9.484
29206WAT      O87859   1.575   3.620   5.812
29206WAT     H187860   1.595   3.653   5.905
29206WAT     H287861   1.504   3.550   5.817
29207WAT      O87862   0.481   5.254   7.184
29207WAT     H187863   0.385   5.255   7.212
29207WAT     H287864   0.516   5.161   7.189
29208WAT      O87865   3.980   8.662   3.060
29208WAT     H187866   3.887   8.697   3.065
29208WAT     H287867   4.045   8.738   3.066
29209WAT      O87868   4.294   8.072   7.480
29209WAT     H187869   4.264   8.102   7.571
29209WAT     H287870   4.217   8.032   7.431
29210WAT      O87871   6.020   5.929   2.791
29210WAT     H187872   6.111   5.929   2.750
29210WAT     H287873   6.016   5.998   2.864
29211WAT      O87874   5.721   5.823   7.977
29211WAT     H187875   5.815   5.856   7.981
29211WAT     H287876   5.686   5.812   8.071
29212WAT      O87877   4.120   4.740   0.805
29212WAT     H187878   4.218   4.726   0.818
29212WAT     H287879   4.104   4.833   0.771
29213WAT      O87880   7.437   8.064   4.119
29213WAT     H187881   7.456   8.153   4.161
29213WAT     H287882   7.339   8.057   4.100
29214WAT      O87883   5.358   1.136   4.419
29214WAT     H187884   5.302   1.190   4.356
29214WAT     H287885   5.302   1.065   4.461
29215WAT      O87886   9.073   5.018   2.371
29215WAT     H187887   9.165   5.058   2.381
29215WAT     H287888   9.022   5.032   2.456
29216WAT      O87889   6.430   8.924   5.313
29216WAT     H187890   6.388   8.873   5.388
29216WAT     H287891   6.404   8.883   5.226
29217WAT      O87892   9.139   0.597   8.616
29217WAT     H187893   9.224   0.626   8.573
29217WAT     H287894   9.083   0.677   8.636
29218WAT      O87895   8.273   7.591   5.089
29218WAT     H187896   8.210   7.639   5.028
29218WAT     H287897   8.221   7.546   5.162
29219WAT      O87898   2.944   0.845   8.146
29219WAT     H187899   2.995   0.794   8.076
29219WAT     H287900   2.910   0.930   8.106
29220WAT      O87901   5.035   1.751   1.711
29220WAT     H187902   5.087   1.821   1.662
29220WAT     H287903   4.949   1.790   1.745
29221WAT      O87904   9.044   2.646   7.270
29221WAT     H187905   8.997   2.562   7.297
29221WAT     H287906   8.995   2.725   7.308
29222WAT      O87907   6.067   7.657   0.329
29222WAT     H187908   6.140   7.699   0.382
29222WAT     H287909   6.054   7.562   0.358
29223WAT      O87910   8.472   7.550   6.076
29223WAT     H187911   8.477   7.454   6.049
29223WAT     H287912   8.378   7.581   6.072
29224WAT      O87913   6.561   9.744   3.767
29224WAT     H187914   6.623   9.683   3.716
29224WAT     H287915   6.605   9.833   3.780
29225WAT      O87916   8.827   3.111   3.977
29225WAT     H187917   8.730   3.126   3.960
29225WAT     H287918   8.839   3.031   4.036
29226WAT      O87919   5.392   9.290   2.417
29226WAT     H187920   5.425   9.383   2.404
29226WAT     H287921   5.307   9.292   2.470
29227WAT      O87922   5.348   3.332   2.110
29227WAT     H187923   5.281   3.279   2.058
29227WAT     H287924   5.324   3.331   2.207
29228WAT      O87925   1.525   0.018   0.725
29228WAT     H187926   1.587   0.095   0.733
29228WAT     H287927   1.577  -0.068   0.727
29229WAT      O87928   3.010   1.129   2.063
29229WAT     H187929   2.910   1.123   2.060
29229WAT     H287930   3.038   1.225   2.061
29230WAT      O87931   3.844   5.987   1.510
29230WAT     H187932   3.879   6.063   1.455
29230WAT     H287933   3.748   5.971   1.486
29231WAT      O87934   8.798   5.271   9.345
29231WAT     H187935   8.824   5.175   9.351
29231WAT     H287936   8.698   5.278   9.342
29232WAT      O87937   0.584   4.738   6.590
29232WAT     H187938   0.588   4.678   6.510
29232WAT     H287939   0.552   4.828   6.562
29233WAT      O87940   8.168   0.134   6.895
29233WAT     H187941   8.184   0.113   6.992
29233WAT     H287942   8.256   0.142   6.848
29234WAT      O87943   8.776   9.700   8.148
29234WAT     H187944   8.795   9.610   8.109
29234WAT     H287945   8.700   9.693   8.212
29235WAT      O87946   6.649   6.411   8.612
29235WAT     H187947   6.680   6.332   8.558
29235WAT     H287948   6.673   6.398   8.708
29236WAT      O87949   4.804   7.042   1.013
29236WAT     H187950   4.859   7.096   1.076
29236WAT     H287951   4.850   7.035   0.925
29237WAT      O87952   8.981   7.099   7.868
29237WAT     H187953   9.044   7.027   7.898
29237WAT     H287954   8.887   7.071   7.888
29238WAT      O87955   6.324   3.834   3.468
29238WAT     H187956   6.331   3.933   3.472
29238WAT     H287957   6.275   3.807   3.384
29239WAT      O87958   3.475   6.202   4.515
29239WAT     H187959   3.467   6.201   4.415
29239WAT     H287960   3.443   6.290   4.550
29240WAT      O87961   6.826   1.165   6.774
29240WAT     H187962   6.798   1.071   6.795
29240WAT     H287963   6.872   1.205   6.853
29241WAT      O87964   9.263   6.870   5.845
29241WAT     H187965   9.232   6.949   5.898
29241WAT     H287966   9.224   6.787   5.882
29242WAT      O87967   1.941   8.141   1.385
29242WAT     H187968   1.950   8.149   1.484
29242WAT     H287969   1.885   8.216   1.350
29243WAT      O87970   8.227   7.467   7.330
29243WAT     H187971   8.230   7.447   7.428
29243WAT     H287972   8.181   7.392   7.282
29244WAT      O87973   1.581   1.847   8.361
29244WAT     H187974   1.568   1.939   8.325
29244WAT     H287975   1.573   1.849   8.461
29245WAT      O87976   9.727   6.422   0.088
29245WAT     H187977   9.659   6.357   0.121
29245WAT     H287978   9.682   6.493   0.033
29246WAT      O87979   0.993   6.658   1.169
29246WAT     H187980   0.942   6.729   1.121
29246WAT     H287981   1.043   6.602   1.102
29247WAT      O87982   0.857   6.001   4.613
29247WAT     H187983   0.821   5.962   4.527
29247WAT     H287984   0.868   5.927   4.680
29248WAT      O87985   9.473   9.772   7.796
29248WAT     H187986   9.387   9.801   7.837
29248WAT     H287987   9.480   9.808   7.703
29249WAT      O87988   9.650   2.719   6.936
29249WAT     H187989   9.594   2.790   6.980
29249WAT     H287990   9.717   2.763   6.876
29250WAT      O87991   3.723   0.040   9.480
29250WAT     H187992   3.649   0.074   9.537
29250WAT     H287993   3.810   0.080   9.510
29251WAT      O87994   8.966   3.077   0.078
29251WAT     H187995   8.950   2.978   0.079
29251WAT     H287996   8.936   3.116   0.165
29252WAT      O87997   0.461   3.516   3.702
29252WAT     H187998   0.379   3.570   3.718
29252WAT     H287999   0.442   3.444   3.636
29253WAT      O88000   3.376   2.112   9.830
29253WAT     H188001   3.326   2.041   9.879
29253WAT     H288002   3.321   2.145   9.753
29254WAT      O88003   7.460   3.151   6.532
29254WAT     H188004   7.506   3.215   6.471
29254WAT     H288005   7.523   3.121   6.603
29255WAT      O88006   0.696   6.694   0.119
29255WAT     H188007   0.716   6.605   0.078
29255WAT     H288008   0.737   6.700   0.210
29256WAT      O88009   1.802   2.614   4.173
29256WAT     H188010   1.807   2.521   4.209
29256WAT     H288011   1.867   2.624   4.098
29257WAT      O88012   7.417   0.985   4.634
29257WAT     H188013   7.467   1.063   4.596
29257WAT     H288014   7.377   1.011   4.722
29258WAT      O88015   8.780   1.217   2.193
29258WAT     H188016   8.870   1.198   2.154
29258WAT     H288017   8.713   1.153   2.155
29259WAT      O88018   1.376   9.707   4.801
29259WAT     H188019   1.330   9.794   4.780
29259WAT     H288020   1.465   9.704   4.756
29260WAT      O88021   8.635   7.566   6.320
29260WAT     H188022   8.568   7.596   6.251
29260WAT     H288023   8.644   7.467   6.317
29261WAT      O88024   1.883   0.045   4.131
29261WAT     H188025   1.934   0.109   4.074
29261WAT     H288026   1.834   0.095   4.202
29262WAT      O88027   9.312   2.641   7.202
29262WAT     H188028   9.329   2.564   7.140
29262WAT     H288029   9.217   2.638   7.233
29263WAT      O88030   9.332   9.204   8.466
29263WAT     H188031   9.374   9.204   8.557
29263WAT     H288032   9.401   9.227   8.398
29264WAT      O88033   2.285   8.381   3.712
29264WAT     H188034   2.198   8.333   3.702
29264WAT     H288035   2.292   8.418   3.804
29265WAT      O88036   8.396   5.413   2.167
29265WAT     H188037   8.468   5.439   2.231
29265WAT     H288038   8.399   5.314   2.151
29266WAT      O88039   4.290   5.187   3.984
29266WAT     H188040   4.263   5.276   4.021
29266WAT     H288041   4.265   5.115   4.048
29267WAT      O88042   4.006   3.951   2.765
29267WAT     H188043   3.911   3.979   2.780
29267WAT     H288044   4.039   3.989   2.679
29268WAT      O88045   7.977   3.812   2.170
29268WAT     H188046   8.032   3.893   2.188
29268WAT     H288047   8.015   3.734   2.220
29269WAT      O88048   1.777   8.393   8.555
29269WAT     H188049   1.777   8.475   8.498
29269WAT     H288050   1.691   8.386   8.604
29270WAT      O88051   5.747   7.216   1.389
29270WAT     H188052   5.832   7.166   1.405
29270WAT     H288053   5.675   7.180   1.448
29271WAT      O88054   6.606   1.402   0.934
29271WAT     H188055   6.572   1.334   0.999
29271WAT     H288056   6.634   1.356   0.849
29272WAT      O88057   7.649   6.119   8.421
29272WAT     H188058   7.588   6.196   8.402
29272WAT     H288059   7.620   6.073   8.505
29273WAT      O88060   3.972   4.832   3.110
29273WAT     H188061   3.999   4.786   3.025
29273WAT     H288062   3.884   4.795   3.141
29274WAT      O88063   0.347   1.039   7.726
29274WAT     H188064   0.403   0.957   7.728
29274WAT     H288065   0.255   1.018   7.760
29275WAT      O88066   9.492   0.811   6.376
29275WAT     H188067   9.568   0.857   6.330
29275WAT     H288068   9.420   0.878   6.395
29276WAT      O88069   5.464   2.633   5.624
29276WAT     H188070   5.434   2.661   5.715
29276WAT     H288071   5.405   2.675   5.555
29277WAT      O88072   2.114   2.940   5.950
29277WAT     H188073   2.089   2.856   5.902
29277WAT     H288074   2.155   3.005   5.886
29278WAT      O88075   2.325   2.641   1.264
29278WAT     H188076   2.245   2.597   1.305
29278WAT     H288077   2.339   2.731   1.305
29279WAT      O88078   1.388   1.158   5.090
29279WAT     H188079   1.412   1.220   5.016
29279WAT     H288080   1.466   1.149   5.153
29280WAT      O88081   6.140   1.613   5.424
29280WAT     H188082   6.150   1.665   5.339
29280WAT     H288083   6.228   1.609   5.471
29281WAT      O88084   6.768   6.280   3.081
29281WAT     H188085   6.855   6.286   3.032
29281WAT     H288086   6.722   6.194   3.057
29282WAT      O88087   6.336   2.691   7.061
29282WAT     H188088   6.335   2.772   7.120
29282WAT     H288089   6.243   2.668   7.034
29283WAT      O88090   8.498   3.618   5.331
29283WAT     H188091   8.420   3.567   5.295
29283WAT     H288092   8.470   3.713   5.347
29284WAT      O88093   5.890   0.201   3.955
29284WAT     H188094   5.802   0.173   3.993
29284WAT     H288095   5.964   0.156   4.007
29285WAT      O88096   0.124   5.690   1.474
29285WAT     H188097   0.181   5.745   1.535
29285WAT     H288098   0.072   5.751   1.413
29286WAT      O88099   7.794   7.295   7.300
29286WAT     H188100   7.708   7.257   7.332
29286WAT     H288101   7.779   7.347   7.216
29287WAT      O88102   8.600   2.658   4.179
29287WAT     H188103   8.606   2.666   4.080
29287WAT     H288104   8.531   2.590   4.203
29288WAT      O88105   6.620   5.112   1.753
29288WAT     H188106   6.616   5.074   1.660
29288WAT     H288107   6.543   5.174   1.767
29289WAT      O88108   2.446   3.827   4.533
29289WAT     H188109   2.406   3.736   4.546
29289WAT     H288110   2.541   3.825   4.565
29290WAT      O88111   7.514   1.226   9.558
29290WAT     H188112   7.540   1.184   9.645
29290WAT     H288113   7.487   1.155   9.493
29291WAT      O88114   1.505   3.292   8.873
29291WAT     H188115   1.525   3.389   8.860
29291WAT     H288116   1.419   3.282   8.924
29292WAT      O88117   9.727   4.900   6.477
29292WAT     H188118   9.670   4.862   6.404
29292WAT     H288119   9.713   4.999   6.482
29293WAT      O88120   0.931   4.554   4.336
29293WAT     H188121   0.846   4.564   4.283
29293WAT     H288122   0.908   4.536   4.432
29294WAT      O88123   8.749   5.221   8.942
29294WAT     H188124   8.825   5.269   8.987
29294WAT     H288125   8.775   5.126   8.927
29295WAT      O88126   6.592   3.870   4.522
29295WAT     H188127   6.581   3.779   4.483
29295WAT     H288128   6.505   3.901   4.561
29296WAT      O88129   0.192   2.564   3.657
29296WAT     H188130   0.170   2.468   3.668
29296WAT     H288131   0.191   2.588   3.560
29297WAT      O88132   7.144   1.838   7.509
29297WAT     H188133   7.080   1.815   7.582
29297WAT     H288134   7.221   1.888   7.548
29298WAT      O88135   6.584   8.589   8.328
29298WAT     H188136   6.490   8.616   8.310
29298WAT     H288137   6.585   8.505   8.383
29299WAT      O88138   2.175   9.179   3.665
29299WAT     H188139   2.084   9.204   3.698
29299WAT     H288140   2.204   9.094   3.710
29300WAT      O88141   1.455   4.806   0.807
29300WAT     H188142   1.536   4.762   0.847
29300WAT     H288143   1.481   4.894   0.768
29301WAT      O88144   2.874   6.262   5.624
29301WAT     H188145   2.957   6.206   5.619
29301WAT     H288146   2.794   6.205   5.608
29302WAT      O88147   5.025   7.489   8.166
29302WAT     H188148   5.062   7.426   8.234
29302WAT     H288149   5.072   7.476   8.079
29303WAT      O88150   8.515   3.869   3.171
29303WAT     H188151   8.521   3.778   3.211
29303WAT     H288152   8.423   3.884   3.133
29304WAT      O88153   6.709   2.757   3.303
29304WAT     H188154   6.753   2.719   3.384
29304WAT     H288155   6.764   2.736   3.222
29305WAT      O88156   3.793   1.048   7.233
29305WAT     H188157   3.693   1.058   7.236
29305WAT     H288158   3.834   1.136   7.213
29306WAT      O88159   5.154   6.511   7.794
29306WAT     H188160   5.061   6.546   7.808
29306WAT     H288161   5.183   6.459   7.875
29307WAT      O88162   8.092   4.144   5.880
29307WAT     H188163   8.171   4.085   5.862
29307WAT     H288164   8.008   4.091   5.870
29308WAT      O88165   3.238   4.621   3.008
29308WAT     H188166   3.227   4.693   2.939
29308WAT     H288167   3.189   4.647   3.091
29309WAT      O88168   9.502   1.635   0.038
29309WAT     H188169   9.536   1.656   0.130
29309WAT     H288170   9.481   1.720  -0.010
29310WAT      O88171   5.011   9.321   4.052
29310WAT     H188172   5.072   9.400   4.063
29310WAT     H288173   4.936   9.345   3.990
29311WAT      O88174   8.488   2.782   1.159
29311WAT     H188175   8.543   2.806   1.079
29311WAT     H288176   8.528   2.702   1.204
29312WAT      O88177   4.941   6.252   1.992
29312WAT     H188178   4.845   6.251   2.019
29312WAT     H288179   4.972   6.158   1.975
29313WAT      O88180   5.781   6.532   1.048
29313WAT     H188181   5.757   6.435   1.049
29313WAT     H288182   5.702   6.585   1.017
29314WAT      O88183   2.009   8.605   3.346
29314WAT     H188184   2.098   8.573   3.379
29314WAT     H288185   2.001   8.703   3.363
29315WAT      O88186   2.497   9.466   3.188
29315WAT     H188187   2.500   9.500   3.094
29315WAT     H288188   2.506   9.543   3.252
29316WAT      O88189   8.259   0.008   2.929
29316WAT     H188190   8.272   0.064   2.848
29316WAT     H288191   8.239   0.066   3.007
29317WAT      O88192   8.479   1.279   7.833
29317WAT     H188193   8.472   1.188   7.792
29317WAT     H288194   8.425   1.281   7.918
29318WAT      O88195   1.188   7.221   3.532
29318WAT     H188196   1.143   7.277   3.602
29318WAT     H288197   1.149   7.241   3.442
29319WAT      O88198   2.141   9.239   1.677
29319WAT     H188199   2.066   9.173   1.674
29319WAT     H288200   2.114   9.317   1.734
29320WAT      O88201   2.536   8.445   0.860
29320WAT     H188202   2.576   8.444   0.768
29320WAT     H288203   2.608   8.433   0.928
29321WAT      O88204   6.932   0.007   7.509
29321WAT     H188205   6.904  -0.075   7.559
29321WAT     H288206   6.868   0.081   7.528
29322WAT      O88207   5.959   6.114   9.211
29322WAT     H188208   5.918   6.062   9.286
29322WAT     H288209   6.050   6.076   9.191
29323WAT      O88210   1.846   5.688   7.719
29323WAT     H188211   1.862   5.771   7.666
29323WAT     H288212   1.758   5.694   7.766
29324WAT      O88213   8.329   3.707   2.183
29324WAT     H188214   8.285   3.618   2.181
29324WAT     H288215   8.379   3.722   2.097
29325WAT      O88216   2.981   7.714   9.691
29325WAT     H188217   3.044   7.689   9.618
29325WAT     H288218   2.888   7.691   9.664
29326WAT      O88219   2.216   1.823   8.036
29326WAT     H188220   2.217   1.778   8.125
29326WAT     H288221   2.162   1.768   7.972
29327WAT      O88222   7.887   5.595   0.203
29327WAT     H188223   7.802   5.603   0.151
29327WAT     H288224   7.934   5.511   0.177
29328WAT      O88225   6.197   6.987   7.101
29328WAT     H188226   6.216   6.932   7.020
29328WAT     H288227   6.256   6.958   7.176
29329WAT      O88228   6.409   8.063   2.281
29329WAT     H188229   6.508   8.074   2.268
29329WAT     H288230   6.368   8.152   2.301
29330WAT      O88231   5.962   1.724   8.694
29330WAT     H188232   5.928   1.658   8.627
29330WAT     H288233   6.034   1.780   8.652
29331WAT      O88234   1.202   8.388   3.937
29331WAT     H188235   1.114   8.355   3.973
29331WAT     H288236   1.197   8.487   3.923
29332WAT      O88237   4.761   7.387   2.998
29332WAT     H188238   4.666   7.375   2.971
29332WAT     H288239   4.772   7.475   3.045
29333WAT      O88240   5.715   3.503   5.831
29333WAT     H188241   5.648   3.572   5.858
29333WAT     H288242   5.790   3.545   5.781
29334WAT      O88243   9.193   9.739   7.296
29334WAT     H188244   9.168   9.777   7.207
29334WAT     H288245   9.281   9.692   7.289
29335WAT      O88246   8.491   8.968   3.041
29335WAT     H188247   8.482   9.040   2.972
29335WAT     H288248   8.554   8.898   3.008
29336WAT      O88249   5.608   6.638   0.647
29336WAT     H188250   5.638   6.572   0.579
29336WAT     H288251   5.587   6.725   0.603
29337WAT      O88252   7.754   7.281   3.734
29337WAT     H188253   7.666   7.233   3.735
29337WAT     H288254   7.815   7.237   3.668
29338WAT      O88255   7.522   7.875   6.341
29338WAT     H188256   7.520   7.972   6.316
29338WAT     H288257   7.430   7.837   6.331
29339WAT      O88258   0.349   9.743   0.066
29339WAT     H188259   0.288   9.690   0.006
29339WAT     H288260   0.407   9.681   0.118
29340WAT      O88261   4.122   8.073   3.045
29340WAT     H188262   4.049   8.048   3.109
29340WAT     H288263   4.192   8.125   3.093
29341WAT      O88264   1.119   7.761   8.922
29341WAT     H188265   1.192   7.753   8.990
29341WAT     H288266   1.089   7.856   8.917
29342WAT      O88267   1.369   5.756   7.026
29342WAT     H188268   1.379   5.780   6.929
29342WAT     H288269   1.382   5.657   7.037
29343WAT      O88270   6.683   7.656   6.599
29343WAT     H188271   6.609   7.601   6.636
29343WAT     H288272   6.713   7.723   6.668
29344WAT      O88273   5.811   3.895   5.179
29344WAT     H188274   5.817   3.797   5.160
29344WAT     H288275   5.832   3.912   5.275
29345WAT      O88276   2.233   6.902   1.432
29345WAT     H188277   2.213   6.882   1.528
29345WAT     H288278   2.264   6.997   1.424
29346WAT      O88279   4.334   8.538   8.165
29346WAT     H188280   4.366   8.627   8.135
29346WAT     H288281   4.299   8.487   8.087
29347WAT      O88282   6.893   4.358   9.403
29347WAT     H188283   6.919   4.379   9.497
29347WAT     H288284   6.904   4.440   9.347
29348WAT      O88285   1.024   2.921   1.511
29348WAT     H188286   1.107   2.944   1.461
29348WAT     H288287   0.955   2.887   1.447
29349WAT      O88288   8.525   7.639   8.850
29349WAT     H188289   8.590   7.703   8.891
29349WAT     H288290   8.432   7.669   8.868
29350WAT      O88291   1.394   3.078   9.517
29350WAT     H188292   1.427   2.984   9.507
29350WAT     H288293   1.390   3.122   9.428
29351WAT      O88294   7.357   9.632   7.171
29351WAT     H188295   7.337   9.708   7.233
29351WAT     H288296   7.383   9.552   7.225
29352WAT      O88297   1.956   4.485   2.852
29352WAT     H188298   1.935   4.551   2.780
29352WAT     H288299   2.048   4.502   2.887
29353WAT      O88300   0.667   6.187   3.334
29353WAT     H188301   0.708   6.099   3.359
29353WAT     H288302   0.737   6.245   3.293
29354WAT      O88303   1.831   1.298   9.010
29354WAT     H188304   1.792   1.361   8.943
29354WAT     H288305   1.928   1.316   9.021
29355WAT      O88306   4.075   5.706   7.513
29355WAT     H188307   4.074   5.774   7.586
29355WAT     H288308   4.087   5.752   7.425
29356WAT      O88309   8.559   1.365   4.575
29356WAT     H188310   8.597   1.413   4.655
29356WAT     H288311   8.468   1.400   4.555
29357WAT      O88312   7.776   6.206   5.770
29357WAT     H188313   7.810   6.240   5.858
29357WAT     H288314   7.741   6.283   5.717
29358WAT      O88315   8.574   3.437   3.352
29358WAT     H188316   8.622   3.403   3.432
29358WAT     H288317   8.525   3.521   3.376
29359WAT      O88318   0.002   1.881   7.233
29359WAT     H188319  -0.063   1.923   7.170
29359WAT     H288320   0.095   1.893   7.199
29360WAT      O88321   6.821   1.338   9.448
29360WAT     H188322   6.825   1.298   9.357
29360WAT     H288323   6.829   1.438   9.440
29361WAT      O88324   4.395   9.179   3.943
29361WAT     H188325   4.433   9.173   3.851
29361WAT     H288326   4.469   9.172   4.010
29362WAT      O88327   2.777   1.801   6.280
29362WAT     H188328   2.875   1.822   6.292
29362WAT     H288329   2.748   1.831   6.189
29363WAT      O88330   2.130   5.574   0.564
29363WAT     H188331   2.097   5.653   0.513
29363WAT     H288332   2.073   5.495   0.543
29364WAT      O88333   5.448   0.657   7.774
29364WAT     H188334   5.542   0.629   7.754
29364WAT     H288335   5.385   0.584   7.750
29365WAT      O88336   0.379   4.766   1.651
29365WAT     H188337   0.453   4.806   1.706
29365WAT     H288338   0.301   4.829   1.650
29366WAT      O88339   2.254   5.510   0.878
29366WAT     H188340   2.300   5.477   0.796
29366WAT     H288341   2.209   5.433   0.924
29367WAT      O88342   2.992   4.364   0.636
29367WAT     H188343   2.967   4.441   0.695
29367WAT     H288344   2.955   4.379   0.545
29368WAT      O88345   9.095   5.148   7.584
29368WAT     H188346   9.126   5.217   7.519
29368WAT     H288347   9.169   5.084   7.603
29369WAT      O88348   5.649   2.092   6.608
29369WAT     H188349   5.658   2.191   6.601
29369WAT     H288350   5.707   2.049   6.539
29370WAT      O88351   3.709   1.040   4.429
29370WAT     H188352   3.671   1.089   4.508
29370WAT     H288353   3.719   0.943   4.451
29371WAT      O88354   7.367   9.548   5.223
29371WAT     H188355   7.350   9.477   5.292
29371WAT     H288356   7.280   9.579   5.185
29372WAT      O88357   2.278   2.586   2.420
29372WAT     H188358   2.370   2.621   2.405
29372WAT     H288359   2.284   2.491   2.452
29373WAT      O88360   9.440   3.481   1.817
29373WAT     H188361   9.359   3.442   1.774
29373WAT     H288362   9.426   3.487   1.916
29374WAT      O88363   3.273   8.474   2.559
29374WAT     H188364   3.195   8.524   2.597
29374WAT     H288365   3.335   8.537   2.514
29375WAT      O88366   2.123   6.943   5.824
29375WAT     H188367   2.031   6.953   5.784
29375WAT     H288368   2.139   6.846   5.844
29376WAT      O88369   3.005   5.388   2.065
29376WAT     H188370   2.953   5.315   2.109
29376WAT     H288371   2.983   5.476   2.107
29377WAT      O88372   1.717   2.125   6.009
29377WAT     H188373   1.735   2.098   5.915
29377WAT     H288374   1.673   2.050   6.058
29378WAT      O88375   9.268   2.293   5.549
29378WAT     H188376   9.200   2.339   5.492
29378WAT     H288377   9.222   2.226   5.608
29379WAT      O88378   0.360   7.591   8.237
29379WAT     H188379   0.290   7.613   8.169
29379WAT     H288380   0.436   7.655   8.228
29380WAT      O88381   6.127   8.403   3.134
29380WAT     H188382   6.079   8.356   3.207
29380WAT     H288383   6.218   8.364   3.122
29381WAT      O88384   8.851   0.590   7.878
29381WAT     H188385   8.791   0.534   7.821
29381WAT     H288386   8.825   0.579   7.974
29382WAT      O88387   6.712   0.568   9.325
29382WAT     H188388   6.791   0.517   9.360
29382WAT     H288389   6.742   0.636   9.259
29383WAT      O88390   0.600   2.232   2.091
29383WAT     H188391   0.570   2.162   2.156
29383WAT     H288392   0.593   2.322   2.134
29384WAT      O88393   6.438   7.917   8.398
29384WAT     H188394   6.517   7.932   8.458
29384WAT     H288395   6.355   7.946   8.446
29385WAT      O88396   6.074   0.902   0.499
29385WAT     H188397   6.103   0.927   0.591
29385WAT     H288398   6.018   0.819   0.503
29386WAT      O88399   4.097   0.192   8.686
29386WAT     H188400   4.052   0.102   8.687
29386WAT     H288401   4.168   0.194   8.616
29387WAT      O88402   7.388   8.362   8.999
29387WAT     H188403   7.418   8.297   8.929
29387WAT     H288404   7.343   8.439   8.955
29388WAT      O88405   7.959   5.521   0.801
29388WAT     H188406   7.884   5.583   0.779
29388WAT     H288407   7.995   5.480   0.717
29389WAT      O88408   5.937   7.134   8.142
29389WAT     H188409   5.854   7.190   8.131
29389WAT     H288410   5.954   7.119   8.239
29390WAT      O88411   7.239   8.370   7.359
29390WAT     H188412   7.294   8.380   7.276
29390WAT     H288413   7.298   8.357   7.438
29391WAT      O88414   5.504   0.969   8.583
29391WAT     H188415   5.423   0.964   8.641
29391WAT     H288416   5.517   0.882   8.537
29392WAT      O88417   4.595   1.580   7.593
29392WAT     H188418   4.631   1.560   7.501
29392WAT     H288419   4.608   1.677   7.613
29393WAT      O88420   4.147   1.902   6.432
29393WAT     H188421   4.127   1.848   6.350
29393WAT     H288422   4.216   1.972   6.409
29394WAT      O88423   9.572   5.625   1.421
29394WAT     H188424   9.575   5.525   1.415
29394WAT     H288425   9.599   5.654   1.513
29395WAT      O88426   6.978   6.468   0.018
29395WAT     H188427   7.001   6.503  -0.073
29395WAT     H288428   6.880   6.479   0.035
29396WAT      O88429   4.586   1.923   1.177
29396WAT     H188430   4.680   1.929   1.143
29396WAT     H288431   4.547   2.015   1.184
29397WAT      O88432   8.348   6.237   7.715
29397WAT     H188433   8.351   6.318   7.657
29397WAT     H288434   8.263   6.187   7.698
29398WAT      O88435   0.629   9.218   6.151
29398WAT     H188436   0.555   9.285   6.151
29398WAT     H288437   0.717   9.266   6.144
29399WAT      O88438   0.315   3.072   5.453
29399WAT     H188439   0.393   3.035   5.402
29399WAT     H288440   0.293   3.011   5.530
29400WAT      O88441   1.330   5.794   4.837
29400WAT     H188442   1.367   5.848   4.912
29400WAT     H288443   1.292   5.709   4.874
29401WAT      O88444   2.135   9.259   0.702
29401WAT     H188445   2.115   9.335   0.640
29401WAT     H288446   2.108   9.173   0.659
29402WAT      O88447   6.083   7.441   3.936
29402WAT     H188448   6.079   7.386   4.019
29402WAT     H288449   6.149   7.515   3.948
29403WAT      O88450   3.227   7.546   2.583
29403WAT     H188451   3.320   7.545   2.548
29403WAT     H288452   3.205   7.457   2.623
29404WAT      O88453   7.788   4.218   7.086
29404WAT     H188454   7.745   4.242   7.173
29404WAT     H288455   7.862   4.283   7.066
29405WAT      O88456   5.358   2.537   6.796
29405WAT     H188457   5.276   2.591   6.776
29405WAT     H288458   5.428   2.597   6.835
29406WAT      O88459   5.304   6.717   4.103
29406WAT     H188460   5.251   6.764   4.173
29406WAT     H288461   5.249   6.706   4.020
29407WAT      O88462   2.472   1.738   9.548
29407WAT     H188463   2.475   1.838   9.559
29407WAT     H288464   2.473   1.695   9.638
29408WAT      O88465   2.803   0.384   8.647
29408WAT     H188466   2.737   0.310   8.660
29408WAT     H288467   2.850   0.402   8.733
29409WAT      O88468   1.331   7.769   4.128
29409WAT     H188469   1.382   7.778   4.214
29409WAT     H288470   1.325   7.673   4.103
29410WAT      O88471   8.070   8.156   4.472
29410WAT     H188472   8.057   8.132   4.568
29410WAT     H288473   8.072   8.072   4.417
29411WAT      O88474   1.880   8.550   6.719
29411WAT     H188475   1.785   8.577   6.728
29411WAT     H288476   1.931   8.621   6.671
29412WAT      O88477   1.727   4.617   2.054
29412WAT     H188478   1.815   4.583   2.085
29412WAT     H288479   1.689   4.680   2.123
29413WAT      O88480   5.256   4.858   7.170
29413WAT     H188481   5.177   4.797   7.179
29413WAT     H288482   5.340   4.803   7.168
29414WAT      O88483   0.328   7.394   2.806
29414WAT     H188484   0.272   7.412   2.725
29414WAT     H288485   0.284   7.324   2.862
29415WAT      O88486   9.777   7.606   8.701
29415WAT     H188487   9.759   7.535   8.633
29415WAT     H288488   9.748   7.695   8.665
29416WAT      O88489   3.296   0.870   8.939
29416WAT     H188490   3.325   0.941   9.002
29416WAT     H288491   3.268   0.789   8.990
29417WAT      O88492   2.706   2.795   1.997
29417WAT     H188493   2.672   2.708   2.032
29417WAT     H288494   2.804   2.801   2.012
29418WAT      O88495   0.664   7.072   5.779
29418WAT     H188496   0.685   7.002   5.711
29418WAT     H288497   0.615   7.031   5.856
29419WAT      O88498   8.640   4.055   4.801
29419WAT     H188499   8.602   4.146   4.786
29419WAT     H288500   8.699   4.031   4.724
29420WAT      O88501   7.333   5.434   0.562
29420WAT     H188502   7.292   5.490   0.634
29420WAT     H288503   7.312   5.338   0.578
29421WAT      O88504   0.153   0.898   4.467
29421WAT     H188505   0.235   0.884   4.523
29421WAT     H288506   0.150   0.993   4.436
29422WAT      O88507   9.641   1.144   3.940
29422WAT     H188508   9.734   1.182   3.944
29422WAT     H288509   9.627   1.102   3.850
29423WAT      O88510   7.542   4.197   6.942
29423WAT     H188511   7.636   4.216   6.973
29423WAT     H288512   7.481   4.192   7.021
29424WAT      O88513   3.117   1.157   8.748
29424WAT     H188514   3.045   1.223   8.728
29424WAT     H288515   3.083   1.064   8.728
29425WAT      O88516   8.993   4.457   7.414
29425WAT     H188517   9.040   4.402   7.482
29425WAT     H288518   8.894   4.446   7.425
29426WAT      O88519   1.245   1.578   2.744
29426WAT     H188520   1.283   1.536   2.662
29426WAT     H288521   1.234   1.508   2.815
29427WAT      O88522   8.104   3.911   7.247
29427WAT     H188523   8.130   3.980   7.314
29427WAT     H288524   8.048   3.953   7.175
29428WAT      O88525   7.024   4.757   0.733
29428WAT     H188526   7.109   4.705   0.726
29428WAT     H288527   7.014   4.816   0.653
29429WAT      O88528   8.284   8.914   9.008
29429WAT     H188529   8.204   8.962   8.971
29429WAT     H288530   8.290   8.931   9.107
29430WAT      O88531   7.434   7.563   0.283
29430WAT     H188532   7.492   7.551   0.364
29430WAT     H288533   7.380   7.647   0.293
29431WAT      O88534   3.160   4.245   9.601
29431WAT     H188535   3.157   4.324   9.539
29431WAT     H288536   3.250   4.241   9.644
29432WAT      O88537   2.532   7.964   8.506
29432WAT     H188538   2.508   8.057   8.534
29432WAT     H288539   2.453   7.920   8.465
29433WAT      O88540   8.448   6.688   8.152
29433WAT     H188541   8.458   6.770   8.209
29433WAT     H288542   8.528   6.678   8.094
29434WAT      O88543   0.119   0.790   7.998
29434WAT     H188544   0.055   0.749   8.062
29434WAT     H288545   0.180   0.720   7.962
29435WAT      O88546   7.974   9.549   4.456
29435WAT     H188547   7.979   9.617   4.529
29435WAT     H288548   8.034   9.472   4.477
29436WAT      O88549   8.678   2.599   3.938
29436WAT     H188550   8.757   2.539   3.927
29436WAT     H288551   8.609   2.576   3.868
29437WAT      O88552   4.268   5.673   8.849
29437WAT     H188553   4.314   5.592   8.813
29437WAT     H288554   4.335   5.730   8.897
29438WAT      O88555   8.990   4.972   6.428
29438WAT     H188556   8.903   4.931   6.401
29438WAT     H288557   8.978   5.021   6.515
29439WAT      O88558   2.399   4.003   0.097
29439WAT     H188559   2.384   3.972   0.191
29439WAT     H288560   2.340   4.082   0.077
29440WAT      O88561   9.536   3.055   1.090
29440WAT     H188562   9.582   3.012   1.168
29440WAT     H288563   9.532   3.154   1.105
29441WAT      O88564   4.810   1.120   0.411
29441WAT     H188565   4.753   1.189   0.456
29441WAT     H288566   4.831   1.150   0.318
29442WAT      O88567   3.617   5.801   0.402
29442WAT     H188568   3.647   5.848   0.320
29442WAT     H288569   3.550   5.857   0.450
29443WAT      O88570   0.438   6.950   2.394
29443WAT     H188571   0.524   6.995   2.419
29443WAT     H288572   0.387   7.010   2.331
29444WAT      O88573   7.624   7.713   5.924
29444WAT     H188574   7.717   7.675   5.917
29444WAT     H288575   7.561   7.643   5.956
29445WAT      O88576   3.464   7.982   6.472
29445WAT     H188577   3.412   7.900   6.496
29445WAT     H288578   3.402   8.048   6.429
29446WAT      O88579   1.477   2.166   7.667
29446WAT     H188580   1.461   2.067   7.672
29446WAT     H288581   1.514   2.198   7.754
29447WAT      O88582   8.620   1.166   6.364
29447WAT     H188583   8.634   1.213   6.452
29447WAT     H288584   8.553   1.093   6.376
29448WAT      O88585   4.367   8.935   9.163
29448WAT     H188586   4.327   9.017   9.122
29448WAT     H288587   4.417   8.960   9.246
29449WAT      O88588   8.814   3.173   8.742
29449WAT     H188589   8.888   3.197   8.679
29449WAT     H288590   8.731   3.222   8.717
29450WAT      O88591   1.810   0.863   6.876
29450WAT     H188592   1.781   0.774   6.909
29450WAT     H288593   1.739   0.901   6.817
29451WAT      O88594   2.064   1.964   1.378
29451WAT     H188595   2.008   1.899   1.430
29451WAT     H288596   2.080   1.928   1.287
29452WAT      O88597   6.395   2.073   3.223
29452WAT     H188598   6.449   2.061   3.140
29452WAT     H288599   6.408   1.995   3.283
29453WAT      O88600   3.963   5.604   0.027
29453WAT     H188601   3.973   5.677  -0.040
29453WAT     H288602   3.989   5.517  -0.014
29454WAT      O88603   3.831   6.825   6.985
29454WAT     H188604   3.840   6.778   7.073
29454WAT     H288605   3.833   6.758   6.911
29455WAT      O88606   4.204   3.530   3.475
29455WAT     H188607   4.234   3.591   3.548
29455WAT     H288608   4.104   3.522   3.477
29456WAT      O88609   3.534   7.047   9.342
29456WAT     H188610   3.579   7.074   9.427
29456WAT     H288611   3.452   6.993   9.364
29457WAT      O88612   7.392   7.741   7.136
29457WAT     H188613   7.438   7.674   7.193
29457WAT     H288614   7.309   7.700   7.096
29458WAT      O88615   6.985   7.894   4.745
29458WAT     H188616   6.959   7.959   4.673
29458WAT     H288617   6.974   7.936   4.835
29459WAT      O88618   0.477   1.631   5.951
29459WAT     H188619   0.534   1.709   5.979
29459WAT     H288620   0.522   1.546   5.978
29460WAT      O88621   0.528   6.242   7.210
29460WAT     H188622   0.627   6.250   7.216
29460WAT     H288623   0.498   6.158   7.256
29461WAT      O88624   9.119   1.969   6.398
29461WAT     H188625   9.158   1.878   6.410
29461WAT     H288626   9.191   2.033   6.373
29462WAT      O88627   2.098   1.547   9.498
29462WAT     H188628   2.190   1.509   9.484
29462WAT     H288629   2.086   1.569   9.595
29463WAT      O88630   3.519   3.227   2.853
29463WAT     H188631   3.544   3.292   2.781
29463WAT     H288632   3.572   3.247   2.935
29464WAT      O88633   6.196   3.064   8.273
29464WAT     H188634   6.222   3.087   8.180
29464WAT     H288635   6.098   3.076   8.284
29465WAT      O88636   2.588   2.132   4.729
29465WAT     H188637   2.491   2.148   4.747
29465WAT     H288638   2.642   2.204   4.772
29466WAT      O88639   3.588   7.911   6.824
29466WAT     H188640   3.501   7.870   6.797
29466WAT     H288641   3.654   7.901   6.749
29467WAT      O88642   2.967   2.644   2.204
29467WAT     H188643   3.049   2.685   2.164
29467WAT     H288644   2.928   2.578   2.141
29468WAT      O88645   2.263   6.242   1.837
29468WAT     H188646   2.212   6.156   1.838
29468WAT     H288647   2.326   6.244   1.913
29469WAT      O88648   8.933   1.582   0.486
29469WAT     H188649   8.898   1.672   0.462
29469WAT     H288650   8.899   1.555   0.576
29470WAT      O88651   3.324   6.545   2.501
29470WAT     H188652   3.293   6.458   2.463
29470WAT     H288653   3.303   6.548   2.599
29471WAT      O88654   1.622   1.468   0.264
29471WAT     H188655   1.530   1.450   0.298
29471WAT     H288656   1.679   1.500   0.340
29472WAT      O88657   3.467   6.880   7.059
29472WAT     H188658   3.567   6.888   7.058
29472WAT     H288659   3.438   6.836   7.144
29473WAT      O88660   2.167   8.840   3.375
29473WAT     H188661   2.225   8.911   3.414
29473WAT     H288662   2.215   8.793   3.301
29474WAT      O88663   2.708   0.452   5.321
29474WAT     H188664   2.719   0.466   5.223
29474WAT     H288665   2.770   0.512   5.371
29475WAT      O88666   9.331   8.687   2.413
29475WAT     H188667   9.405   8.736   2.458
29475WAT     H288668   9.341   8.589   2.427
29476WAT      O88669   1.019   0.105   5.496
29476WAT     H188670   1.079   0.052   5.556
29476WAT     H288671   1.038   0.202   5.507
29477WAT      O88672   6.770   1.663   0.286
29477WAT     H188673   6.841   1.651   0.355
29477WAT     H288674   6.803   1.630   0.197
29478WAT      O88675   1.031   3.270   2.084
29478WAT     H188676   0.968   3.249   2.158
29478WAT     H288677   1.124   3.250   2.113
29479WAT      O88678   8.936   4.799   3.776
29479WAT     H188679   8.974   4.807   3.868
29479WAT     H288680   8.904   4.705   3.761
29480WAT      O88681   9.135   8.410   6.092
29480WAT     H188682   9.065   8.455   6.036
29480WAT     H288683   9.226   8.433   6.056
29481WAT      O88684   9.678   3.700   8.271
29481WAT     H188685   9.677   3.758   8.189
29481WAT     H288686   9.594   3.647   8.275
29482WAT      O88687   5.441   1.492   7.338
29482WAT     H188688   5.387   1.419   7.380
29482WAT     H288689   5.466   1.559   7.408
29483WAT      O88690   0.275   0.507   2.702
29483WAT     H188691   0.215   0.437   2.663
29483WAT     H288692   0.273   0.499   2.802
29484WAT      O88693   8.829   1.232   7.851
29484WAT     H188694   8.868   1.171   7.783
29484WAT     H288695   8.824   1.325   7.814
29485WAT      O88696   8.465   2.788   0.502
29485WAT     H188697   8.442   2.755   0.411
29485WAT     H288698   8.423   2.877   0.516
29486WAT      O88699   1.545   5.455   9.039
29486WAT     H188700   1.605   5.534   9.052
29486WAT     H288701   1.572   5.382   9.101
29487WAT      O88702   1.335   0.100   9.888
29487WAT     H188703   1.271   0.025   9.872
29487WAT     H288704   1.284   0.182   9.916
29488WAT      O88705   8.869   4.840   8.501
29488WAT     H188706   8.852   4.743   8.484
29488WAT     H288707   8.961   4.852   8.537
29489WAT      O88708   9.417   4.442   6.708
29489WAT     H188709   9.335   4.413   6.659
29489WAT     H288710   9.458   4.364   6.753
29490WAT      O88711   4.518   7.179   7.145
29490WAT     H188712   4.511   7.137   7.236
29490WAT     H288713   4.439   7.238   7.130
29491WAT      O88714   6.768   4.447   5.769
29491WAT     H188715   6.837   4.441   5.697
29491WAT     H288716   6.695   4.380   5.752
29492WAT      O88717   7.800   3.680   1.331
29492WAT     H188718   7.808   3.771   1.371
29492WAT     H288719   7.889   3.635   1.332
29493WAT      O88720   3.340   8.722   4.300
29493WAT     H188721   3.294   8.634   4.308
29493WAT     H288722   3.439   8.709   4.306
29494WAT      O88723   4.114   5.840   2.158
29494WAT     H188724   4.082   5.843   2.252
29494WAT     H288725   4.038   5.861   2.096
29495WAT      O88726   2.695   8.009   2.048
29495WAT     H188727   2.671   7.993   2.144
29495WAT     H288728   2.794   8.000   2.037
29496WAT      O88729   4.925   6.414   1.411
29496WAT     H188730   4.884   6.323   1.422
29496WAT     H288731   4.854   6.484   1.415
29497WAT      O88732   3.418   9.834   2.161
29497WAT     H188733   3.472   9.914   2.134
29497WAT     H288734   3.415   9.829   2.261
29498WAT      O88735   1.110   7.878   4.029
29498WAT     H188736   1.055   7.927   4.097
29498WAT     H288737   1.188   7.836   4.074
29499WAT      O88738   6.160   1.921   1.264
29499WAT     H188739   6.195   1.827   1.253
29499WAT     H288740   6.182   1.953   1.356
29500WAT      O88741   1.636   9.785   6.821
29500WAT     H188742   1.735   9.778   6.837
29500WAT     H288743   1.588   9.779   6.908
29501WAT      O88744   0.559   3.457   2.380
29501WAT     H188745   0.563   3.555   2.402
29501WAT     H288746   0.646   3.429   2.339
29502WAT      O88747   6.913   3.612   5.447
29502WAT     H188748   6.882   3.685   5.386
29502WAT     H288749   6.884   3.632   5.540
29503WAT      O88750   7.879   2.732   2.971
29503WAT     H188751   7.790   2.777   2.965
29503WAT     H288752   7.935   2.777   3.041
29504WAT      O88753   3.826   5.442   0.226
29504WAT     H188754   3.892   5.498   0.176
29504WAT     H288755   3.744   5.428   0.170
29505WAT      O88756   8.223   1.997   2.839
29505WAT     H188757   8.264   2.083   2.809
29505WAT     H288758   8.124   2.004   2.838
29506WAT      O88759   3.526   9.337   8.509
29506WAT     H188760   3.551   9.265   8.574
29506WAT     H288761   3.607   9.364   8.456
29507WAT      O88762   7.930   8.785   0.533
29507WAT     H188763   7.996   8.727   0.580
29507WAT     H288764   7.915   8.750   0.441
29508WAT      O88765   5.140   5.231   8.643
29508WAT     H188766   5.188   5.292   8.706
29508WAT     H288767   5.204   5.163   8.607
29509WAT      O88768   1.478   6.718   5.347
29509WAT     H188769   1.396   6.667   5.322
29509WAT     H288770   1.493   6.792   5.282
29510WAT      O88771   4.685   8.493   3.098
29510WAT     H188772   4.600   8.478   3.046
29510WAT     H288773   4.709   8.590   3.095
29511WAT      O88774   7.224   5.244   6.288
29511WAT     H188775   7.277   5.249   6.373
29511WAT     H288776   7.181   5.333   6.272
29512WAT      O88777   6.647   6.278   9.357
29512WAT     H188778   6.648   6.301   9.454
29512WAT     H288779   6.552   6.260   9.329
29513WAT      O88780   0.936   4.530   9.018
29513WAT     H188781   0.997   4.586   9.074
29513WAT     H288782   0.978   4.441   9.001
29514WAT      O88783   1.588   6.095   1.478
29514WAT     H188784   1.619   6.048   1.395
29514WAT     H288785   1.553   6.185   1.453
29515WAT      O88786   7.056   2.154   3.956
29515WAT     H188787   7.041   2.078   4.018
29515WAT     H288788   7.019   2.238   3.996
29516WAT      O88789   6.433   8.957   6.413
29516WAT     H188790   6.440   8.875   6.471
29516WAT     H288791   6.515   8.965   6.357
29517WAT      O88792   3.975   7.228   2.096
29517WAT     H188793   3.937   7.317   2.122
29517WAT     H288794   3.954   7.161   2.166
29518WAT      O88795   2.051   9.452   2.134
29518WAT     H188796   2.127   9.392   2.161
29518WAT     H288797   2.023   9.430   2.041
29519WAT      O88798   1.600   5.762   5.290
29519WAT     H188799   1.556   5.679   5.323
29519WAT     H288800   1.667   5.739   5.219
29520WAT      O88801   3.071   5.687   3.987
29520WAT     H188802   3.096   5.642   3.901
29520WAT     H288803   3.059   5.617   4.058
29521WAT      O88804   4.094   2.545   4.491
29521WAT     H188805   4.042   2.524   4.409
29521WAT     H288806   4.106   2.644   4.499
29522WAT      O88807   8.778   3.589   6.673
29522WAT     H188808   8.832   3.535   6.738
29522WAT     H288809   8.687   3.603   6.710
29523WAT      O88810   7.755   7.780   0.287
29523WAT     H188811   7.829   7.826   0.337
29523WAT     H288812   7.711   7.713   0.347
29524WAT      O88813   7.240   4.338   7.678
29524WAT     H188814   7.285   4.284   7.749
29524WAT     H288815   7.173   4.399   7.720
29525WAT      O88816   9.507   4.516   7.434
29525WAT     H188817   9.437   4.504   7.364
29525WAT     H288818   9.597   4.522   7.390
29526WAT      O88819   3.270   9.487   3.178
29526WAT     H188820   3.262   9.580   3.213
29526WAT     H288821   3.179   9.449   3.162
29527WAT      O88822   8.523   0.291   4.831
29527WAT     H188823   8.446   0.237   4.796
29527WAT     H288824   8.544   0.365   4.766
29528WAT      O88825   8.506   3.262   4.751
29528WAT     H188826   8.445   3.309   4.687
29528WAT     H288827   8.530   3.324   4.826
29529WAT      O88828   6.481   3.990   3.667
29529WAT     H188829   6.412   4.040   3.615
29529WAT     H288830   6.461   3.997   3.765
29530WAT      O88831   3.088   3.602   4.765
29530WAT     H188832   3.071   3.573   4.859
29530WAT     H288833   3.165   3.550   4.727
29531WAT      O88834   5.708   0.909   4.491
29531WAT     H188835   5.718   1.000   4.451
29531WAT     H288836   5.684   0.917   4.587
29532WAT      O88837   8.086   5.083   3.076
29532WAT     H188838   8.150   5.024   3.028
29532WAT     H288839   8.037   5.140   3.009
29533WAT      O88840   0.385   3.427   4.302
29533WAT     H188841   0.469   3.378   4.276
29533WAT     H288842   0.307   3.365   4.299
29534WAT      O88843   3.258   9.669   5.253
29534WAT     H188844   3.223   9.577   5.270
29534WAT     H288845   3.353   9.663   5.225
29535WAT      O88846   8.687   7.893   0.746
29535WAT     H188847   8.780   7.896   0.783
29535WAT     H288848   8.677   7.812   0.688
29536WAT      O88849   9.481   2.296   8.864
29536WAT     H188850   9.439   2.378   8.904
29536WAT     H288851   9.525   2.320   8.778
29537WAT      O88852   1.413   1.319   0.599
29537WAT     H188853   1.410   1.338   0.501
29537WAT     H288854   1.322   1.295   0.631
29538WAT      O88855   2.871   0.576   0.280
29538WAT     H188856   2.920   0.584   0.367
29538WAT     H288857   2.865   0.479   0.254
29539WAT      O88858   4.914   8.342   0.796
29539WAT     H188859   4.818   8.371   0.791
29539WAT     H288860   4.952   8.369   0.884
29540WAT      O88861   8.869   3.901   7.200
29540WAT     H188862   8.867   3.987   7.252
29540WAT     H288863   8.850   3.921   7.104
29541WAT      O88864   8.232   1.619   7.690
29541WAT     H188865   8.326   1.594   7.668
29541WAT     H288866   8.232   1.697   7.752
29542WAT      O88867   1.332   5.336   8.858
29542WAT     H188868   1.294   5.391   8.784
29542WAT     H288869   1.405   5.386   8.904
29543WAT      O88870   3.972   7.256   0.020
29543WAT     H188871   3.916   7.204   0.084
29543WAT     H288872   4.021   7.328   0.070
29544WAT      O88873   7.150   1.207   5.916
29544WAT     H188874   7.092   1.179   5.992
29544WAT     H288875   7.098   1.265   5.853
29545WAT      O88876   9.154   2.342   2.323
29545WAT     H188877   9.236   2.380   2.366
29545WAT     H288878   9.180   2.272   2.256
29546WAT      O88879   5.724   4.114   0.804
29546WAT     H188880   5.704   4.197   0.857
29546WAT     H288881   5.698   4.129   0.708
29547WAT      O88882   2.261   4.032   9.743
29547WAT     H188883   2.276   3.972   9.664
29547WAT     H288884   2.332   4.014   9.811
29548WAT      O88885   5.568   0.323   4.212
29548WAT     H188886   5.597   0.415   4.187
29548WAT     H288887   5.474   0.308   4.183
29549WAT      O88888   1.409   4.672   0.005
29549WAT     H188889   1.456   4.584   0.013
29549WAT     H288890   1.333   4.664  -0.059
29550WAT      O88891   0.418   6.886   5.191
29550WAT     H188892   0.465   6.824   5.253
29550WAT     H288893   0.410   6.977   5.233
29551WAT      O88894   1.558   5.465   9.392
29551WAT     H188895   1.494   5.401   9.349
29551WAT     H288896   1.652   5.434   9.377
29552WAT      O88897   6.339   7.209   0.203
29552WAT     H188898   6.244   7.200   0.172
29552WAT     H288899   6.366   7.127   0.252
29553WAT      O88900   6.340   6.007   5.525
29553WAT     H188901   6.305   5.914   5.534
29553WAT     H288902   6.267   6.068   5.495
29554WAT      O88903   1.558   9.109   6.389
29554WAT     H188904   1.604   9.024   6.364
29554WAT     H288905   1.471   9.115   6.340
29555WAT      O88906   1.784   1.573   3.510
29555WAT     H188907   1.766   1.666   3.480
29555WAT     H288908   1.749   1.560   3.603
29556WAT      O88909   4.605   4.775   8.790
29556WAT     H188910   4.570   4.708   8.856
29556WAT     H288911   4.553   4.860   8.799
29557WAT      O88912   1.270   5.231   5.968
29557WAT     H188913   1.254   5.232   6.067
29557WAT     H288914   1.274   5.136   5.936
29558WAT      O88915   5.052   0.114   1.494
29558WAT     H188916   5.049   0.023   1.536
29558WAT     H288917   4.977   0.124   1.429
29559WAT      O88918   9.878   1.796   1.257
29559WAT     H188919   9.971   1.795   1.294
29559WAT     H288920   9.836   1.886   1.274
29560WAT      O88921   4.088   2.783   1.590
29560WAT     H188922   4.116   2.715   1.524
29560WAT     H288923   3.998   2.820   1.565
29561WAT      O88924   6.814   6.836   3.024
29561WAT     H188925   6.788   6.933   3.031
29561WAT     H288926   6.740   6.784   2.983
29562WAT      O88927   1.492   6.336   1.383
29562WAT     H188928   1.455   6.424   1.355
29562WAT     H288929   1.519   6.284   1.301
29563WAT      O88930   6.073   1.060   9.679
29563WAT     H188931   5.985   1.066   9.726
29563WAT     H288932   6.129   1.140   9.704
29564WAT      O88933   9.460   2.057   3.008
29564WAT     H188934   9.553   2.023   3.023
29564WAT     H288935   9.457   2.110   2.923
29565WAT      O88936   7.787   7.853   3.791
29565WAT     H188937   7.791   7.942   3.745
29565WAT     H288938   7.878   7.812   3.791
29566WAT      O88939   6.121   6.621   8.428
29566WAT     H188940   6.105   6.719   8.438
29566WAT     H288941   6.063   6.572   8.493
29567WAT      O88942   7.908   4.997   0.396
29567WAT     H188943   7.862   4.949   0.470
29567WAT     H288944   7.978   4.937   0.356
29568WAT      O88945   4.700   4.801   2.089
29568WAT     H188946   4.719   4.898   2.095
29568WAT     H288947   4.785   4.751   2.070
29569WAT      O88948   1.784   3.222   4.610
29569WAT     H188949   1.880   3.221   4.638
29569WAT     H288950   1.772   3.285   4.533
29570WAT      O88951   3.983   9.655   5.617
29570WAT     H188952   3.968   9.716   5.695
29570WAT     H288953   4.020   9.707   5.540
29571WAT      O88954   8.085   1.124   9.734
29571WAT     H188955   8.009   1.113   9.798
29571WAT     H288956   8.082   1.216   9.695
29572WAT      O88957   6.145   8.503   4.681
29572WAT     H188958   6.191   8.418   4.706
29572WAT     H288959   6.048   8.486   4.665
29573WAT      O88960   7.878   9.355   8.909
29573WAT     H188961   7.833   9.269   8.933
29573WAT     H288962   7.862   9.375   8.813
29574WAT      O88963   8.191   5.203   7.098
29574WAT     H188964   8.226   5.200   7.004
29574WAT     H288965   8.167   5.111   7.128
29575WAT      O88966   3.272   5.802   6.989
29575WAT     H188967   3.261   5.899   6.967
29575WAT     H288968   3.369   5.778   6.986
29576WAT      O88969   7.950   8.312   4.120
29576WAT     H188970   8.035   8.261   4.132
29576WAT     H288971   7.876   8.248   4.100
29577WAT      O88972   3.860   2.791   3.990
29577WAT     H188973   3.779   2.733   3.988
29577WAT     H288974   3.841   2.878   3.945
29578WAT      O88975   9.030   9.274   2.171
29578WAT     H188976   9.031   9.345   2.101
29578WAT     H288977   9.107   9.212   2.156
29579WAT      O88978   5.874   6.934   6.263
29579WAT     H188979   5.869   7.030   6.235
29579WAT     H288980   5.810   6.880   6.209
29580WAT      O88981   4.592   2.480   8.693
29580WAT     H188982   4.579   2.382   8.678
29580WAT     H288983   4.532   2.531   8.631
29581WAT      O88984   2.513   2.127   8.800
29581WAT     H188985   2.435   2.065   8.793
29581WAT     H288986   2.591   2.077   8.837
29582WAT      O88987   2.361   2.432   6.241
29582WAT     H188988   2.401   2.382   6.164
29582WAT     H288989   2.264   2.449   6.222
29583WAT      O88990   8.890   7.665   0.903
29583WAT     H188991   8.981   7.635   0.873
29583WAT     H288992   8.866   7.620   0.989
29584WAT      O88993   1.414   8.352   8.890
29584WAT     H188994   1.368   8.266   8.869
29584WAT     H288995   1.369   8.395   8.968
29585WAT      O88996   6.847   0.133   3.526
29585WAT     H188997   6.900   0.089   3.453
29585WAT     H288998   6.880   0.101   3.615
29586WAT      O88999   1.236   2.265   7.819
29586WAT     H189000   1.332   2.271   7.846
29586WAT     H289001   1.229   2.216   7.732
29587WAT      O89002   2.181   3.176   5.812
29587WAT     H189003   2.178   3.276   5.820
29587WAT     H289004   2.106   3.145   5.754
29588WAT      O89005   1.477   9.160   8.343
29588WAT     H189006   1.574   9.175   8.363
29588WAT     H289007   1.432   9.118   8.422
29589WAT      O89008   2.548   0.514   6.864
29589WAT     H189009   2.527   0.453   6.941
29589WAT     H289010   2.597   0.462   6.794
29590WAT      O89011   9.055   0.578   2.329
29590WAT     H189012   9.090   0.669   2.353
29590WAT     H289013   8.965   0.588   2.286
29591WAT      O89014   4.959   3.670   6.547
29591WAT     H189015   4.876   3.633   6.590
29591WAT     H289016   4.973   3.764   6.578
29592WAT      O89017   4.932   6.926   7.437
29592WAT     H189018   4.933   7.016   7.394
29592WAT     H289019   4.980   6.861   7.379
29593WAT      O89020   1.511   8.074   1.775
29593WAT     H189021   1.604   8.039   1.788
29593WAT     H289022   1.448   7.998   1.758
29594WAT      O89023   6.961   1.902   3.099
29594WAT     H189024   6.891   1.868   3.036
29594WAT     H289025   7.006   1.982   3.058
29595WAT      O89026   4.485   1.458   0.489
29595WAT     H189027   4.475   1.554   0.462
29595WAT     H289028   4.441   1.444   0.578
29596WAT      O89029   0.273   3.442   1.977
29596WAT     H189030   0.201   3.469   1.913
29596WAT     H289031   0.356   3.419   1.927
29597WAT      O89032   5.841   6.702   7.669
29597WAT     H189033   5.842   6.639   7.592
29597WAT     H289034   5.891   6.786   7.645
29598WAT      O89035   4.532   0.902   1.839
29598WAT     H189036   4.622   0.861   1.848
29598WAT     H289037   4.479   0.852   1.771
29599WAT      O89038   9.648   5.157   6.548
29599WAT     H189039   9.668   5.253   6.529
29599WAT     H289040   9.550   5.147   6.566
29600WAT      O89041   1.440   0.954   6.918
29600WAT     H189042   1.516   0.963   6.853
29600WAT     H289043   1.476   0.943   7.010
29601WAT      O89044   3.227   3.852   7.327
29601WAT     H189045   3.310   3.900   7.300
29601WAT     H289046   3.236   3.821   7.422
29602WAT      O89047   7.258   0.361   3.023
29602WAT     H189048   7.220   0.318   2.942
29602WAT     H289049   7.202   0.337   3.103
29603WAT      O89050   2.364   4.508   4.670
29603WAT     H189051   2.437   4.480   4.732
29603WAT     H289052   2.391   4.591   4.621
29604WAT      O89053   7.106   2.662   8.652
29604WAT     H189054   7.139   2.593   8.587
29604WAT     H289055   7.163   2.743   8.647
29605WAT      O89056   6.599   1.755   5.676
29605WAT     H189057   6.691   1.715   5.671
29605WAT     H289058   6.589   1.826   5.606
29606WAT      O89059   6.805   4.516   6.404
29606WAT     H189060   6.771   4.480   6.491
29606WAT     H289061   6.771   4.459   6.329
29607WAT      O89062   2.367   0.837   4.273
29607WAT     H189063   2.350   0.931   4.304
29607WAT     H289064   2.452   0.803   4.314
29608WAT      O89065   0.880   4.518   4.597
29608WAT     H189066   0.859   4.429   4.636
29608WAT     H289067   0.918   4.578   4.668
29609WAT      O89068   7.720   4.892   9.807
29609WAT     H189069   7.738   4.967   9.871
29609WAT     H289070   7.741   4.805   9.851
29610WAT      O89071   4.188   7.421   6.770
29610WAT     H189072   4.105   7.365   6.767
29610WAT     H289073   4.192   7.478   6.688
29611WAT      O89074   9.838   0.528   3.006
29611WAT     H189075   9.786   0.456   3.052
29611WAT     H289076   9.935   0.518   3.026
29612WAT      O89077   0.259   4.458   9.364
29612WAT     H189078   0.268   4.556   9.345
29612WAT     H289079   0.342   4.424   9.408
29613WAT      O89080   4.525   4.753   9.314
29613WAT     H189081   4.552   4.842   9.276
29613WAT     H289082   4.450   4.714   9.260
29614WAT      O89083   2.743   8.123   5.360
29614WAT     H189084   2.690   8.058   5.305
29614WAT     H289085   2.822   8.155   5.308
29615WAT      O89086   7.440   2.320   6.013
29615WAT     H189087   7.349   2.306   6.050
29615WAT     H289088   7.481   2.401   6.054
29616WAT      O89089   6.495   2.129   6.582
29616WAT     H189090   6.578   2.148   6.635
29616WAT     H289091   6.507   2.164   6.489
29617WAT      O89092   7.299   8.204   9.182
29617WAT     H189093   7.264   8.265   9.252
29617WAT     H289094   7.329   8.258   9.103
29618WAT      O89095   3.316   5.619   1.939
29618WAT     H189096   3.260   5.611   1.856
29618WAT     H289097   3.315   5.533   1.989
29619WAT      O89098   2.890   3.743   3.394
29619WAT     H189099   2.982   3.737   3.433
29619WAT     H289100   2.888   3.815   3.324
29620WAT      O89101   8.491   8.939   8.198
29620WAT     H189102   8.572   8.917   8.144
29620WAT     H289103   8.517   8.963   8.291
29621WAT      O89104   6.429   5.424   8.408
29621WAT     H189105   6.336   5.429   8.371
29621WAT     H289106   6.424   5.409   8.507
29622WAT      O89107   2.992   4.410   7.942
29622WAT     H189108   3.032   4.332   7.989
29622WAT     H289109   3.044   4.432   7.860
29623WAT      O89110   9.394   4.914   5.897
29623WAT     H189111   9.392   4.964   5.811
29623WAT     H289112   9.438   4.825   5.884
29624WAT      O89113   4.783   1.506   7.382
29624WAT     H189114   4.793   1.424   7.325
29624WAT     H289115   4.850   1.574   7.353
29625WAT      O89116   0.788   7.011   4.139
29625WAT     H189117   0.818   7.035   4.046
29625WAT     H289118   0.866   6.973   4.189
29626WAT      O89119   7.377   9.228   7.752
29626WAT     H189120   7.422   9.176   7.680
29626WAT     H289121   7.446   9.266   7.814
29627WAT      O89122   3.903   3.514   3.551
29627WAT     H189123   3.810   3.492   3.578
29627WAT     H289124   3.957   3.540   3.631
29628WAT      O89125   6.203   7.124   5.984
29628WAT     H189126   6.288   7.074   5.970
29628WAT     H289127   6.194   7.148   6.080
29629WAT      O89128   8.150   1.155   2.510
29629WAT     H189129   8.109   1.075   2.554
29629WAT     H289130   8.240   1.172   2.550
29630WAT      O89131   9.248   0.100   5.255
29630WAT     H189132   9.269   0.156   5.175
29630WAT     H289133   9.165   0.046   5.237
29631WAT      O89134   4.866   1.339   4.893
29631WAT     H189135   4.886   1.242   4.882
29631WAT     H289136   4.952   1.390   4.896
29632WAT      O89137   0.767   9.107   9.051
29632WAT     H189138   0.852   9.059   9.029
29632WAT     H289139   0.781   9.206   9.047
29633WAT      O89140   3.859   2.272   3.409
29633WAT     H189141   3.902   2.252   3.321
29633WAT     H289142   3.760   2.270   3.400
29634WAT      O89143   0.073   8.682   1.729
29634WAT     H189144   0.089   8.779   1.745
29634WAT     H289145   0.025   8.643   1.808
29635WAT      O89146   4.131   4.580   1.558
29635WAT     H189147   4.069   4.651   1.590
29635WAT     H289148   4.079   4.496   1.541
29636WAT      O89149   7.433   3.016   4.276
29636WAT     H189150   7.472   2.931   4.240
29636WAT     H289151   7.363   3.050   4.213
29637WAT      O89152   6.759   0.704   2.034
29637WAT     H189153   6.808   0.625   2.071
29637WAT     H289154   6.682   0.673   1.978
29638WAT      O89155   6.847   0.347   3.136
29638WAT     H189156   6.821   0.361   3.040
29638WAT     H289157   6.774   0.383   3.195
29639WAT      O89158   6.340   0.284   3.854
29639WAT     H189159   6.414   0.334   3.899
29639WAT     H289160   6.345   0.187   3.880
29640WAT      O89161   3.151   5.444   6.242
29640WAT     H189162   3.070   5.472   6.189
29640WAT     H289163   3.158   5.344   6.242
29641WAT      O89164   9.103   0.477   8.886
29641WAT     H189165   9.144   0.543   8.823
29641WAT     H289166   9.173   0.412   8.916
29642WAT      O89167   8.320   4.494   3.724
29642WAT     H189168   8.290   4.400   3.738
29642WAT     H289169   8.366   4.527   3.806
29643WAT      O89170   1.661   0.588   2.369
29643WAT     H189171   1.594   0.605   2.442
29643WAT     H289172   1.655   0.493   2.341
29644WAT      O89173   4.749   7.786   8.125
29644WAT     H189174   4.719   7.822   8.036
29644WAT     H289175   4.845   7.810   8.140
29645WAT      O89176   7.879   0.375   7.592
29645WAT     H189177   7.976   0.360   7.611
29645WAT     H289178   7.849   0.314   7.519
29646WAT      O89179   9.644   3.935   9.648
29646WAT     H189180   9.571   3.867   9.648
29646WAT     H289181   9.609   4.022   9.613
29647WAT      O89182   9.439   0.021   1.726
29647WAT     H189183   9.352  -0.026   1.734
29647WAT     H289184   9.424   0.120   1.726
29648WAT      O89185   2.687   6.576   1.721
29648WAT     H189186   2.680   6.528   1.633
29648WAT     H289187   2.687   6.674   1.705
29649WAT      O89188   2.854   7.887   5.507
29649WAT     H189189   2.884   7.933   5.591
29649WAT     H289190   2.829   7.955   5.439
29650WAT      O89191   5.714   1.026   1.170
29650WAT     H189192   5.775   1.078   1.230
29650WAT     H289193   5.763   0.947   1.134
29651WAT      O89194   5.236   7.567   5.726
29651WAT     H189195   5.292   7.507   5.784
29651WAT     H289196   5.147   7.524   5.710
29652WAT      O89197   5.978   7.962   9.341
29652WAT     H189198   6.017   7.875   9.313
29652WAT     H289199   5.971   7.965   9.441
29653WAT      O89200   5.892   0.063   9.860
29653WAT     H189201   5.951   0.086   9.783
29653WAT     H289202   5.942   0.004   9.924
29654WAT      O89203   4.052   2.418   6.391
29654WAT     H189204   4.014   2.510   6.394
29654WAT     H289205   4.020   2.366   6.470
29655WAT      O89206   7.158   1.408   6.569
29655WAT     H189207   7.066   1.373   6.550
29655WAT     H289208   7.215   1.334   6.604
29656WAT      O89209   3.366   9.421   4.771
29656WAT     H189210   3.418   9.492   4.820
29656WAT     H289211   3.268   9.441   4.778
29657WAT      O89212   5.237   1.770   8.209
29657WAT     H189213   5.153   1.739   8.253
29657WAT     H289214   5.259   1.708   8.134
29658WAT      O89215   2.538   8.997   0.878
29658WAT     H189216   2.543   9.070   0.947
29658WAT     H289217   2.467   9.019   0.812
29659WAT      O89218   4.407   2.598   8.522
29659WAT     H189219   4.333   2.576   8.587
29659WAT     H289220   4.400   2.694   8.495
29660WAT      O89221   9.469   7.024   8.879
29660WAT     H189222   9.495   7.101   8.822
29660WAT     H289223   9.445   7.056   8.971
29661WAT      O89224   2.887   7.338   7.891
29661WAT     H189225   2.825   7.332   7.969
29661WAT     H289226   2.835   7.351   7.807
29662WAT      O89227   3.873   1.782   1.465
29662WAT     H189228   3.807   1.793   1.391
29662WAT     H289229   3.964   1.809   1.433
29663WAT      O89230   9.651   2.044   2.006
29663WAT     H189231   9.711   1.973   1.967
29663WAT     H289232   9.648   2.033   2.106
29664WAT      O89233   1.868   7.878   5.494
29664WAT     H189234   1.846   7.964   5.539
29664WAT     H289235   1.955   7.887   5.444
29665WAT      O89236   0.722   3.639   8.343
29665WAT     H189237   0.797   3.671   8.401
29665WAT     H289238   0.637   3.638   8.395
29666WAT      O89239   0.076   1.853   1.616
29666WAT     H189240   0.090   1.783   1.545
29666WAT     H289241   0.088   1.812   1.706
29667WAT      O89242   0.438   9.820   8.719
29667WAT     H189243   0.494   9.890   8.674
29667WAT     H289244   0.412   9.851   8.810
29668WAT      O89245   0.685   4.221   8.251
29668WAT     H189246   0.693   4.122   8.251
29668WAT     H289247   0.746   4.259   8.321
29669WAT      O89248   2.103   2.318   7.879
29669WAT     H189249   2.078   2.379   7.954
29669WAT     H289250   2.108   2.224   7.912
29670WAT      O89251   3.600   2.316   3.047
29670WAT     H189252   3.649   2.242   3.001
29670WAT     H289253   3.616   2.311   3.146
29671WAT      O89254   8.044   7.349   1.454
29671WAT     H189255   8.015   7.335   1.549
29671WAT     H289256   8.141   7.372   1.452
29672WAT      O89257   0.115   2.246   9.007
29672WAT     H189258   0.203   2.217   9.042
29672WAT     H289259   0.098   2.205   8.917
29673WAT      O89260   1.699   2.393   7.319
29673WAT     H189261   1.669   2.480   7.358
29673WAT     H289262   1.797   2.383   7.329
29674WAT      O89263   3.721   5.919   0.176
29674WAT     H189264   3.664   6.000   0.159
29674WAT     H289265   3.797   5.917   0.111
29675WAT      O89266   6.306   0.076   1.689
29675WAT     H189267   6.358   0.075   1.774
29675WAT     H289268   6.289   0.171   1.661
29676WAT      O89269   5.586   9.730   6.737
29676WAT     H189270   5.584   9.795   6.661
29676WAT     H289271   5.636   9.648   6.709
29677WAT      O89272   5.083   2.860   8.151
29677WAT     H189273   5.136   2.890   8.230
29677WAT     H289274   5.144   2.822   8.082
29678WAT      O89275   0.969   6.447   5.525
29678WAT     H189276   0.978   6.543   5.551
29678WAT     H289277   0.959   6.391   5.607
29679WAT      O89278   1.738   9.253   4.548
29679WAT     H189279   1.642   9.266   4.572
29679WAT     H289280   1.745   9.190   4.470
29680WAT      O89281   2.735   2.158   3.026
29680WAT     H189282   2.831   2.155   3.054
29680WAT     H289283   2.724   2.106   2.941
29681WAT      O89284   3.929   5.929   0.025
29681WAT     H189285   4.023   5.907   0.050
29681WAT     H289286   3.919   5.925  -0.074
29682WAT      O89287   8.375   2.451   1.704
29682WAT     H189288   8.320   2.504   1.639
29682WAT     H289289   8.465   2.494   1.714
29683WAT      O89290   3.748   0.185   5.297
29683WAT     H189291   3.814   0.261   5.300
29683WAT     H289292   3.664   0.211   5.344
29684WAT      O89293   8.496   1.949   0.745
29684WAT     H189294   8.564   1.907   0.683
29684WAT     H289295   8.409   1.901   0.736
29685WAT      O89296   7.830   1.861   4.807
29685WAT     H189297   7.759   1.858   4.736
29685WAT     H289298   7.900   1.927   4.780
29686WAT      O89299   2.915   3.940   5.504
29686WAT     H189300   2.837   3.928   5.443
29686WAT     H289301   2.913   3.869   5.575
29687WAT      O89302   0.357   6.438   1.421
29687WAT     H189303   0.275   6.427   1.478
29687WAT     H289304   0.430   6.478   1.475
29688WAT      O89305   2.946   0.981   8.965
29688WAT     H189306   3.001   0.903   8.935
29688WAT     H289307   2.872   0.997   8.899
29689WAT      O89308   8.707   6.189   8.694
29689WAT     H189309   8.781   6.225   8.637
29689WAT     H289310   8.723   6.093   8.713
29690WAT      O89311   6.794   4.216   6.916
29690WAT     H189312   6.764   4.195   6.823
29690WAT     H289313   6.818   4.131   6.963
29691WAT      O89314   4.050   9.681   8.083
29691WAT     H189315   4.117   9.754   8.070
29691WAT     H289316   4.011   9.655   7.995
29692WAT      O89317   9.061   1.140   6.783
29692WAT     H189318   9.150   1.125   6.740
29692WAT     H289319   9.048   1.238   6.799
29693WAT      O89320   8.095   2.533   0.090
29693WAT     H189321   8.025   2.589   0.135
29693WAT     H289322   8.101   2.444   0.137
29694WAT      O89323   0.621   3.838   8.689
29694WAT     H189324   0.530   3.858   8.653
29694WAT     H289325   0.687   3.904   8.652
29695WAT      O89326   6.856   9.325   0.095
29695WAT     H189327   6.951   9.308   0.068
29695WAT     H289328   6.847   9.314   0.194
29696WAT      O89329   7.662   5.510   8.879
29696WAT     H189330   7.619   5.600   8.868
29696WAT     H289331   7.742   5.504   8.819
29697WAT      O89332   7.345   8.502   1.777
29697WAT     H189333   7.331   8.567   1.851
29697WAT     H289334   7.272   8.512   1.709
29698WAT      O89335   5.161   2.619   8.810
29698WAT     H189336   5.240   2.558   8.812
29698WAT     H289337   5.079   2.569   8.837
29699WAT      O89338   0.910   4.413   2.389
29699WAT     H189339   0.979   4.477   2.355
29699WAT     H289340   0.826   4.422   2.335
29700WAT      O89341   0.621   6.150   5.277
29700WAT     H189342   0.713   6.129   5.309
29700WAT     H289343   0.562   6.071   5.291
29701WAT      O89344   6.890   6.875   3.382
29701WAT     H189345   6.897   6.902   3.287
29701WAT     H289346   6.805   6.824   3.397
29702WAT      O89347   3.081   8.520   9.806
29702WAT     H189348   2.990   8.514   9.764
29702WAT     H289349   3.117   8.428   9.821
29703WAT      O89350   4.947   6.423   6.785
29703WAT     H189351   4.979   6.396   6.876
29703WAT     H289352   4.867   6.482   6.794
29704WAT      O89353   4.324   5.921   3.829
29704WAT     H189354   4.375   5.853   3.776
29704WAT     H289355   4.373   6.009   3.827
29705WAT      O89356   4.357   7.245   8.229
29705WAT     H189357   4.334   7.244   8.326
29705WAT     H289358   4.423   7.318   8.211
29706WAT      O89359   3.061   6.916   2.595
29706WAT     H189360   2.992   6.872   2.538
29706WAT     H289361   3.042   6.898   2.691
29707WAT      O89362   7.202   7.857   5.075
29707WAT     H189363   7.297   7.828   5.068
29707WAT     H289364   7.180   7.878   5.170
29708WAT      O89365   1.982   5.830   0.608
29708WAT     H189366   2.030   5.797   0.690
29708WAT     H289367   1.899   5.879   0.636
29709WAT      O89368   5.740   7.305   1.782
29709WAT     H189369   5.761   7.346   1.870
29709WAT     H289370   5.780   7.213   1.777
29710WAT      O89371   4.080   1.437   8.100
29710WAT     H189372   4.120   1.435   8.008
29710WAT     H289373   4.027   1.353   8.115
29711WAT      O89374   3.424   4.607   1.368
29711WAT     H189375   3.427   4.514   1.405
29711WAT     H289376   3.506   4.624   1.314
29712WAT      O89377   3.152   1.885   9.723
29712WAT     H189378   3.190   1.818   9.660
29712WAT     H289379   3.072   1.929   9.681
29713WAT      O89380   4.412   3.383   8.186
29713WAT     H189381   4.380   3.405   8.278
29713WAT     H289382   4.336   3.348   8.131
29714WAT      O89383   0.194   5.176   6.639
29714WAT     H189384   0.221   5.167   6.735
29714WAT     H289385   0.276   5.190   6.583
29715WAT      O89386   3.028   4.646   4.581
29715WAT     H189387   3.062   4.652   4.675
29715WAT     H289388   3.097   4.684   4.519
29716WAT      O89389   2.093   7.938   4.392
29716WAT     H189390   2.192   7.948   4.402
29716WAT     H289391   2.061   7.866   4.453
29717WAT      O89392   1.954   5.334   4.160
29717WAT     H189393   2.013   5.395   4.108
29717WAT     H289394   1.900   5.278   4.098
29718WAT      O89395   0.107   2.930   0.710
29718WAT     H189396   0.159   3.009   0.742
29718WAT     H289397   0.157   2.846   0.733
29719WAT      O89398   7.807   8.866   8.283
29719WAT     H189399   7.900   8.846   8.313
29719WAT     H289400   7.746   8.793   8.312
29720WAT      O89401   7.514   1.028   1.914
29720WAT     H189402   7.444   1.039   1.984
29720WAT     H289403   7.585   0.965   1.946
29721WAT      O89404   3.455   3.782   6.164
29721WAT     H189405   3.509   3.709   6.205
29721WAT     H289406   3.403   3.829   6.235
29722WAT      O89407   6.026   7.250   1.170
29722WAT     H189408   5.977   7.224   1.253
29722WAT     H289409   6.052   7.168   1.119
29723WAT      O89410   4.953   1.725   4.295
29723WAT     H189411   5.009   1.655   4.250
29723WAT     H289412   4.882   1.681   4.350
29724WAT      O89413   0.493   0.873   6.641
29724WAT     H189414   0.412   0.822   6.669
29724WAT     H289415   0.501   0.956   6.696
29725WAT      O89416   6.271   1.716   1.627
29725WAT     H189417   6.300   1.689   1.718
29725WAT     H289418   6.332   1.787   1.592
29726WAT      O89419   8.226   0.355   9.863
29726WAT     H189420   8.227   0.399   9.773
29726WAT     H289421   8.135   0.362   9.903
29727WAT      O89422   9.420   8.193   9.279
29727WAT     H189423   9.517   8.219   9.272
29727WAT     H289424   9.367   8.243   9.211
29728WAT      O89425   3.699   7.437   3.328
29728WAT     H189426   3.652   7.355   3.360
29728WAT     H289427   3.635   7.494   3.276
29729WAT      O89428   0.250   1.082   8.967
29729WAT     H189429   0.212   1.139   9.040
29729WAT     H289430   0.214   1.113   8.879
29730WAT      O89431   4.361   6.753   5.786
29730WAT     H189432   4.378   6.682   5.718
29730WAT     H289433   4.443   6.810   5.796
29731WAT      O89434   1.443   5.213   8.289
29731WAT     H189435   1.467   5.309   8.300
29731WAT     H289436   1.500   5.173   8.217
29732WAT      O89437   3.987   4.899   7.226
29732WAT     H189438   3.922   4.972   7.205
29732WAT     H289439   3.951   4.811   7.194
29733WAT      O89440   8.712   0.885   8.934
29733WAT     H189441   8.614   0.870   8.925
29733WAT     H289442   8.730   0.979   8.962
29734WAT      O89443   9.306   0.407   3.354
29734WAT     H189444   9.317   0.457   3.440
29734WAT     H289445   9.266   0.467   3.285
29735WAT      O89446   3.003   0.877   3.334
29735WAT     H189447   2.942   0.943   3.291
29735WAT     H289448   2.957   0.789   3.341
29736WAT      O89449   5.374   1.398   1.670
29736WAT     H189450   5.413   1.420   1.760
29736WAT     H289451   5.356   1.483   1.620
29737WAT      O89452   2.734   4.216   1.715
29737WAT     H189453   2.728   4.116   1.722
29737WAT     H289454   2.659   4.257   1.767
29738WAT      O89455   3.007   8.385   1.417
29738WAT     H189456   3.017   8.439   1.334
29738WAT     H289457   2.984   8.444   1.494
29739WAT      O89458   9.357   7.411   3.361
29739WAT     H189459   9.260   7.435   3.359
29739WAT     H289460   9.391   7.400   3.268
29740WAT      O89461   9.877   3.826   3.163
29740WAT     H189462   9.803   3.883   3.127
29740WAT     H289463   9.906   3.760   3.093
29741WAT      O89464   0.379   4.106   2.146
29741WAT     H189465   0.391   4.133   2.051
29741WAT     H289466   0.329   4.178   2.195
29742WAT      O89467   5.414   4.616   7.164
29742WAT     H189468   5.389   4.600   7.260
29742WAT     H289469   5.499   4.669   7.161
29743WAT      O89470   2.742   5.257   5.007
29743WAT     H189471   2.763   5.273   4.910
29743WAT     H289472   2.770   5.164   5.032
29744WAT      O89473   6.573   6.788   1.798
29744WAT     H189474   6.523   6.829   1.875
29744WAT     H289475   6.658   6.838   1.782
29745WAT      O89476   0.359   4.264   1.182
29745WAT     H189477   0.343   4.354   1.223
29745WAT     H289478   0.402   4.275   1.092
29746WAT      O89479   3.109   7.423   8.872
29746WAT     H189480   3.086   7.441   8.968
29746WAT     H289481   3.113   7.509   8.822
29747WAT      O89482   2.695   3.611   1.399
29747WAT     H189483   2.611   3.557   1.399
29747WAT     H289484   2.774   3.550   1.408
29748WAT      O89485   2.084   8.285   0.058
29748WAT     H189486   2.065   8.190   0.085
29748WAT     H289487   2.014   8.316  -0.006
29749WAT      O89488   5.516   3.120   7.574
29749WAT     H189489   5.575   3.067   7.634
29749WAT     H289490   5.536   3.217   7.583
29750WAT      O89491   7.294   7.897   5.612
29750WAT     H189492   7.291   7.873   5.709
29750WAT     H289493   7.292   7.996   5.602
29751WAT      O89494   5.354   4.723   2.387
29751WAT     H189495   5.333   4.627   2.406
29751WAT     H289496   5.446   4.744   2.419
29752WAT      O89497   7.025   5.040   2.328
29752WAT     H189498   6.951   4.994   2.280
29752WAT     H289499   7.105   4.981   2.330
29753WAT      O89500   0.979   3.272   4.000
29753WAT     H189501   1.039   3.345   4.033
29753WAT     H289502   0.976   3.199   4.068
29754WAT      O89503   2.511   1.039   8.287
29754WAT     H189504   2.490   1.001   8.377
29754WAT     H289505   2.580   0.982   8.242
29755WAT      O89506   3.671   6.936   2.020
29755WAT     H189507   3.747   6.936   1.955
29755WAT     H289508   3.686   6.865   2.089
29756WAT      O89509   1.051   0.575   9.325
29756WAT     H189510   1.004   0.491   9.297
29756WAT     H289511   1.148   0.569   9.301
29757WAT      O89512   4.768   3.997   6.915
29757WAT     H189513   4.675   3.965   6.929
29757WAT     H289514   4.767   4.084   6.866
29758WAT      O89515   1.382   1.556   4.269
29758WAT     H189516   1.418   1.642   4.231
29758WAT     H289517   1.458   1.496   4.292
29759WAT      O89518   7.633   4.549   1.583
29759WAT     H189519   7.614   4.608   1.662
29759WAT     H289520   7.595   4.458   1.599
29760WAT      O89521   0.355   0.707   9.714
29760WAT     H189522   0.424   0.672   9.651
29760WAT     H289523   0.331   0.801   9.689
29761WAT      O89524   6.499   7.761   8.142
29761WAT     H189525   6.579   7.704   8.160
29761WAT     H289526   6.490   7.830   8.213
29762WAT      O89527   7.649   5.968   6.947
29762WAT     H189528   7.646   6.021   6.862
29762WAT     H289529   7.695   6.021   7.018
29763WAT      O89530   6.886   7.767   8.906
29763WAT     H189531   6.882   7.702   8.830
29763WAT     H289532   6.856   7.721   8.990
29764WAT      O89533   4.418   3.359   5.435
29764WAT     H189534   4.377   3.373   5.526
29764WAT     H289535   4.395   3.435   5.376
29765WAT      O89536   7.840   2.181   8.433
29765WAT     H189537   7.789   2.126   8.367
29765WAT     H289538   7.938   2.173   8.415
29766WAT      O89539   8.360   0.225   8.229
29766WAT     H189540   8.347   0.280   8.311
29766WAT     H289541   8.271   0.209   8.186
29767WAT      O89542   1.518   2.070   0.376
29767WAT     H189543   1.585   2.136   0.342
29767WAT     H289544   1.562   2.006   0.439
29768WAT      O89545   6.596   2.815   7.325
29768WAT     H189546   6.654   2.733   7.330
29768WAT     H289547   6.631   2.876   7.254
29769WAT      O89548   8.301   6.499   1.946
29769WAT     H189549   8.233   6.459   1.884
29769WAT     H289550   8.383   6.523   1.895
29770WAT      O89551   2.486   5.860   5.105
29770WAT     H189552   2.468   5.812   5.020
29770WAT     H289553   2.544   5.939   5.087
29771WAT      O89554   7.269   5.626   8.976
29771WAT     H189555   7.333   5.681   8.921
29771WAT     H289556   7.180   5.671   8.976
29772WAT      O89557   4.134   7.380   0.396
29772WAT     H189558   4.163   7.401   0.302
29772WAT     H289559   4.196   7.313   0.436
29773WAT      O89560   8.470   6.004   1.053
29773WAT     H189561   8.508   6.088   1.093
29773WAT     H289562   8.377   6.022   1.020
29774WAT      O89563   5.160   8.260   3.102
29774WAT     H189564   5.092   8.192   3.127
29774WAT     H289565   5.149   8.342   3.157
29775WAT      O89566   7.952   0.353   0.062
29775WAT     H189567   7.958   0.450   0.087
29775WAT     H289568   7.890   0.342  -0.015
29776WAT      O89569   9.458   3.050   6.562
29776WAT     H189570   9.432   2.956   6.541
29776WAT     H289571   9.556   3.062   6.549
29777WAT      O89572   3.925   4.167   1.899
29777WAT     H189573   3.828   4.175   1.877
29777WAT     H289574   3.978   4.157   1.815
29778WAT      O89575   9.826   1.897   3.700
29778WAT     H189576   9.728   1.895   3.678
29778WAT     H289577   9.860   1.991   3.690
29779WAT      O89578   3.646   4.318   3.938
29779WAT     H189579   3.603   4.368   3.863
29779WAT     H289580   3.722   4.371   3.975
29780WAT      O89581   2.360   7.426   3.062
29780WAT     H189582   2.369   7.384   3.152
29780WAT     H289583   2.436   7.490   3.047
29781WAT      O89584   3.251   8.777   5.353
29781WAT     H189585   3.274   8.864   5.309
29781WAT     H289586   3.295   8.702   5.305
29782WAT      O89587   0.705   9.282   1.105
29782WAT     H189588   0.665   9.373   1.099
29782WAT     H289589   0.697   9.249   1.199
29783WAT      O89590   5.525   6.104   9.611
29783WAT     H189591   5.587   6.027   9.596
29783WAT     H289592   5.456   6.078   9.679
29784WAT      O89593   3.175   0.804   1.228
29784WAT     H189594   3.086   0.765   1.249
29784WAT     H289595   3.247   0.742   1.259
29785WAT      O89596   4.741   0.845   5.970
29785WAT     H189597   4.658   0.840   6.026
29785WAT     H289598   4.767   0.941   5.959
29786WAT      O89599   2.381   7.346   7.616
29786WAT     H189600   2.286   7.320   7.600
29786WAT     H289601   2.441   7.281   7.569
29787WAT      O89602   4.156   4.238   2.906
29787WAT     H189603   4.105   4.231   2.992
29787WAT     H289604   4.214   4.158   2.895
29788WAT      O89605   8.428   1.245   6.151
29788WAT     H189606   8.386   1.181   6.216
29788WAT     H289607   8.360   1.312   6.122
29789WAT      O89608   0.866   0.252   2.083
29789WAT     H189609   0.874   0.336   2.136
29789WAT     H289610   0.770   0.238   2.055
29790WAT      O89611   7.040   9.314   6.840
29790WAT     H189612   7.084   9.364   6.766
29790WAT     H289613   6.960   9.364   6.872
29791WAT      O89614   4.084   2.082   4.091
29791WAT     H189615   4.019   2.140   4.140
29791WAT     H289616   4.065   2.086   3.993
29792WAT      O89617   2.806   5.513   8.356
29792WAT     H189618   2.837   5.481   8.446
29792WAT     H289619   2.763   5.438   8.307
29793WAT      O89620   0.999   0.088   0.649
29793WAT     H189621   1.062   0.086   0.571
29793WAT     H289622   1.025   0.018   0.715
29794WAT      O89623   9.657   6.218   0.695
29794WAT     H189624   9.692   6.125   0.683
29794WAT     H289625   9.726   6.284   0.665
29795WAT      O89626   6.787   1.547   7.937
29795WAT     H189627   6.877   1.568   7.975
29795WAT     H289628   6.717   1.582   7.999
29796WAT      O89629   8.796   7.116   1.897
29796WAT     H189630   8.780   7.021   1.872
29796WAT     H289631   8.889   7.127   1.933
29797WAT      O89632   4.007   8.826   9.241
29797WAT     H189633   3.966   8.909   9.203
29797WAT     H289634   3.948   8.789   9.313
29798WAT      O89635   6.671   0.626   6.417
29798WAT     H189636   6.638   0.621   6.323
29798WAT     H289637   6.662   0.537   6.460
29799WAT      O89638   5.030   8.664   2.778
29799WAT     H189639   5.044   8.575   2.735
29799WAT     H289640   4.932   8.679   2.791
29800WAT      O89641   4.653   1.650   6.892
29800WAT     H189642   4.737   1.647   6.946
29800WAT     H289643   4.574   1.662   6.953
29801WAT      O89644   3.420   6.811   0.948
29801WAT     H189645   3.467   6.787   0.863
29801WAT     H289646   3.438   6.906   0.970
29802WAT      O89647   4.558   1.145   8.784
29802WAT     H189648   4.517   1.083   8.850
29802WAT     H289649   4.607   1.092   8.714
29803WAT      O89650   3.321   0.057   6.148
29803WAT     H189651   3.341   0.154   6.159
29803WAT     H289652   3.273   0.023   6.229
29804WAT      O89653   6.112   6.853   0.374
29804WAT     H189654   6.131   6.789   0.448
29804WAT     H289655   6.020   6.837   0.339
29805WAT      O89656   4.769   0.108   6.097
29805WAT     H189657   4.731   0.058   6.175
29805WAT     H289658   4.734   0.201   6.097
29806WAT      O89659   0.259   9.045   0.422
29806WAT     H189660   0.289   8.997   0.340
29806WAT     H289661   0.295   9.138   0.421
29807WAT      O89662   0.349   3.409   5.786
29807WAT     H189663   0.309   3.318   5.795
29807WAT     H289664   0.309   3.471   5.854
29808WAT      O89665   6.331   0.696   0.642
29808WAT     H189666   6.267   0.654   0.578
29808WAT     H289667   6.314   0.660   0.734
29809WAT      O89668   9.657   6.191   5.061
29809WAT     H189669   9.731   6.130   5.089
29809WAT     H289670   9.645   6.184   4.962
29810WAT      O89671   1.807   3.981   8.664
29810WAT     H189672   1.899   3.990   8.627
29810WAT     H289673   1.799   3.894   8.713
29811WAT      O89674   8.680   1.484   4.791
29811WAT     H189675   8.752   1.414   4.785
29811WAT     H289676   8.653   1.497   4.886
29812WAT      O89677   4.909   2.939   8.552
29812WAT     H189678   4.831   2.927   8.613
29812WAT     H289679   4.992   2.905   8.597
29813WAT      O89680   6.603   1.351   9.610
29813WAT     H189681   6.521   1.359   9.553
29813WAT     H289682   6.681   1.330   9.552
29814WAT      O89683   2.547   5.629   5.991
29814WAT     H189684   2.535   5.645   6.088
29814WAT     H289685   2.539   5.531   5.972
29815WAT      O89686   2.932   6.565   0.409
29815WAT     H189687   2.967   6.659   0.406
29815WAT     H289688   2.900   6.539   0.318
29816WAT      O89689   4.732   9.302   8.788
29816WAT     H189690   4.703   9.389   8.748
29816WAT     H289691   4.800   9.320   8.860
29817WAT      O89692   2.210   2.011   9.098
29817WAT     H189693   2.213   1.974   9.191
29817WAT     H289694   2.114   2.023   9.071
29818WAT      O89695   0.665   2.778   0.479
29818WAT     H189696   0.639   2.869   0.512
29818WAT     H289697   0.600   2.710   0.514
29819WAT      O89698   0.589   0.612   5.420
29819WAT     H189699   0.605   0.541   5.352
29819WAT     H289700   0.497   0.649   5.409
29820WAT      O89701   5.250   0.892   6.100
29820WAT     H189702   5.330   0.952   6.096
29820WAT     H289703   5.243   0.838   6.017
29821WAT      O89704   0.016   4.096   6.895
29821WAT     H189705   0.020   4.105   6.795
29821WAT     H289706   0.038   4.002   6.920
29822WAT      O89707   2.461   2.120   9.104
29822WAT     H189708   2.467   2.192   9.035
29822WAT     H289709   2.371   2.077   9.100
29823WAT      O89710   7.063   5.869   2.549
29823WAT     H189711   7.074   5.780   2.594
29823WAT     H289712   7.016   5.857   2.462
29824WAT      O89713   3.060   8.683   9.222
29824WAT     H189714   3.151   8.717   9.247
29824WAT     H289715   3.011   8.656   9.305
29825WAT      O89716   7.793   7.180   1.972
29825WAT     H189717   7.825   7.267   1.933
29825WAT     H289718   7.723   7.198   2.040
29826WAT      O89719   1.281   4.664   1.164
29826WAT     H189720   1.315   4.586   1.110
29826WAT     H289721   1.246   4.631   1.251
29827WAT      O89722   6.457   6.237   2.104
29827WAT     H189723   6.452   6.188   2.191
29827WAT     H289724   6.545   6.218   2.060
29828WAT      O89725   4.122   7.642   0.707
29828WAT     H189726   4.072   7.580   0.646
29828WAT     H289727   4.072   7.728   0.715
29829WAT      O89728   1.019   0.803   9.803
29829WAT     H189729   1.048   0.738   9.733
29829WAT     H289730   1.075   0.886   9.796
29830WAT      O89731   4.056   3.543   9.406
29830WAT     H189732   3.968   3.511   9.371
29830WAT     H289733   4.114   3.570   9.329
29831WAT      O89734   8.354   2.882   8.445
29831WAT     H189735   8.335   2.861   8.349
29831WAT     H289736   8.441   2.931   8.451
29832WAT      O89737   0.939   0.614   3.459
29832WAT     H189738   0.888   0.694   3.493
29832WAT     H289739   1.032   0.642   3.436
29833WAT      O89740   2.727   1.560   9.180
29833WAT     H189741   2.754   1.612   9.099
29833WAT     H289742   2.692   1.623   9.250
29834WAT      O89743   0.323   8.149   2.447
29834WAT     H189744   0.383   8.179   2.521
29834WAT     H289745   0.245   8.211   2.440
29835WAT      O89746   2.150   6.671   9.680
29835WAT     H189747   2.190   6.580   9.670
29835WAT     H289748   2.111   6.681   9.771
29836WAT      O89749   6.742   4.061   3.214
29836WAT     H189750   6.772   4.083   3.121
29836WAT     H289751   6.746   3.962   3.228
29837WAT      O89752   9.476   9.551   4.001
29837WAT     H189753   9.521   9.629   4.044
29837WAT     H289754   9.382   9.544   4.035
29838WAT      O89755   1.579   4.715   8.114
29838WAT     H189756   1.631   4.800   8.118
29838WAT     H289757   1.642   4.639   8.100
29839WAT      O89758   5.466   6.173   3.674
29839WAT     H189759   5.400   6.132   3.737
29839WAT     H289760   5.526   6.236   3.724
29840WAT      O89761   1.954   3.978   3.546
29840WAT     H189762   1.879   3.947   3.604
29840WAT     H289763   1.926   4.059   3.494
29841WAT      O89764   9.010   7.413   7.764
29841WAT     H189765   9.014   7.317   7.738
29841WAT     H289766   9.079   7.431   7.835
29842WAT      O89767   4.986   9.653   2.740
29842WAT     H189768   5.035   9.604   2.668
29842WAT     H289769   4.946   9.588   2.804
29843WAT      O89770   1.903   9.446   1.105
29843WAT     H189771   1.910   9.486   1.014
29843WAT     H289772   1.899   9.520   1.173
29844WAT      O89773   9.629   8.782   8.395
29844WAT     H189774   9.599   8.733   8.477
29844WAT     H289775   9.557   8.844   8.365
29845WAT      O89776   9.139   9.578   8.765
29845WAT     H189777   9.195   9.526   8.830
29845WAT     H289778   9.197   9.641   8.714
29846WAT      O89779   2.974   8.616   9.508
29846WAT     H189780   2.929   8.574   9.587
29846WAT     H289781   3.001   8.710   9.532
29847WAT      O89782   2.935   2.841   9.266
29847WAT     H189783   2.875   2.761   9.257
29847WAT     H289784   3.022   2.821   9.221
29848WAT      O89785   0.339   6.935   3.345
29848WAT     H189786   0.388   7.012   3.303
29848WAT     H289787   0.396   6.896   3.418
29849WAT      O89788   0.083   5.016   9.327
29849WAT     H189789   0.074   4.940   9.392
29849WAT     H289790   0.176   5.017   9.290
29850WAT      O89791   3.065   5.869   3.423
29850WAT     H189792   3.115   5.893   3.506
29850WAT     H289793   3.101   5.783   3.386
29851WAT      O89794   0.777   3.009   2.656
29851WAT     H189795   0.681   2.984   2.673
29851WAT     H289796   0.837   2.950   2.709
29852WAT      O89797   7.759   8.732   8.938
29852WAT     H189798   7.662   8.709   8.931
29852WAT     H289799   7.780   8.761   9.031
29853WAT      O89800   5.562   6.367   8.196
29853WAT     H189801   5.479   6.372   8.140
29853WAT     H289802   5.642   6.380   8.138
29854WAT      O89803   1.609   2.707   4.867
29854WAT     H189804   1.685   2.770   4.850
29854WAT     H289805   1.534   2.728   4.804
29855WAT      O89806   7.898   5.260   1.999
29855WAT     H189807   7.971   5.281   1.934
29855WAT     H289808   7.937   5.247   2.090
29856WAT      O89809   8.186   6.091   2.674
29856WAT     H189810   8.138   6.057   2.593
29856WAT     H289811   8.129   6.076   2.755
29857WAT      O89812   9.122   5.811   6.348
29857WAT     H189813   9.118   5.903   6.310
29857WAT     H289814   9.117   5.744   6.275
29858WAT      O89815   1.938   0.816   7.300
29858WAT     H189816   1.891   0.801   7.387
29858WAT     H289817   1.963   0.728   7.260
29859WAT      O89818   5.426   0.378   4.824
29859WAT     H189819   5.464   0.434   4.751
29859WAT     H289820   5.401   0.436   4.901
29860WAT      O89821   3.982   5.403   4.977
29860WAT     H189822   3.992   5.495   4.938
29860WAT     H289823   3.982   5.336   4.903
29861WAT      O89824   6.097   8.898   9.328
29861WAT     H189825   6.036   8.872   9.403
29861WAT     H289826   6.148   8.980   9.353
29862WAT      O89827   4.813   3.201   3.914
29862WAT     H189828   4.861   3.220   3.829
29862WAT     H289829   4.859   3.127   3.963
29863WAT      O89830   1.604   7.197   6.110
29863WAT     H189831   1.564   7.280   6.148
29863WAT     H289832   1.671   7.221   6.039
29864WAT      O89833   0.464   0.096   8.132
29864WAT     H189834   0.491   0.063   8.042
29864WAT     H289835   0.368   0.075   8.148
29865WAT      O89836   1.229   7.504   0.092
29865WAT     H189837   1.320   7.483   0.127
29865WAT     H289838   1.220   7.469  -0.001
29866WAT      O89839   3.657   7.317   4.415
29866WAT     H189840   3.657   7.384   4.340
29866WAT     H289841   3.585   7.250   4.399
29867WAT      O89842   2.273   8.099   8.285
29867WAT     H189843   2.183   8.128   8.252
29867WAT     H289844   2.272   8.001   8.303
29868WAT      O89845   4.821   9.684   2.470
29868WAT     H189846   4.790   9.629   2.548
29868WAT     H289847   4.742   9.718   2.420
29869WAT      O89848   0.854   1.647   2.603
29869WAT     H189849   0.785   1.624   2.535
29869WAT     H289850   0.942   1.662   2.558
29870WAT      O89851   8.903   1.004   4.628
29870WAT     H189852   8.873   0.910   4.615
29870WAT     H289853   9.001   1.005   4.647
29871WAT      O89854   6.987   6.167   6.236
29871WAT     H189855   7.080   6.202   6.247
29871WAT     H289856   6.970   6.149   6.139
29872WAT      O89857   8.402   3.556   3.126
29872WAT     H189858   8.401   3.457   3.131
29872WAT     H289859   8.495   3.588   3.111
29873WAT      O89860   9.492   9.266   4.057
29873WAT     H189861   9.512   9.239   4.151
29873WAT     H289862   9.468   9.363   4.055
29874WAT      O89863   6.732   0.488   7.087
29874WAT     H189864   6.674   0.435   7.150
29874WAT     H289865   6.674   0.540   7.025
29875WAT      O89866   7.474   2.630   2.401
29875WAT     H189867   7.427   2.633   2.490
29875WAT     H289868   7.572   2.615   2.415
29876WAT      O89869   7.257   7.533   1.391
29876WAT     H189870   7.349   7.501   1.410
29876WAT     H289871   7.234   7.517   1.295
29877WAT      O89872   9.439   0.649   0.053
29877WAT     H189873   9.392   0.632  -0.034
29877WAT     H289874   9.378   0.624   0.129
29878WAT      O89875   5.131   7.260   6.781
29878WAT     H189876   5.053   7.277   6.842
29878WAT     H289877   5.202   7.211   6.832
29879WAT      O89878   7.432   0.083   0.869
29879WAT     H189879   7.388   0.115   0.953
29879WAT     H289880   7.494   0.008   0.891
29880WAT      O89881   7.448   5.203   6.954
29880WAT     H189882   7.497   5.290   6.942
29880WAT     H289883   7.441   5.183   7.052
29881WAT      O89884   7.518   6.242   8.093
29881WAT     H189885   7.550   6.152   8.066
29881WAT     H289886   7.539   6.258   8.189
29882WAT      O89887   9.496   6.699   8.308
29882WAT     H189888   9.419   6.654   8.263
29882WAT     H289889   9.581   6.676   8.260
29883WAT      O89890   6.320   0.751   7.815
29883WAT     H189891   6.366   0.692   7.749
29883WAT     H289892   6.221   0.744   7.803
29884WAT      O89893   4.706   3.246   1.113
29884WAT     H189894   4.714   3.163   1.058
29884WAT     H289895   4.724   3.225   1.209
29885WAT      O89896   6.651   1.854   9.404
29885WAT     H189897   6.666   1.881   9.499
29885WAT     H289898   6.739   1.843   9.358
29886WAT      O89899   3.800   3.787   5.182
29886WAT     H189900   3.870   3.853   5.208
29886WAT     H289901   3.776   3.732   5.261
29887WAT      O89902   4.388   1.744   8.252
29887WAT     H189903   4.300   1.791   8.247
29887WAT     H289904   4.424   1.750   8.345
29888WAT      O89905   0.980   3.061   4.192
29888WAT     H189906   0.976   2.970   4.151
29888WAT     H289907   0.935   3.059   4.282
29889WAT      O89908   8.607   7.221   4.598
29889WAT     H189909   8.625   7.215   4.696
29889WAT     H289910   8.516   7.258   4.582
29890WAT      O89911   2.736   6.083   0.835
29890WAT     H189912   2.673   6.051   0.906
29890WAT     H289913   2.699   6.061   0.745
29891WAT      O89914   2.892   3.642   4.264
29891WAT     H189915   2.978   3.651   4.313
29891WAT     H289916   2.869   3.545   4.254
29892WAT      O89917   1.170   6.977   0.452
29892WAT     H189918   1.242   7.015   0.511
29892WAT     H289919   1.113   6.915   0.507
29893WAT      O89920   6.832   1.123   5.744
29893WAT     H189921   6.732   1.129   5.739
29893WAT     H289922   6.863   1.159   5.832
29894WAT      O89923   8.590   8.698   1.575
29894WAT     H189924   8.670   8.705   1.515
29894WAT     H289925   8.612   8.735   1.665
29895WAT      O89926   7.796   6.708   7.630
29895WAT     H189927   7.750   6.673   7.712
29895WAT     H289928   7.757   6.797   7.605
29896WAT      O89929   9.588   2.727   3.114
29896WAT     H189930   9.657   2.714   3.043
29896WAT     H289931   9.536   2.810   3.095
29897WAT      O89932   2.114   9.505   1.844
29897WAT     H189933   2.214   9.517   1.842
29897WAT     H289934   2.072   9.573   1.784
29898WAT      O89935   8.840   4.050   5.783
29898WAT     H189936   8.807   4.001   5.702
29898WAT     H289937   8.800   4.142   5.784
29899WAT      O89938   0.168   9.288   6.447
29899WAT     H189939   0.206   9.199   6.424
29899WAT     H289940   0.234   9.341   6.500
29900WAT      O89941   5.958   1.856   7.231
29900WAT     H189942   5.985   1.884   7.323
29900WAT     H289943   5.966   1.934   7.169
29901WAT      O89944   2.276   3.642   6.591
29901WAT     H189945   2.352   3.690   6.635
29901WAT     H289946   2.193   3.654   6.646
29902WAT      O89947   2.752   7.065   6.938
29902WAT     H189948   2.692   7.079   7.017
29902WAT     H289949   2.726   6.979   6.893
29903WAT      O89950   3.455   3.248   0.395
29903WAT     H189951   3.378   3.200   0.436
29903WAT     H289952   3.539   3.196   0.410
29904WAT      O89953   0.680   5.366   6.449
29904WAT     H189954   0.632   5.432   6.506
29904WAT     H289955   0.660   5.273   6.480
29905WAT      O89956   2.898   0.898   1.407
29905WAT     H189957   2.919   0.828   1.338
29905WAT     H289958   2.984   0.932   1.446
29906WAT      O89959   0.757   9.247   0.833
29906WAT     H189960   0.806   9.164   0.806
29906WAT     H289961   0.739   9.245   0.931
29907WAT      O89962   6.262   8.901   3.924
29907WAT     H189963   6.196   8.836   3.887
29907WAT     H289964   6.249   8.909   4.023
29908WAT      O89965   5.214   1.365   8.121
29908WAT     H189966   5.121   1.330   8.123
29908WAT     H289967   5.260   1.343   8.207
29909WAT      O89968   7.373   8.353   0.202
29909WAT     H189969   7.288   8.378   0.249
29909WAT     H289970   7.450   8.402   0.243
29910WAT      O89971   1.254   5.467   5.863
29910WAT     H189972   1.166   5.512   5.843
29910WAT     H289973   1.237   5.371   5.887
29911WAT      O89974   8.899   7.633   7.256
29911WAT     H189975   8.947   7.701   7.311
29911WAT     H289976   8.803   7.658   7.246
29912WAT      O89977   8.477   4.398   5.734
29912WAT     H189978   8.422   4.339   5.675
29912WAT     H289979   8.452   4.493   5.719
29913WAT      O89980   8.488   2.287   4.411
29913WAT     H189981   8.561   2.245   4.356
29913WAT     H289982   8.412   2.222   4.420
29914WAT      O89983   6.642   6.295   3.815
29914WAT     H189984   6.604   6.387   3.822
29914WAT     H289985   6.697   6.287   3.731
29915WAT      O89986   1.546   8.184   1.398
29915WAT     H189987   1.607   8.215   1.470
29915WAT     H289988   1.456   8.227   1.408
29916WAT      O89989   5.119   9.457   4.469
29916WAT     H189990   5.169   9.535   4.507
29916WAT     H289991   5.174   9.411   4.400
29917WAT      O89992   4.280   7.260   6.334
29917WAT     H189993   4.201   7.319   6.318
29917WAT     H289994   4.290   7.196   6.258
29918WAT      O89995   5.900   3.363   3.437
29918WAT     H189996   5.885   3.457   3.406
29918WAT     H289997   5.956   3.363   3.520
29919WAT      O89998   8.840   6.165   9.034
29919WAT     H189999   8.938   6.159   9.053
29919WAT     H290000   8.804   6.073   9.014
29920WAT      O90001   7.985   9.818   3.161
29920WAT     H190002   8.075   9.850   3.132
29920WAT     H290003   7.994   9.759   3.241
29921WAT      O90004   1.442   1.726   8.124
29921WAT     H190005   1.466   1.664   8.049
29921WAT     H290006   1.522   1.738   8.184
29922WAT      O90007   2.235   7.443   1.974
29922WAT     H190008   2.171   7.410   2.043
29922WAT     H290009   2.313   7.381   1.968
29923WAT      O90010   4.606   3.244   7.788
29923WAT     H190011   4.624   3.339   7.813
29923WAT     H290012   4.654   3.223   7.703
29924WAT      O90013   8.405   2.412   0.801
29924WAT     H190014   8.346   2.491   0.787
29924WAT     H290015   8.409   2.357   0.717
29925WAT      O90016   3.516   1.120   7.907
29925WAT     H190017   3.531   1.084   7.999
29925WAT     H290018   3.543   1.051   7.839
29926WAT      O90019   3.429   4.396   1.899
29926WAT     H190020   3.402   4.330   1.969
29926WAT     H290021   3.444   4.486   1.942
29927WAT      O90022   4.955   4.906   0.884
29927WAT     H190023   4.987   4.862   0.801
29927WAT     H290024   4.855   4.896   0.892
29928WAT      O90025   2.037   1.982   5.989
29928WAT     H190026   2.110   1.953   6.051
29928WAT     H290027   1.951   1.938   6.015
29929WAT      O90028   3.838   2.106   0.958
29929WAT     H190029   3.907   2.040   0.928
29929WAT     H290030   3.770   2.060   1.015
29930WAT      O90031   4.418   0.190   1.581
29930WAT     H190032   4.506   0.147   1.603
29930WAT     H290033   4.353   0.172   1.656
29931WAT      O90034   1.788   9.484   9.884
29931WAT     H190035   1.822   9.519   9.971
29931WAT     H290036   1.860   9.491   9.814
29932WAT      O90037   2.942   7.556   6.260
29932WAT     H190038   2.954   7.566   6.161
29932WAT     H290039   2.844   7.564   6.282
29933WAT      O90040   0.801   8.718   3.577
29933WAT     H190041   0.878   8.660   3.551
29933WAT     H290042   0.746   8.671   3.646
29934WAT      O90043   0.626   1.688   9.100
29934WAT     H190044   0.682   1.697   9.183
29934WAT     H290045   0.530   1.676   9.126
29935WAT      O90046   4.751   0.089   3.568
29935WAT     H190047   4.686   0.013   3.563
29935WAT     H290048   4.845   0.053   3.560
29936WAT      O90049   2.387   0.833   0.343
29936WAT     H190050   2.483   0.814   0.367
29936WAT     H290051   2.384   0.877   0.253
29937WAT      O90052   5.151   2.682   6.681
29937WAT     H190053   5.090   2.604   6.678
29937WAT     H290054   5.098   2.767   6.685
29938WAT      O90055   5.759   3.049   5.292
29938WAT     H190056   5.729   3.029   5.198
29938WAT     H290057   5.679   3.046   5.353
29939WAT      O90058   3.779   5.355   2.052
29939WAT     H190059   3.739   5.281   2.105
29939WAT     H290060   3.861   5.389   2.098
29940WAT      O90061   5.866   9.833   5.238
29940WAT     H190062   5.944   9.893   5.256
29940WAT     H290063   5.847   9.778   5.319
29941WAT      O90064   9.261   1.748   1.944
29941WAT     H190065   9.246   1.705   1.855
29941WAT     H290066   9.176   1.789   1.976
29942WAT      O90067   4.039   8.056   4.249
29942WAT     H190068   3.993   8.144   4.263
29942WAT     H290069   3.990   8.004   4.179
29943WAT      O90070   4.066   1.263   5.291
29943WAT     H190071   4.089   1.298   5.201
29943WAT     H290072   3.978   1.215   5.286
29944WAT      O90073   6.252   6.435   1.178
29944WAT     H190074   6.194   6.510   1.148
29944WAT     H290075   6.317   6.411   1.106
29945WAT      O90076   3.710   5.510   4.882
29945WAT     H190077   3.786   5.573   4.899
29945WAT     H290078   3.705   5.442   4.955
29946WAT      O90079   4.424   5.282   4.805
29946WAT     H190080   4.347   5.309   4.862
29946WAT     H290081   4.428   5.183   4.799
29947WAT      O90082   7.493   4.468   4.894
29947WAT     H190083   7.588   4.437   4.898
29947WAT     H290084   7.432   4.389   4.888
29948WAT      O90085   4.491   4.351   6.793
29948WAT     H190086   4.495   4.378   6.696
29948WAT     H290087   4.400   4.316   6.814
29949WAT      O90088   1.227   4.075   8.300
29949WAT     H190089   1.268   3.990   8.333
29949WAT     H290090   1.285   4.153   8.327
29950WAT      O90091   7.427   6.371   4.548
29950WAT     H190092   7.330   6.388   4.564
29950WAT     H290093   7.451   6.401   4.456
29951WAT      O90094   9.431   1.318   7.010
29951WAT     H190095   9.522   1.335   6.972
29951WAT     H290096   9.374   1.398   6.999
29952WAT      O90097   8.035   8.321   2.195
29952WAT     H190098   7.995   8.409   2.223
29952WAT     H290099   7.970   8.272   2.138
29953WAT      O90100   9.652   8.756   7.330
29953WAT     H190101   9.568   8.712   7.296
29953WAT     H290102   9.627   8.829   7.394
29954WAT      O90103   6.613   3.234   3.552
29954WAT     H190104   6.567   3.195   3.473
29954WAT     H290105   6.549   3.290   3.604
29955WAT      O90106   3.803   1.146   2.520
29955WAT     H190107   3.881   1.168   2.461
29955WAT     H290108   3.722   1.131   2.463
29956WAT      O90109   1.151   7.410   7.584
29956WAT     H190110   1.176   7.334   7.644
29956WAT     H290111   1.102   7.479   7.638
29957WAT      O90112   0.321   3.698   1.560
29957WAT     H190113   0.405   3.650   1.535
29957WAT     H290114   0.307   3.776   1.499
29958WAT      O90115   1.466   1.680   1.023
29958WAT     H190116   1.427   1.670   1.114
29958WAT     H290117   1.537   1.610   1.010
29959WAT      O90118   4.750   8.645   8.542
29959WAT     H190119   4.700   8.559   8.551
29959WAT     H290120   4.762   8.686   8.633
29960WAT      O90121   3.108   7.503   7.902
29960WAT     H190122   3.061   7.585   7.936
29960WAT     H290123   3.043   7.428   7.898
29961WAT      O90124   6.914   8.388   6.925
29961WAT     H190125   6.920   8.457   6.996
29961WAT     H290126   6.849   8.317   6.953
29962WAT      O90127   1.953   5.823   9.003
29962WAT     H190128   1.903   5.887   9.062
29962WAT     H290129   1.946   5.852   8.908
29963WAT      O90130   0.846   4.383   7.870
29963WAT     H190131   0.901   4.306   7.900
29963WAT     H290132   0.813   4.367   7.778
29964WAT      O90133   6.147   0.106   3.471
29964WAT     H190134   6.071   0.163   3.439
29964WAT     H290135   6.208   0.086   3.395
29965WAT      O90136   7.984   5.716   9.170
29965WAT     H190137   7.969   5.653   9.094
29965WAT     H290138   7.899   5.729   9.221
29966WAT      O90139   6.411   2.677   4.424
29966WAT     H190140   6.349   2.753   4.401
29966WAT     H290141   6.366   2.617   4.490
29967WAT      O90142   6.149   2.399   7.978
29967WAT     H190143   6.175   2.357   8.065
29967WAT     H290144   6.163   2.498   7.984
29968WAT      O90145   1.755   6.548   9.705
29968WAT     H190146   1.788   6.565   9.798
29968WAT     H290147   1.801   6.610   9.642
29969WAT      O90148   5.340   7.425   8.519
29969WAT     H190149   5.246   7.402   8.497
29969WAT     H290150   5.341   7.499   8.586
29970WAT      O90151   0.158   7.296   2.350
29970WAT     H190152   0.172   7.310   2.448
29970WAT     H290153   0.228   7.234   2.315
29971WAT      O90154   2.442   2.889   1.260
29971WAT     H190155   2.447   2.928   1.352
29971WAT     H290156   2.428   2.963   1.194
29972WAT      O90157   9.635   9.372   7.544
29972WAT     H190158   9.550   9.321   7.546
29972WAT     H290159   9.701   9.331   7.607
29973WAT      O90160   3.087   4.667   0.406
29973WAT     H190161   3.008   4.685   0.464
29973WAT     H290162   3.092   4.734   0.332
29974WAT      O90163   7.903   0.410   3.126
29974WAT     H190164   7.841   0.360   3.187
29974WAT     H290165   7.873   0.397   3.031
29975WAT      O90166   9.761   7.575   0.754
29975WAT     H190167   9.775   7.537   0.663
29975WAT     H290168   9.672   7.545   0.789
29976WAT      O90169   0.915   5.831   2.647
29976WAT     H190170   0.880   5.846   2.555
29976WAT     H290171   1.014   5.823   2.644
29977WAT      O90172   3.737   4.339   6.581
29977WAT     H190173   3.817   4.283   6.603
29977WAT     H290174   3.702   4.382   6.665
29978WAT      O90175   2.889   0.594   3.369
29978WAT     H190176   2.964   0.543   3.411
29978WAT     H290177   2.858   0.546   3.286
29979WAT      O90178   0.264   5.396   9.302
29979WAT     H190179   0.168   5.370   9.309
29979WAT     H290180   0.273   5.495   9.311
29980WAT      O90181   9.397   8.726   8.142
29980WAT     H190182   9.470   8.677   8.094
29980WAT     H290183   9.435   8.774   8.221
29981WAT      O90184   0.138   0.163   8.825
29981WAT     H190185   0.215   0.218   8.857
29981WAT     H290186   0.150   0.068   8.854
29982WAT      O90187   6.096   0.005   9.616
29982WAT     H190188   6.020  -0.060   9.614
29982WAT     H290189   6.062   0.098   9.605
29983WAT      O90190   6.360   4.662   3.827
29983WAT     H190191   6.415   4.740   3.796
29983WAT     H290192   6.365   4.589   3.759
29984WAT      O90193   9.012   3.093   7.227
29984WAT     H190194   9.083   3.050   7.171
29984WAT     H290195   8.961   3.158   7.172
29985WAT      O90196   0.476   4.981   6.459
29985WAT     H190197   0.552   5.024   6.508
29985WAT     H290198   0.416   5.051   6.422
29986WAT      O90199   5.255   9.490   2.230
29986WAT     H190200   5.349   9.510   2.258
29986WAT     H290201   5.221   9.411   2.281
29987WAT      O90202   0.014   9.123   5.159
29987WAT     H190203   0.111   9.139   5.178
29987WAT     H290204   0.003   9.096   5.063
29988WAT      O90205   3.495   4.352   6.466
29988WAT     H190206   3.580   4.313   6.502
29988WAT     H290207   3.426   4.281   6.457
29989WAT      O90208   3.059   2.034   5.828
29989WAT     H190209   3.054   2.133   5.816
29989WAT     H290210   3.152   2.008   5.852
29990WAT      O90211   1.785   6.171   2.795
29990WAT     H190212   1.845   6.239   2.754
29990WAT     H290213   1.741   6.210   2.876
29991WAT      O90214   4.812   3.582   7.308
29991WAT     H190215   4.898   3.611   7.266
29991WAT     H290216   4.761   3.525   7.243
29992WAT      O90217   0.729   2.610   7.620
29992WAT     H190218   0.738   2.701   7.660
29992WAT     H290219   0.819   2.567   7.617
29993WAT      O90220   6.819   1.614   6.199
29993WAT     H190221   6.788   1.519   6.201
29993WAT     H290222   6.900   1.624   6.257
29994WAT      O90223   4.720   1.320   7.179
29994WAT     H190224   4.815   1.325   7.150
29994WAT     H290225   4.690   1.224   7.181
29995WAT      O90226   6.805   8.397   3.966
29995WAT     H190227   6.786   8.479   4.020
29995WAT     H290228   6.904   8.388   3.954
29996WAT      O90229   4.269   8.231   7.714
29996WAT     H190230   4.260   8.280   7.801
29996WAT     H290231   4.360   8.190   7.709
29997WAT      O90232   8.731   2.131   6.458
29997WAT     H190233   8.738   2.186   6.375
29997WAT     H290234   8.671   2.053   6.441
29998WAT      O90235   5.437   6.877   2.566
29998WAT     H190236   5.408   6.792   2.522
29998WAT     H290237   5.487   6.855   2.650
29999WAT      O90238   9.756   5.235   0.611
29999WAT     H190239   9.828   5.297   0.639
29999WAT     H290240   9.711   5.270   0.529
30000WAT      O90241   8.883   2.423   3.852
30000WAT     H190242   8.938   2.392   3.929
30000WAT     H290243   8.923   2.507   3.814
30001WAT      O90244   8.170   3.035   3.565
30001WAT     H190245   8.093   3.021   3.503
30001WAT     H290246   8.218   3.120   3.540
30002WAT      O90247   4.409   8.530   5.951
30002WAT     H190248   4.394   8.446   6.003
30002WAT     H290249   4.506   8.537   5.927
30003WAT      O90250   1.070   4.169   8.519
30003WAT     H190251   1.023   4.253   8.490
30003WAT     H290252   1.111   4.125   8.439
30004WAT      O90253   5.314   4.155   0.138
30004WAT     H190254   5.256   4.076   0.159
30004WAT     H290255   5.325   4.161   0.038
30005WAT      O90256   7.273   2.491   5.672
30005WAT     H190257   7.190   2.526   5.629
30005WAT     H290258   7.266   2.501   5.772
30006WAT      O90259   9.197   1.397   1.345
30006WAT     H190260   9.107   1.370   1.312
30006WAT     H290261   9.235   1.468   1.285
30007WAT      O90262   5.124   3.653   7.538
30007WAT     H190263   5.081   3.701   7.615
30007WAT     H290264   5.223   3.664   7.544
30008WAT      O90265   0.057   6.458   1.703
30008WAT     H190266   0.032   6.548   1.668
30008WAT     H290267   0.069   6.395   1.627
30009WAT      O90268   2.032   3.533   2.519
30009WAT     H190269   2.004   3.555   2.612
30009WAT     H290270   1.958   3.483   2.473
30010WAT      O90271   5.549   8.574   6.700
30010WAT     H190272   5.543   8.571   6.800
30010WAT     H290273   5.624   8.516   6.669
30011WAT      O90274   6.796   5.746   0.276
30011WAT     H190275   6.848   5.662   0.290
30011WAT     H290276   6.855   5.814   0.233
30012WAT      O90277   7.231   4.591   4.541
30012WAT     H190278   7.159   4.658   4.522
30012WAT     H290279   7.226   4.516   4.475
30013WAT      O90280   5.839   7.796   7.060
30013WAT     H190281   5.871   7.857   6.987
30013WAT     H290282   5.917   7.759   7.109
30014WAT      O90283   7.368   4.985   2.514
30014WAT     H190284   7.460   4.983   2.475
30014WAT     H290285   7.303   4.945   2.449
30015WAT      O90286   8.704   3.908   3.668
30015WAT     H190287   8.754   3.905   3.582
30015WAT     H290288   8.650   3.993   3.672
30016WAT      O90289   6.112   6.150   7.610
30016WAT     H190290   6.021   6.108   7.614
30016WAT     H290291   6.175   6.087   7.565
30017WAT      O90292   8.903   4.728   5.373
30017WAT     H190293   8.990   4.690   5.342
30017WAT     H290294   8.849   4.758   5.295
30018WAT      O90295   6.006   5.139   1.561
30018WAT     H190296   5.949   5.171   1.485
30018WAT     H290297   6.070   5.070   1.528
30019WAT      O90298   5.027   8.493   1.012
30019WAT     H190299   5.040   8.564   1.082
30019WAT     H290300   5.094   8.505   0.940
30020WAT      O90301   7.781   9.425   5.178
30020WAT     H190302   7.864   9.371   5.195
30020WAT     H290303   7.807   9.519   5.157
30021WAT      O90304   8.443   7.556   7.620
30021WAT     H190305   8.475   7.649   7.634
30021WAT     H290306   8.518   7.499   7.586
30022WAT      O90307   3.899   8.062   5.878
30022WAT     H190308   3.802   8.084   5.868
30022WAT     H290309   3.911   7.998   5.954
30023WAT      O90310   1.896   1.011   2.560
30023WAT     H190311   1.969   1.014   2.492
30023WAT     H290312   1.808   1.028   2.515
30024WAT      O90313   5.942   2.053   3.885
30024WAT     H190314   5.868   2.066   3.820
30024WAT     H290315   5.946   2.131   3.947
30025WAT      O90316   8.831   3.524   4.599
30025WAT     H190317   8.922   3.503   4.563
30025WAT     H290318   8.803   3.451   4.662
30026WAT      O90319   8.698   3.604   3.160
30026WAT     H190320   8.790   3.639   3.180
30026WAT     H290321   8.679   3.527   3.221
30027WAT      O90322   2.475   6.353   6.468
30027WAT     H190323   2.461   6.271   6.523
30027WAT     H290324   2.425   6.430   6.508
30028WAT      O90325   6.687   5.072   6.695
30028WAT     H190326   6.745   5.042   6.771
30028WAT     H290327   6.603   5.112   6.731
30029WAT      O90328   3.872   9.386   0.790
30029WAT     H190329   3.880   9.432   0.878
30029WAT     H290330   3.934   9.307   0.788
30030WAT      O90331   3.093   3.344   0.580
30030WAT     H190332   3.139   3.261   0.548
30030WAT     H290333   3.147   3.424   0.553
30031WAT      O90334   0.286   7.228   3.170
30031WAT     H190335   0.189   7.243   3.188
30031WAT     H290336   0.297   7.180   3.083
30032WAT      O90337   1.696   7.445   7.939
30032WAT     H190338   1.616   7.391   7.914
30032WAT     H290339   1.704   7.524   7.878
30033WAT      O90340   0.997   0.423   3.699
30033WAT     H190341   0.994   0.490   3.624
30033WAT     H290342   0.925   0.443   3.764
30034WAT      O90343   5.078   7.013   1.602
30034WAT     H190344   5.142   6.938   1.584
30034WAT     H290345   5.129   7.098   1.616
30035WAT      O90346   8.818   2.457   1.897
30035WAT     H190347   8.912   2.456   1.865
30035WAT     H290348   8.813   2.420   1.990
30036WAT      O90349   0.197   5.345   7.163
30036WAT     H190350   0.176   5.271   7.099
30036WAT     H290351   0.175   5.433   7.120
30037WAT      O90352   6.062   4.320   4.783
30037WAT     H190353   6.004   4.319   4.864
30037WAT     H290354   6.158   4.310   4.811
30038WAT      O90355   1.800   1.758   4.841
30038WAT     H190356   1.800   1.718   4.749
30038WAT     H290357   1.808   1.858   4.833
30039WAT      O90358   4.273   6.764   0.587
30039WAT     H190359   4.227   6.679   0.561
30039WAT     H290360   4.372   6.752   0.576
30040WAT      O90361   8.316   1.087   8.290
30040WAT     H190362   8.250   1.033   8.342
30040WAT     H290363   8.374   1.139   8.353
30041WAT      O90364   9.778   6.798   6.829
30041WAT     H190365   9.778   6.876   6.767
30041WAT     H290366   9.812   6.827   6.919
30042WAT      O90367   4.674   6.729   2.499
30042WAT     H190368   4.674   6.700   2.595
30042WAT     H290369   4.580   6.728   2.464
30043WAT      O90370   5.262   6.613   8.253
30043WAT     H190371   5.288   6.571   8.339
30043WAT     H290372   5.247   6.542   8.184
30044WAT      O90373   5.635   3.016   6.079
30044WAT     H190374   5.682   3.090   6.032
30044WAT     H290375   5.660   2.929   6.036
30045WAT      O90376   0.569   5.500   5.899
30045WAT     H190377   0.639   5.436   5.931
30045WAT     H290378   0.514   5.530   5.977
30046WAT      O90379   1.996   3.077   7.107
30046WAT     H190380   2.039   3.078   7.017
30046WAT     H290381   1.897   3.069   7.096
30047WAT      O90382   7.676   7.702   0.741
30047WAT     H190383   7.590   7.690   0.791
30047WAT     H290384   7.744   7.743   0.801
30048WAT      O90385   3.714   3.955   8.193
30048WAT     H190386   3.761   3.874   8.158
30048WAT     H290387   3.667   4.002   8.117
30049WAT      O90388   8.799   0.262   7.286
30049WAT     H190389   8.812   0.167   7.313
30049WAT     H290390   8.709   0.273   7.244
30050WAT      O90391   6.319   1.227   1.819
30050WAT     H190392   6.399   1.281   1.846
30050WAT     H290393   6.272   1.273   1.744
30051WAT      O90394   0.502   6.820   0.684
30051WAT     H190395   0.573   6.890   0.686
30051WAT     H290396   0.501   6.776   0.594
30052WAT      O90397   4.349   2.431   4.356
30052WAT     H190398   4.346   2.374   4.274
30052WAT     H290399   4.256   2.442   4.392
30053WAT      O90400   1.486   3.307   0.221
30053WAT     H190401   1.468   3.235   0.154
30053WAT     H290402   1.536   3.269   0.299
30054WAT      O90403   8.815   1.604   9.674
30054WAT     H190404   8.872   1.559   9.744
30054WAT     H290405   8.719   1.584   9.692
30055WAT      O90406   2.928   9.182   6.443
30055WAT     H190407   2.870   9.205   6.365
30055WAT     H290408   2.959   9.266   6.487
30056WAT      O90409   0.685   0.373   1.248
30056WAT     H190410   0.689   0.332   1.339
30056WAT     H290411   0.682   0.301   1.179
30057WAT      O90412   7.024   5.445   1.632
30057WAT     H190413   6.935   5.480   1.602
30057WAT     H290414   7.084   5.522   1.656
30058WAT      O90415   7.085   4.093   6.727
30058WAT     H190416   7.047   4.062   6.640
30058WAT     H290417   7.093   4.016   6.790
30059WAT      O90418   5.856   0.804   5.789
30059WAT     H190419   5.805   0.772   5.869
30059WAT     H290420   5.825   0.895   5.764
30060WAT      O90421   8.096   6.590   8.394
30060WAT     H190422   8.056   6.672   8.352
30060WAT     H290423   8.154   6.544   8.328
30061WAT      O90424   2.369   1.252   7.661
30061WAT     H190425   2.402   1.171   7.709
30061WAT     H290426   2.431   1.329   7.679
30062WAT      O90427   7.420   5.942   2.294
30062WAT     H190428   7.336   5.887   2.294
30062WAT     H290429   7.399   6.035   2.265
30063WAT      O90430   0.042   7.472   2.980
30063WAT     H190431   0.087   7.538   3.041
30063WAT     H290432   0.045   7.381   3.022
30064WAT      O90433   7.357   0.417   5.710
30064WAT     H190434   7.317   0.450   5.624
30064WAT     H290435   7.293   0.432   5.785
30065WAT      O90436   9.802   4.426   3.774
30065WAT     H190437   9.711   4.410   3.813
30065WAT     H290438   9.844   4.338   3.751
30066WAT      O90439   0.300   2.591   8.296
30066WAT     H190440   0.355   2.647   8.358
30066WAT     H290441   0.339   2.499   8.292
30067WAT      O90442   3.297   0.190   0.904
30067WAT     H190443   3.335   0.192   0.811
30067WAT     H290444   3.357   0.239   0.966
30068WAT      O90445   9.697   9.366   7.973
30068WAT     H190446   9.730   9.433   8.039
30068WAT     H290447   9.617   9.403   7.925
30069WAT      O90448   2.830   5.452   8.974
30069WAT     H190449   2.761   5.510   8.931
30069WAT     H290450   2.850   5.373   8.916
30070WAT      O90451   7.775   6.004   4.261
30070WAT     H190452   7.834   5.999   4.341
30070WAT     H290453   7.765   5.913   4.221
30071WAT      O90454   9.687   5.148   7.573
30071WAT     H190455   9.686   5.165   7.474
30071WAT     H290456   9.774   5.180   7.611
30072WAT      O90457   1.971   1.718   0.883
30072WAT     H190458   1.939   1.807   0.913
30072WAT     H290459   1.903   1.648   0.906
30073WAT      O90460   2.889   3.587   5.404
30073WAT     H190461   2.891   3.511   5.470
30073WAT     H290462   2.979   3.595   5.360
30074WAT      O90463   1.597   6.411   0.351
30074WAT     H190464   1.639   6.426   0.440
30074WAT     H290465   1.666   6.415   0.280
30075WAT      O90466   9.330   0.704   7.439
30075WAT     H190467   9.250   0.753   7.403
30075WAT     H290468   9.393   0.770   7.481
30076WAT      O90469   9.788   6.134   7.426
30076WAT     H190470   9.736   6.208   7.382
30076WAT     H290471   9.738   6.048   7.417
30077WAT      O90472   5.453   3.486   6.654
30077WAT     H190473   5.372   3.542   6.638
30077WAT     H290474   5.434   3.422   6.729
30078WAT      O90475   8.910   9.046   7.211
30078WAT     H190476   8.991   8.987   7.210
30078WAT     H290477   8.850   9.019   7.285
30079WAT      O90478   3.679   1.224   5.576
30079WAT     H190479   3.768   1.237   5.619
30079WAT     H290480   3.640   1.313   5.551
30080WAT      O90481   4.441   9.288   2.937
30080WAT     H190482   4.389   9.274   3.021
30080WAT     H290483   4.383   9.333   2.869
30081WAT      O90484   0.661   1.539   6.342
30081WAT     H190485   0.618   1.461   6.297
30081WAT     H290486   0.591   1.604   6.371
30082WAT      O90487   9.627   8.001   4.501
30082WAT     H190488   9.626   8.012   4.601
30082WAT     H290489   9.661   7.910   4.478
30083WAT      O90490   7.776   1.330   5.394
30083WAT     H190491   7.749   1.235   5.379
30083WAT     H290492   7.695   1.388   5.392
30084WAT      O90493   1.944   5.954   2.963
30084WAT     H190494   1.893   5.950   3.049
30084WAT     H290495   1.882   5.935   2.887
30085WAT      O90496   0.682   2.473   9.670
30085WAT     H190497   0.733   2.404   9.721
30085WAT     H290498   0.720   2.482   9.578
30086WAT      O90499   6.591   3.387   2.974
30086WAT     H190500   6.526   3.463   2.979
30086WAT     H290501   6.679   3.421   2.940
30087WAT      O90502   5.273   0.696   7.156
30087WAT     H190503   5.302   0.670   7.248
30087WAT     H290504   5.293   0.621   7.093
30088WAT      O90505   4.719   7.838   7.870
30088WAT     H190506   4.772   7.920   7.847
30088WAT     H290507   4.721   7.774   7.793
30089WAT      O90508   9.646   9.670   0.572
30089WAT     H190509   9.620   9.642   0.480
30089WAT     H290510   9.608   9.606   0.639
30090WAT      O90511   8.050   5.358   0.553
30090WAT     H190512   8.137   5.347   0.505
30090WAT     H290513   7.976   5.367   0.485
30091WAT      O90514   2.879   8.615   2.435
30091WAT     H190515   2.796   8.664   2.458
30091WAT     H290516   2.921   8.657   2.354
30092WAT      O90517   4.592   3.842   4.224
30092WAT     H190518   4.556   3.810   4.311
30092WAT     H290519   4.653   3.919   4.240
30093WAT      O90520   9.338   5.386   4.882
30093WAT     H190521   9.298   5.468   4.841
30093WAT     H290522   9.368   5.407   4.975
30094WAT      O90523   1.755   6.029   9.601
30094WAT     H190524   1.743   6.128   9.608
30094WAT     H290525   1.709   5.984   9.678
30095WAT      O90526   7.531   5.338   5.549
30095WAT     H190527   7.459   5.308   5.486
30095WAT     H290528   7.540   5.272   5.623
30096WAT      O90529   3.234   9.822   9.262
30096WAT     H190530   3.233   9.727   9.232
30096WAT     H290531   3.277   9.880   9.192
30097WAT      O90532   4.524   9.482   4.704
30097WAT     H190533   4.573   9.558   4.746
30097WAT     H290534   4.585   9.436   4.639
30098WAT      O90535   4.609   8.873   2.365
30098WAT     H190536   4.622   8.807   2.439
30098WAT     H290537   4.571   8.827   2.285
30099WAT      O90538   4.867   1.587   6.435
30099WAT     H190539   4.811   1.656   6.389
30099WAT     H290540   4.845   1.586   6.533
30100WAT      O90541   3.917   9.718   6.315
30100WAT     H190542   3.832   9.673   6.343
30100WAT     H290543   3.923   9.720   6.215
30101WAT      O90544   0.213   0.022   5.509
30101WAT     H190545   0.184   0.004   5.416
30101WAT     H290546   0.176  -0.048   5.570
30102WAT      O90547   1.996   5.419   6.520
30102WAT     H190548   2.049   5.342   6.556
30102WAT     H290549   1.908   5.386   6.487
30103WAT      O90550   7.166   1.124   7.528
30103WAT     H190551   7.208   1.042   7.491
30103WAT     H290552   7.069   1.108   7.546
30104WAT      O90553   8.525   0.693   3.820
30104WAT     H190554   8.481   0.620   3.769
30104WAT     H290555   8.525   0.671   3.918
30105WAT      O90556   8.479   7.096   3.473
30105WAT     H190557   8.436   7.178   3.510
30105WAT     H290558   8.417   7.053   3.407
30106WAT      O90559   9.853   3.754   5.208
30106WAT     H190560   9.790   3.804   5.148
30106WAT     H290561   9.851   3.657   5.185
30107WAT      O90562   8.895   8.732   6.393
30107WAT     H190563   8.906   8.790   6.473
30107WAT     H290564   8.977   8.676   6.382
30108WAT      O90565   3.087   6.619   6.581
30108WAT     H190566   3.017   6.611   6.510
30108WAT     H290567   3.095   6.714   6.610
30109WAT      O90568   3.190   0.894   9.645
30109WAT     H190569   3.126   0.819   9.629
30109WAT     H290570   3.164   0.973   9.589
30110WAT      O90571   5.423   6.578   4.964
30110WAT     H190572   5.378   6.622   5.043
30110WAT     H290573   5.521   6.573   4.981
30111WAT      O90574   7.995   0.904   8.165
30111WAT     H190575   8.065   0.904   8.236
30111WAT     H290576   7.962   0.997   8.150
30112WAT      O90577   5.317   8.281   2.561
30112WAT     H190578   5.299   8.316   2.653
30112WAT     H290579   5.407   8.312   2.530
30113WAT      O90580   2.554   8.328   8.818
30113WAT     H190581   2.579   8.315   8.722
30113WAT     H290582   2.473   8.387   8.824
30114WAT      O90583   2.905   6.062   3.717
30114WAT     H190584   2.983   6.031   3.772
30114WAT     H290585   2.929   6.148   3.672
30115WAT      O90586   6.458   4.012   7.864
30115WAT     H190587   6.393   3.967   7.803
30115WAT     H290588   6.450   4.111   7.854
30116WAT      O90589   0.766   4.895   7.108
30116WAT     H190590   0.787   4.945   7.025
30116WAT     H290591   0.851   4.861   7.149
30117WAT      O90592   1.129   1.801   9.318
30117WAT     H190593   1.082   1.865   9.257
30117WAT     H290594   1.145   1.715   9.270
30118WAT      O90595   0.965   7.175   5.149
30118WAT     H190596   0.889   7.110   5.139
30118WAT     H290597   1.052   7.126   5.139
30119WAT      O90598   4.920   0.527   8.765
30119WAT     H190599   4.951   0.621   8.755
30119WAT     H290600   4.871   0.499   8.682
30120WAT      O90601   1.287   3.453   6.083
30120WAT     H190602   1.287   3.553   6.082
30120WAT     H290603   1.329   3.421   6.168
30121WAT      O90604   0.380   5.894   4.306
30121WAT     H190605   0.382   5.855   4.398
30121WAT     H290606   0.298   5.861   4.258
30122WAT      O90607   0.274   9.032   6.175
30122WAT     H190608   0.345   8.963   6.191
30122WAT     H290609   0.184   8.988   6.180
30123WAT      O90610   2.284   2.636   5.947
30123WAT     H190611   2.206   2.668   5.893
30123WAT     H290612   2.277   2.538   5.960
30124WAT      O90613   0.791   3.610   7.284
30124WAT     H190614   0.800   3.650   7.193
30124WAT     H290615   0.776   3.683   7.351
30125WAT      O90616   7.915   4.717   4.333
30125WAT     H190617   7.922   4.721   4.233
30125WAT     H290618   7.864   4.797   4.365
30126WAT      O90619   4.460   6.135   3.891
30126WAT     H190620   4.545   6.179   3.864
30126WAT     H290621   4.383   6.197   3.874
30127WAT      O90622   3.252   7.231   5.221
30127WAT     H190623   3.181   7.299   5.202
30127WAT     H290624   3.237   7.151   5.163
30128WAT      O90625   2.445   6.671   8.226
30128WAT     H190626   2.408   6.712   8.143
30128WAT     H290627   2.518   6.607   8.202
30129WAT      O90628   2.294   2.263   7.391
30129WAT     H190629   2.300   2.175   7.438
30129WAT     H290630   2.247   2.329   7.450
30130WAT      O90631   9.854   7.089   2.134
30130WAT     H190632   9.827   7.156   2.065
30130WAT     H290633   9.921   7.026   2.094
30131WAT      O90634   2.294   0.035   4.153
30131WAT     H190635   2.255   0.055   4.063
30131WAT     H290636   2.221   0.010   4.217
30132WAT      O90637   7.838   1.160   8.568
30132WAT     H190638   7.830   1.066   8.600
30132WAT     H290639   7.777   1.175   8.491
30133WAT      O90640   4.601   4.289   1.590
30133WAT     H190641   4.610   4.374   1.643
30133WAT     H290642   4.582   4.312   1.495
30134WAT      O90643   1.067   8.395   3.045
30134WAT     H190644   1.124   8.327   2.999
30134WAT     H290645   0.974   8.391   3.008
30135WAT      O90646   3.575   8.284   5.695
30135WAT     H190647   3.617   8.366   5.733
30135WAT     H290648   3.490   8.308   5.649
30136WAT      O90649   7.183   4.955   3.538
30136WAT     H190650   7.253   4.984   3.603
30136WAT     H290651   7.225   4.908   3.460
30137WAT      O90652   5.567   0.882   0.395
30137WAT     H190653   5.499   0.919   0.332
30137WAT     H290654   5.607   0.799   0.356
30138WAT      O90655   7.226   7.428   9.426
30138WAT     H190656   7.292   7.474   9.486
30138WAT     H290657   7.248   7.331   9.421
30139WAT      O90658   8.164   8.249   2.874
30139WAT     H190659   8.066   8.232   2.886
30139WAT     H290660   8.203   8.279   2.961
30140WAT      O90661   2.086   5.650   8.739
30140WAT     H190662   2.116   5.559   8.765
30140WAT     H290663   2.034   5.645   8.653
30141WAT      O90664   0.398   6.231   3.316
30141WAT     H190665   0.383   6.320   3.359
30141WAT     H290666   0.487   6.195   3.344
30142WAT      O90667   6.375   8.597   3.940
30142WAT     H190668   6.378   8.522   4.006
30142WAT     H290669   6.291   8.650   3.953
30143WAT      O90670   9.825   6.684   2.270
30143WAT     H190671   9.832   6.760   2.334
30143WAT     H290672   9.917   6.654   2.243
30144WAT      O90673   7.105   5.334   4.807
30144WAT     H190674   7.084   5.292   4.895
30144WAT     H290675   7.144   5.424   4.820
30145WAT      O90676   4.924   5.991   8.127
30145WAT     H190677   4.926   6.091   8.119
30145WAT     H290678   4.868   5.965   8.205
30146WAT      O90679   0.258   8.904   4.829
30146WAT     H190680   0.172   8.953   4.842
30146WAT     H290681   0.257   8.856   4.742
30147WAT      O90682   9.463   9.043   4.702
30147WAT     H190683   9.406   8.968   4.735
30147WAT     H290684   9.533   9.007   4.640
30148WAT      O90685   6.907   7.589   3.424
30148WAT     H190686   6.849   7.637   3.358
30148WAT     H290687   6.889   7.624   3.516
30149WAT      O90688   3.769   5.569   1.893
30149WAT     H190689   3.761   5.495   1.959
30149WAT     H290690   3.686   5.572   1.837
30150WAT      O90691   2.744   5.907   8.631
30150WAT     H190692   2.742   5.963   8.713
30150WAT     H290693   2.801   5.952   8.562
30151WAT      O90694   6.659   4.065   7.342
30151WAT     H190695   6.752   4.067   7.379
30151WAT     H290696   6.638   4.153   7.299
30152WAT      O90697   3.193   2.292   4.903
30152WAT     H190698   3.152   2.288   4.994
30152WAT     H290699   3.292   2.278   4.910
30153WAT      O90700   3.763   0.126   6.626
30153WAT     H190701   3.843   0.113   6.684
30153WAT     H290702   3.687   0.072   6.661
30154WAT      O90703   8.552   7.836   3.959
30154WAT     H190704   8.489   7.835   3.881
30154WAT     H290705   8.553   7.927   4.000
30155WAT      O90706   6.142   0.338   7.844
30155WAT     H190707   6.241   0.340   7.854
30155WAT     H290708   6.113   0.413   7.783
30156WAT      O90709   7.128   7.557   7.042
30156WAT     H190710   7.042   7.601   7.069
30156WAT     H290711   7.151   7.583   6.949
30157WAT      O90712   6.530   8.005   4.890
30157WAT     H190713   6.521   7.909   4.914
30157WAT     H290714   6.611   8.019   4.834
30158WAT      O90715   4.075   2.652   1.340
30158WAT     H190716   3.982   2.623   1.363
30158WAT     H290717   4.072   2.741   1.296
30159WAT      O90718   9.715   4.636   8.786
30159WAT     H190719   9.698   4.734   8.790
30159WAT     H290720   9.632   4.587   8.813
30160WAT      O90721   5.165   5.079   2.219
30160WAT     H190722   5.123   5.111   2.134
30160WAT     H290723   5.145   4.982   2.232
30161WAT      O90724   1.495   9.483   2.819
30161WAT     H190725   1.415   9.475   2.877
30161WAT     H290726   1.527   9.391   2.794
30162WAT      O90727   2.624   2.234   0.181
30162WAT     H190728   2.594   2.216   0.088
30162WAT     H290729   2.724   2.235   0.185
30163WAT      O90730   9.041   5.554   3.992
30163WAT     H190731   9.030   5.470   3.940
30163WAT     H290732   9.135   5.587   3.983
30164WAT      O90733   2.223   9.196   8.276
30164WAT     H190734   2.161   9.267   8.243
30164WAT     H290735   2.275   9.159   8.199
30165WAT      O90736   4.704   4.095   3.444
30165WAT     H190737   4.683   4.122   3.350
30165WAT     H290738   4.631   4.125   3.505
30166WAT      O90739   6.981   3.738   0.836
30166WAT     H190740   6.962   3.689   0.751
30166WAT     H290741   6.904   3.799   0.858
30167WAT      O90742   7.161   2.122   3.247
30167WAT     H190743   7.102   2.154   3.172
30167WAT     H290744   7.252   2.163   3.238
30168WAT      O90745   5.350   0.967   4.024
30168WAT     H190746   5.305   0.893   4.074
30168WAT     H290747   5.441   0.983   4.063
30169WAT      O90748   5.627   2.850   3.172
30169WAT     H190749   5.546   2.812   3.216
30169WAT     H290750   5.707   2.797   3.199
30170WAT      O90751   7.496   4.346   2.991
30170WAT     H190752   7.495   4.443   3.015
30170WAT     H290753   7.506   4.292   3.074
30171WAT      O90754   8.454   2.491   5.012
30171WAT     H190755   8.475   2.536   4.926
30171WAT     H290756   8.492   2.544   5.088
30172WAT      O90757   9.288   4.918   3.712
30172WAT     H190758   9.267   4.855   3.787
30172WAT     H290759   9.244   5.006   3.730
30173WAT      O90760   7.622   9.063   5.763
30173WAT     H190761   7.666   9.129   5.824
30173WAT     H290762   7.623   9.099   5.670
30174WAT      O90763   3.612   9.505   8.254
30174WAT     H190764   3.616   9.423   8.196
30174WAT     H290765   3.693   9.507   8.314
30175WAT      O90766   2.207   0.349   1.259
30175WAT     H190767   2.224   0.251   1.248
30175WAT     H290768   2.218   0.375   1.355
30176WAT      O90769   5.147   6.522   5.579
30176WAT     H190770   5.059   6.506   5.625
30176WAT     H290771   5.131   6.543   5.483
30177WAT      O90772   9.240   2.184   9.632
30177WAT     H190773   9.202   2.265   9.588
30177WAT     H290774   9.289   2.211   9.715
30178WAT      O90775   5.957   6.931   7.571
30178WAT     H190776   6.038   6.969   7.614
30178WAT     H290777   5.950   6.964   7.476
30179WAT      O90778   5.662   5.906   9.281
30179WAT     H190779   5.656   5.871   9.375
30179WAT     H290780   5.677   5.830   9.218
30180WAT      O90781   3.774   2.059   4.035
30180WAT     H190782   3.768   2.141   3.978
30180WAT     H290783   3.754   1.978   3.979
30181WAT      O90784   8.656   6.612   2.431
30181WAT     H190785   8.687   6.591   2.338
30181WAT     H290786   8.736   6.620   2.491
30182WAT      O90787   9.740   7.955   9.758
30182WAT     H190788   9.735   8.000   9.668
30182WAT     H290789   9.796   8.009   9.819
30183WAT      O90790   9.256   9.790   6.054
30183WAT     H190791   9.319   9.744   6.115
30183WAT     H290792   9.218   9.870   6.099
30184WAT      O90793   7.269   6.261   6.256
30184WAT     H190794   7.258   6.361   6.262
30184WAT     H290795   7.328   6.239   6.180
30185WAT      O90796   9.564   9.780   4.098
30185WAT     H190797   9.555   9.836   4.181
30185WAT     H290798   9.496   9.809   4.031
30186WAT      O90799   5.890   1.165   2.250
30186WAT     H190800   5.940   1.182   2.334
30186WAT     H290801   5.851   1.073   2.252
30187WAT      O90802   9.693   8.781   9.379
30187WAT     H190803   9.650   8.856   9.328
30187WAT     H290804   9.631   8.703   9.381
30188WAT      O90805   8.360   2.284   4.817
30188WAT     H190806   8.428   2.242   4.756
30188WAT     H290807   8.408   2.338   4.887
30189WAT      O90808   5.816   2.475   2.486
30189WAT     H190809   5.726   2.439   2.459
30189WAT     H290810   5.813   2.502   2.582
30190WAT      O90811   4.170   7.104   9.807
30190WAT     H190812   4.237   7.156   9.754
30190WAT     H290813   4.101   7.167   9.844
30191WAT      O90814   3.739   1.466   5.832
30191WAT     H190815   3.640   1.478   5.838
30191WAT     H290816   3.784   1.552   5.855
30192WAT      O90817   8.229   6.757   3.913
30192WAT     H190818   8.181   6.844   3.902
30192WAT     H290819   8.163   6.686   3.940
30193WAT      O90820   0.946   5.427   2.603
30193WAT     H190821   1.003   5.456   2.527
30193WAT     H290822   0.980   5.468   2.688
30194WAT      O90823   8.287   3.703   7.652
30194WAT     H190824   8.295   3.650   7.736
30194WAT     H290825   8.350   3.667   7.584
30195WAT      O90826   6.584   8.158   7.426
30195WAT     H190827   6.568   8.159   7.525
30195WAT     H290828   6.651   8.088   7.404
30196WAT      O90829   7.703   1.594   1.927
30196WAT     H190830   7.644   1.551   1.859
30196WAT     H290831   7.790   1.544   1.932
30197WAT      O90832   8.075   7.798   3.516
30197WAT     H190833   8.084   7.742   3.433
30197WAT     H290834   8.070   7.894   3.490
30198WAT      O90835   8.474   0.692   1.580
30198WAT     H190836   8.473   0.594   1.600
30198WAT     H290837   8.511   0.707   1.489
30199WAT      O90838   4.790   6.784   1.086
30199WAT     H190839   4.757   6.739   1.002
30199WAT     H290840   4.772   6.882   1.080
30200WAT      O90841   4.902   5.671   2.320
30200WAT     H190842   4.968   5.657   2.394
30200WAT     H290843   4.838   5.744   2.346
30201WAT      O90844   9.381   5.903   7.249
30201WAT     H190845   9.382   5.957   7.333
30201WAT     H290846   9.470   5.907   7.206
30202WAT      O90847   1.963   9.392   9.383
30202WAT     H190848   1.871   9.428   9.398
30202WAT     H290849   2.013   9.391   9.470
30203WAT      O90850   2.675   1.527   4.630
30203WAT     H190851   2.631   1.606   4.588
30203WAT     H290852   2.773   1.529   4.613
30204WAT      O90853   2.745   0.273   9.827
30204WAT     H190854   2.783   0.203   9.767
30204WAT     H290855   2.787   0.266   9.917
30205WAT      O90856   7.675   0.297   1.654
30205WAT     H190857   7.698   0.200   1.656
30205WAT     H290858   7.725   0.342   1.581
30206WAT      O90859   1.684   9.765   5.757
30206WAT     H190860   1.604   9.728   5.709
30206WAT     H290861   1.767   9.736   5.710
30207WAT      O90862   9.394   4.618   9.594
30207WAT     H190863   9.447   4.543   9.633
30207WAT     H290864   9.385   4.692   9.661
30208WAT      O90865   8.248   5.949   7.027
30208WAT     H190866   8.175   5.900   6.980
30208WAT     H290867   8.212   6.032   7.067
30209WAT      O90868   6.029   7.266   7.639
30209WAT     H190869   6.079   7.186   7.673
30209WAT     H290870   5.932   7.242   7.629
30210WAT      O90871   9.402   9.296   0.125
30210WAT     H190872   9.461   9.374   0.105
30210WAT     H290873   9.333   9.286   0.053
30211WAT      O90874   4.447   8.799   8.071
30211WAT     H190875   4.521   8.761   8.015
30211WAT     H290876   4.400   8.870   8.020
30212WAT      O90877   9.575   8.491   7.481
30212WAT     H190878   9.650   8.452   7.427
30212WAT     H290879   9.523   8.555   7.424
30213WAT      O90880   5.425   7.169   4.482
30213WAT     H190881   5.454   7.128   4.395
30213WAT     H290882   5.459   7.114   4.558
30214WAT      O90883   1.691   8.467   7.470
30214WAT     H190884   1.690   8.442   7.373
30214WAT     H290885   1.782   8.449   7.508
30215WAT      O90886   1.634   2.257   4.687
30215WAT     H190887   1.638   2.306   4.775
30215WAT     H290888   1.629   2.323   4.612
30216WAT      O90889   8.535   9.200   7.741
30216WAT     H190890   8.596   9.269   7.780
30216WAT     H290891   8.512   9.225   7.647
30217WAT      O90892   0.782   5.000   0.786
30217WAT     H190893   0.824   5.089   0.770
30217WAT     H290894   0.765   4.988   0.884
30218WAT      O90895   2.822   2.201   8.877
30218WAT     H190896   2.746   2.145   8.909
30218WAT     H290897   2.863   2.159   8.796
30219WAT      O90898   4.401   0.889   3.444
30219WAT     H190899   4.459   0.815   3.479
30219WAT     H290900   4.377   0.951   3.519
30220WAT      O90901   2.448   7.411   2.696
30220WAT     H190902   2.367   7.436   2.747
30220WAT     H290903   2.431   7.422   2.598
30221WAT      O90904   4.409   8.713   0.023
30221WAT     H190905   4.479   8.642   0.020
30221WAT     H290906   4.432   8.781   0.093
30222WAT      O90907   6.273   9.723   3.004
30222WAT     H190908   6.228   9.800   3.048
30222WAT     H290909   6.269   9.643   3.064
30223WAT      O90910   1.242   6.284   9.331
30223WAT     H190911   1.268   6.296   9.426
30223WAT     H290912   1.240   6.187   9.308
30224WAT      O90913   2.006   2.452   9.354
30224WAT     H190914   1.998   2.382   9.425
30224WAT     H290915   2.084   2.433   9.296
30225WAT      O90916   7.836   2.097   0.443
30225WAT     H190917   7.883   2.031   0.384
30225WAT     H290918   7.848   2.071   0.539
30226WAT      O90919   5.584   7.408   6.169
30226WAT     H190920   5.589   7.412   6.069
30226WAT     H290921   5.657   7.464   6.208
30227WAT      O90922   8.741   9.737   6.724
30227WAT     H190923   8.757   9.715   6.628
30227WAT     H290924   8.764   9.833   6.740
30228WAT      O90925   3.601   0.868   7.800
30228WAT     H190926   3.537   0.884   7.725
30228WAT     H290927   3.608   0.770   7.818
30229WAT      O90928   1.892   9.453   2.372
30229WAT     H190929   1.800   9.443   2.334
30229WAT     H290930   1.956   9.472   2.298
30230WAT      O90931   7.760   9.288   0.428
30230WAT     H190932   7.836   9.272   0.490
30230WAT     H290933   7.790   9.271   0.334
30231WAT      O90934   1.792   3.431   8.717
30231WAT     H190935   1.825   3.509   8.664
30231WAT     H290936   1.696   3.446   8.740
30232WAT      O90937   1.052   9.503   9.428
30232WAT     H190938   1.021   9.531   9.338
30232WAT     H290939   0.980   9.449   9.472
30233WAT      O90940   1.439   9.709   6.099
30233WAT     H190941   1.445   9.787   6.037
30233WAT     H290942   1.470   9.736   6.190
30234WAT      O90943   5.649   9.444   1.404
30234WAT     H190944   5.567   9.502   1.401
30234WAT     H290945   5.694   9.454   1.493
30235WAT      O90946   9.006   6.165   5.379
30235WAT     H190947   9.076   6.108   5.337
30235WAT     H290948   8.940   6.107   5.428
30236WAT      O90949   6.335   5.273   5.213
30236WAT     H190950   6.434   5.260   5.211
30236WAT     H290951   6.310   5.354   5.160
30237WAT      O90952   1.443   8.779   6.837
30237WAT     H190953   1.386   8.779   6.919
30237WAT     H290954   1.523   8.838   6.853
30238WAT      O90955   5.284   4.925   0.322
30238WAT     H190956   5.286   4.985   0.402
30238WAT     H290957   5.282   4.980   0.239
30239WAT      O90958   1.683   5.777   0.348
30239WAT     H190959   1.773   5.822   0.344
30239WAT     H290960   1.620   5.833   0.400
30240WAT      O90961   5.666   2.301   4.398
30240WAT     H190962   5.763   2.314   4.377
30240WAT     H290963   5.644   2.204   4.398
30241WAT      O90964   8.108   7.182   2.826
30241WAT     H190965   8.127   7.173   2.728
30241WAT     H290966   8.010   7.172   2.842
30242WAT      O90967   9.187   8.649   3.438
30242WAT     H190968   9.109   8.683   3.385
30242WAT     H290969   9.155   8.606   3.522
30243WAT      O90970   5.606   0.270   6.747
30243WAT     H190971   5.593   0.190   6.688
30243WAT     H290972   5.544   0.343   6.718
30244WAT      O90973   9.498   5.553   8.531
30244WAT     H190974   9.502   5.529   8.434
30244WAT     H290975   9.417   5.610   8.548
30245WAT      O90976   6.837   8.162   1.266
30245WAT     H190977   6.766   8.137   1.332
30245WAT     H290978   6.796   8.171   1.175
30246WAT      O90979   0.920   2.922   3.345
30246WAT     H190980   0.870   2.867   3.278
30246WAT     H290981   0.876   2.912   3.435
30247WAT      O90982   8.917   0.742   9.727
30247WAT     H190983   9.003   0.786   9.752
30247WAT     H290984   8.854   0.745   9.804
30248WAT      O90985   5.595   6.766   8.547
30248WAT     H190986   5.540   6.727   8.621
30248WAT     H290987   5.534   6.796   8.473
30249WAT      O90988   1.667   0.393   8.716
30249WAT     H190989   1.586   0.401   8.775
30249WAT     H290990   1.662   0.461   8.643
30250WAT      O90991   1.195   0.239   7.918
30250WAT     H190992   1.232   0.250   7.826
30250WAT     H290993   1.270   0.238   7.984
30251WAT      O90994   6.259   7.629   2.180
30251WAT     H190995   6.284   7.706   2.240
30251WAT     H290996   6.212   7.664   2.099
30252WAT      O90997   5.698   1.489   2.455
30252WAT     H190998   5.754   1.487   2.372
30252WAT     H290999   5.669   1.396   2.478
30253WAT      O91000   2.562   2.945   1.802
30253WAT     H191001   2.561   3.042   1.828
30253WAT     H291002   2.610   2.892   1.872
30254WAT      O91003   5.338   4.042   7.656
30254WAT     H191004   5.299   4.107   7.722
30254WAT     H291005   5.266   4.010   7.595
30255WAT      O91006   8.304   7.065   6.009
30255WAT     H191007   8.385   7.034   5.960
30255WAT     H291008   8.222   7.035   5.959
30256WAT      O91009   4.509   5.653   0.091
30256WAT     H191010   4.599   5.695   0.078
30256WAT     H291011   4.479   5.610   0.006
30257WAT      O91012   9.256   1.152   3.966
30257WAT     H191013   9.183   1.114   4.022
30257WAT     H291014   9.290   1.236   4.008
30258WAT      O91015   4.849   1.278   1.343
30258WAT     H191016   4.940   1.282   1.304
30258WAT     H291017   4.820   1.369   1.373
30259WAT      O91018   1.871   3.971   5.642
30259WAT     H191019   1.893   3.876   5.665
30259WAT     H291020   1.936   4.004   5.573
30260WAT      O91021   6.309   6.234   6.153
30260WAT     H191022   6.230   6.274   6.107
30260WAT     H291023   6.393   6.276   6.118
30261WAT      O91024   6.839   9.831   3.133
30261WAT     H191025   6.750   9.873   3.116
30261WAT     H291026   6.852   9.754   3.072
30262WAT      O91027   5.387   0.399   2.849
30262WAT     H191028   5.307   0.359   2.804
30262WAT     H291029   5.403   0.491   2.812
30263WAT      O91030   0.579   0.315   0.227
30263WAT     H191031   0.499   0.372   0.244
30263WAT     H291032   0.566   0.224   0.267
30264WAT      O91033   4.693   3.261   1.376
30264WAT     H191034   4.608   3.220   1.409
30264WAT     H291035   4.690   3.360   1.391
30265WAT      O91036   9.443   1.497   5.785
30265WAT     H191037   9.531   1.479   5.831
30265WAT     H291038   9.369   1.490   5.851
30266WAT      O91039   2.468   1.680   8.384
30266WAT     H191040   2.552   1.670   8.329
30266WAT     H291041   2.422   1.592   8.389
30267WAT      O91042   5.493   5.594   2.376
30267WAT     H191043   5.502   5.625   2.282
30267WAT     H291044   5.445   5.663   2.430
30268WAT      O91045   8.655   2.847   6.326
30268WAT     H191046   8.693   2.938   6.341
30268WAT     H291047   8.577   2.853   6.264
30269WAT      O91048   3.292   6.692   5.861
30269WAT     H191049   3.355   6.653   5.794
30269WAT     H291050   3.322   6.667   5.953
30270WAT      O91051   6.392   0.504   2.391
30270WAT     H191052   6.413   0.476   2.485
30270WAT     H291053   6.323   0.442   2.352
30271WAT      O91054   7.111   9.720   5.639
30271WAT     H191055   7.127   9.781   5.561
30271WAT     H291056   7.029   9.750   5.688
30272WAT      O91057   2.924   0.021   5.185
30272WAT     H191058   2.963   0.064   5.267
30272WAT     H291059   2.825   0.013   5.196
30273WAT      O91060   3.829   1.269   9.521
30273WAT     H191061   3.817   1.275   9.422
30273WAT     H291062   3.814   1.359   9.562
30274WAT      O91063   0.201   4.907   7.605
30274WAT     H191064   0.285   4.930   7.555
30274WAT     H291065   0.188   4.974   7.679
30275WAT      O91066   0.954   1.793   5.765
30275WAT     H191067   0.868   1.836   5.739
30275WAT     H291068   0.937   1.698   5.791
30276WAT      O91069   1.027   8.586   1.148
30276WAT     H191070   1.015   8.498   1.192
30276WAT     H291071   1.090   8.642   1.202
30277WAT      O91072   3.074   7.130   0.175
30277WAT     H191073   2.983   7.163   0.200
30277WAT     H291074   3.122   7.200   0.123
30278WAT      O91075   0.297   2.608   5.504
30278WAT     H191076   0.225   2.538   5.506
30278WAT     H291077   0.384   2.565   5.481
30279WAT      O91078   6.961   3.978   2.686
30279WAT     H191079   6.991   4.073   2.699
30279WAT     H291080   6.951   3.959   2.589
30280WAT      O91081   6.787   6.812   0.474
30280WAT     H191082   6.779   6.786   0.378
30280WAT     H291083   6.844   6.894   0.482
30281WAT      O91084   2.564   8.103   2.506
30281WAT     H191085   2.476   8.129   2.546
30281WAT     H291086   2.632   8.173   2.525
30282WAT      O91087   2.588   2.438   4.454
30282WAT     H191088   2.652   2.457   4.528
30282WAT     H291089   2.627   2.470   4.367
30283WAT      O91090   0.443   5.550   4.096
30283WAT     H191091   0.494   5.475   4.137
30283WAT     H291092   0.380   5.515   4.027
30284WAT      O91093   3.926   7.302   6.757
30284WAT     H191094   3.920   7.239   6.835
30284WAT     H291095   3.906   7.395   6.788
30285WAT      O91096   6.888   9.180   5.237
30285WAT     H191097   6.936   9.246   5.180
30285WAT     H291098   6.899   9.088   5.199
30286WAT      O91099   2.406   7.616   4.264
30286WAT     H191100   2.384   7.658   4.176
30286WAT     H291101   2.322   7.598   4.314
30287WAT      O91102   7.086   5.470   6.218
30287WAT     H191103   7.108   5.503   6.126
30287WAT     H291104   7.124   5.532   6.286
30288WAT      O91105   9.788   5.853   7.624
30288WAT     H191106   9.740   5.838   7.538
30288WAT     H291107   9.721   5.857   7.699
30289WAT      O91108   7.303   1.421   8.397
30289WAT     H191109   7.360   1.425   8.315
30289WAT     H291110   7.308   1.508   8.445
30290WAT      O91111   1.968   3.751   7.292
30290WAT     H191112   2.046   3.759   7.354
30290WAT     H291113   1.965   3.659   7.252
30291WAT      O91114   0.632   4.979   0.178
30291WAT     H191115   0.558   4.942   0.234
30291WAT     H291116   0.720   4.944   0.212
30292WAT      O91117   8.713   4.908   6.392
30292WAT     H191118   8.650   4.831   6.381
30292WAT     H291119   8.663   4.994   6.381
30293WAT      O91120   1.662   0.594   2.791
30293WAT     H191121   1.699   0.506   2.821
30293WAT     H291122   1.737   0.655   2.768
30294WAT      O91123   3.963   7.250   5.778
30294WAT     H191124   3.960   7.161   5.732
30294WAT     H291125   3.900   7.313   5.733
30295WAT      O91126   1.754   2.184   5.737
30295WAT     H191127   1.821   2.248   5.773
30295WAT     H291128   1.786   2.149   5.648
30296WAT      O91129   5.138   3.715   4.513
30296WAT     H191130   5.119   3.641   4.579
30296WAT     H291131   5.196   3.680   4.440
30297WAT      O91132   5.762   3.820   7.395
30297WAT     H191133   5.696   3.883   7.434
30297WAT     H291134   5.780   3.746   7.460
30298WAT      O91135   2.953   7.688   3.821
30298WAT     H191136   2.893   7.702   3.900
30298WAT     H291137   2.958   7.771   3.767
30299WAT      O91138   2.307   4.062   6.649
30299WAT     H191139   2.281   4.001   6.574
30299WAT     H291140   2.318   4.009   6.733
30300WAT      O91141   3.272   6.311   4.997
30300WAT     H191142   3.300   6.270   4.909
30300WAT     H291143   3.191   6.263   5.031
30301WAT      O91144   3.585   8.494   0.029
30301WAT     H191145   3.512   8.513   0.095
30301WAT     H291146   3.553   8.516  -0.063
30302WAT      O91147   7.544   3.266   0.038
30302WAT     H191148   7.579   3.224  -0.045
30302WAT     H291149   7.559   3.365   0.034
30303WAT      O91150   8.283   8.526   8.241
30303WAT     H191151   8.249   8.434   8.262
30303WAT     H291152   8.305   8.574   8.326
30304WAT      O91153   6.060   5.624   2.654
30304WAT     H191154   6.062   5.686   2.575
30304WAT     H291155   5.970   5.581   2.661
30305WAT      O91156   3.885   3.323   2.710
30305WAT     H191157   3.945   3.288   2.782
30305WAT     H291158   3.829   3.249   2.673
30306WAT      O91159   1.022   0.336   2.291
30306WAT     H191160   0.962   0.413   2.311
30306WAT     H291161   1.047   0.290   2.376
30307WAT      O91162   3.100   7.594   7.392
30307WAT     H191163   3.077   7.577   7.488
30307WAT     H291164   3.194   7.564   7.375
30308WAT      O91165   8.689   9.363   6.141
30308WAT     H191166   8.618   9.410   6.194
30308WAT     H291167   8.680   9.387   6.045
30309WAT      O91168   7.419   2.005   3.013
30309WAT     H191169   7.468   2.023   3.098
30309WAT     H291170   7.412   1.906   2.998
30310WAT      O91171   2.511   0.758   7.842
30310WAT     H191172   2.443   0.830   7.857
30310WAT     H291173   2.468   0.681   7.795
30311WAT      O91174   3.046   6.644   9.248
30311WAT     H191175   2.962   6.686   9.281
30311WAT     H291176   3.077   6.691   9.166
30312WAT      O91177   6.158   0.214   8.976
30312WAT     H191178   6.255   0.217   9.002
30312WAT     H291179   6.107   0.161   9.045
30313WAT      O91180   4.819   4.502   6.499
30313WAT     H191181   4.860   4.427   6.551
30313WAT     H291182   4.739   4.468   6.449
30314WAT      O91183   8.311   4.783   7.393
30314WAT     H191184   8.245   4.721   7.435
30314WAT     H291185   8.404   4.750   7.413
30315WAT      O91186   0.291   0.683   6.704
30315WAT     H191187   0.363   0.621   6.735
30315WAT     H291188   0.268   0.663   6.609
30316WAT      O91189   4.111   1.410   5.756
30316WAT     H191190   4.146   1.384   5.666
30316WAT     H291191   4.156   1.354   5.826
30317WAT      O91192   6.494   5.675   3.428
30317WAT     H191193   6.556   5.661   3.504
30317WAT     H291194   6.411   5.620   3.442
30318WAT      O91195   1.043   5.348   9.369
30318WAT     H191196   1.021   5.415   9.440
30318WAT     H291197   1.051   5.394   9.281
30319WAT      O91198   8.011   9.363   0.176
30319WAT     H191199   7.916   9.335   0.186
30319WAT     H291200   8.072   9.289   0.204
30320WAT      O91201   5.769   1.399   1.837
30320WAT     H191202   5.864   1.383   1.864
30320WAT     H291203   5.766   1.465   1.762
30321WAT      O91204   2.502   9.492   8.950
30321WAT     H191205   2.494   9.516   8.853
30321WAT     H291206   2.412   9.465   8.985
30322WAT      O91207   8.521   0.059   5.250
30322WAT     H191208   8.583   0.107   5.187
30322WAT     H291209   8.436   0.037   5.202
30323WAT      O91210   6.236   2.438   0.038
30323WAT     H191211   6.269   2.348   0.010
30323WAT     H291212   6.139   2.432   0.061
30324WAT      O91213   3.827   0.166   9.094
30324WAT     H191214   3.767   0.170   9.173
30324WAT     H291215   3.819   0.076   9.051
30325WAT      O91216   3.414   7.732   3.397
30325WAT     H191217   3.369   7.680   3.470
30325WAT     H291218   3.345   7.772   3.337
30326WAT      O91219   6.432   1.259   9.404
30326WAT     H191220   6.333   1.273   9.397
30326WAT     H291221   6.477   1.292   9.321
30327WAT      O91222   2.612   2.914   7.600
30327WAT     H191223   2.689   2.964   7.639
30327WAT     H291224   2.581   2.844   7.664
30328WAT      O91225   9.809   7.605   4.623
30328WAT     H191226   9.767   7.652   4.701
30328WAT     H291227   9.786   7.653   4.539
30329WAT      O91228   1.996   6.810   5.275
30329WAT     H191229   1.996   6.762   5.187
30329WAT     H291230   1.903   6.818   5.309
30330WAT      O91231   7.221   7.576   8.144
30330WAT     H191232   7.291   7.642   8.120
30330WAT     H291233   7.262   7.485   8.151
30331WAT      O91234   6.957   7.082   0.414
30331WAT     H191235   6.873   7.137   0.405
30331WAT     H291236   7.016   7.100   0.335
30332WAT      O91237   7.098   5.611   2.641
30332WAT     H191238   7.167   5.576   2.578
30332WAT     H291239   7.135   5.614   2.734
30333WAT      O91240   9.760   6.630   7.331
30333WAT     H191241   9.855   6.602   7.328
30333WAT     H291242   9.709   6.573   7.396
30334WAT      O91243   3.254   2.769   7.448
30334WAT     H191244   3.191   2.769   7.370
30334WAT     H291245   3.243   2.684   7.499
30335WAT      O91246   5.034   5.994   4.282
30335WAT     H191247   5.100   5.979   4.356
30335WAT     H291248   5.031   5.913   4.223
30336WAT      O91249   2.532   2.658   7.759
30336WAT     H191250   2.494   2.602   7.685
30336WAT     H291251   2.457   2.702   7.809
30337WAT      O91252   7.239   9.240   4.982
30337WAT     H191253   7.241   9.154   5.032
30337WAT     H291254   7.171   9.301   5.024
30338WAT      O91255   1.286   3.309   3.338
30338WAT     H191256   1.339   3.237   3.294
30338WAT     H291257   1.188   3.292   3.323
30339WAT      O91258   6.649   6.360   1.653
30339WAT     H191259   6.680   6.328   1.563
30339WAT     H291260   6.616   6.281   1.706
30340WAT      O91261   6.181   7.135   6.639
30340WAT     H191262   6.187   7.153   6.540
30340WAT     H291263   6.160   7.220   6.686
30341WAT      O91264   7.657   6.059   5.986
30341WAT     H191265   7.696   6.017   6.068
30341WAT     H291266   7.727   6.061   5.914
30342WAT      O91267   7.203   2.003   2.107
30342WAT     H191268   7.291   2.041   2.139
30342WAT     H291269   7.168   1.939   2.176
30343WAT      O91270   8.336   1.741   6.444
30343WAT     H191271   8.331   1.765   6.541
30343WAT     H291272   8.365   1.821   6.391
30344WAT      O91273   4.160   6.492   4.640
30344WAT     H191274   4.088   6.423   4.632
30344WAT     H291275   4.239   6.452   4.687
30345WAT      O91276   7.790   0.991   4.470
30345WAT     H191277   7.758   0.896   4.471
30345WAT     H291278   7.863   1.001   4.403
30346WAT      O91279   3.074   7.508   5.724
30346WAT     H191280   3.025   7.552   5.649
30346WAT     H291281   3.172   7.506   5.703
30347WAT      O91282   5.588   3.691   3.761
30347WAT     H191283   5.610   3.626   3.834
30347WAT     H291284   5.536   3.768   3.800
30348WAT      O91285   9.111   8.823   2.538
30348WAT     H191286   9.199   8.802   2.496
30348WAT     H291287   9.093   8.758   2.612
30349WAT      O91288   0.084   2.512   6.657
30349WAT     H191289   0.159   2.551   6.711
30349WAT     H291290   0.006   2.492   6.717
30350WAT      O91291   4.043   7.922   1.981
30350WAT     H191292   4.081   7.837   1.944
30350WAT     H291293   4.027   7.986   1.907
30351WAT      O91294   6.763   5.081   9.161
30351WAT     H191295   6.857   5.102   9.134
30351WAT     H291296   6.745   5.120   9.251
30352WAT      O91297   1.890   5.169   6.788
30352WAT     H191298   1.886   5.071   6.769
30352WAT     H291299   1.962   5.211   6.731
30353WAT      O91300   9.734   2.295   8.624
30353WAT     H191301   9.734   2.297   8.524
30353WAT     H291302   9.789   2.371   8.659
30354WAT      O91303   8.757   8.969   0.885
30354WAT     H191304   8.672   8.950   0.934
30354WAT     H291305   8.772   9.068   0.883
30355WAT      O91306   7.463   5.180   7.564
30355WAT     H191307   7.387   5.117   7.550
30355WAT     H291308   7.513   5.154   7.647
30356WAT      O91309   4.017   6.655   3.491
30356WAT     H191310   3.962   6.572   3.483
30356WAT     H291311   3.971   6.720   3.551
30357WAT      O91312   6.888   8.473   4.539
30357WAT     H191313   6.853   8.567   4.537
30357WAT     H291314   6.972   8.469   4.593
30358WAT      O91315   0.143   3.745   2.550
30358WAT     H191316   0.145   3.742   2.450
30358WAT     H291317   0.172   3.657   2.587
30359WAT      O91318   6.775   6.595   5.153
30359WAT     H191319   6.776   6.581   5.054
30359WAT     H291320   6.752   6.509   5.199
30360WAT      O91321   7.507   7.958   2.162
30360WAT     H191322   7.446   8.030   2.130
30360WAT     H291323   7.558   7.991   2.242
30361WAT      O91324   6.603   1.867   7.691
30361WAT     H191325   6.643   1.874   7.599
30361WAT     H291326   6.655   1.925   7.754
30362WAT      O91327   7.615   0.460   4.374
30362WAT     H191328   7.655   0.393   4.311
30362WAT     H291329   7.613   0.422   4.467
30363WAT      O91330   4.516   5.801   0.430
30363WAT     H191331   4.549   5.752   0.350
30363WAT     H291332   4.455   5.742   0.483
30364WAT      O91333   0.542   0.362   2.359
30364WAT     H191334   0.458   0.311   2.338
30364WAT     H291335   0.540   0.391   2.455
30365WAT      O91336   4.846   0.376   7.128
30365WAT     H191337   4.815   0.368   7.223
30365WAT     H291338   4.840   0.286   7.083
30366WAT      O91339   7.685   8.046   7.846
30366WAT     H191340   7.592   8.016   7.867
30366WAT     H291341   7.701   8.037   7.748
30367WAT      O91342   6.538   8.970   4.207
30367WAT     H191343   6.546   9.039   4.279
30367WAT     H291344   6.473   9.001   4.138
30368WAT      O91345   4.579   8.258   8.021
30368WAT     H191346   4.569   8.312   8.105
30368WAT     H291347   4.604   8.318   7.945
30369WAT      O91348   5.319   2.677   8.482
30369WAT     H191349   5.229   2.691   8.523
30369WAT     H291350   5.371   2.762   8.484
30370WAT      O91351   1.235   7.591   8.699
30370WAT     H191352   1.317   7.552   8.741
30370WAT     H291353   1.184   7.641   8.769
30371WAT      O91354   0.604   5.584   0.393
30371WAT     H191355   0.680   5.530   0.356
30371WAT     H291356   0.518   5.554   0.351
30372WAT      O91357   0.866   4.423   7.269
30372WAT     H191358   0.964   4.424   7.250
30372WAT     H291359   0.851   4.408   7.367
30373WAT      O91360   8.130   6.490   2.376
30373WAT     H191361   8.099   6.445   2.459
30373WAT     H291362   8.051   6.514   2.319
30374WAT      O91363   0.924   2.283   1.817
30374WAT     H191364   0.985   2.314   1.744
30374WAT     H291365   0.892   2.363   1.869
30375WAT      O91366   9.247   9.384   5.939
30375WAT     H191367   9.276   9.474   5.908
30375WAT     H291368   9.166   9.355   5.888
30376WAT      O91369   8.046   3.787   4.923
30376WAT     H191370   7.977   3.853   4.953
30376WAT     H291371   8.096   3.824   4.845
30377WAT      O91372   7.481   3.123   0.770
30377WAT     H191373   7.501   3.128   0.673
30377WAT     H291374   7.396   3.171   0.790
30378WAT      O91375   7.597   5.782   9.760
30378WAT     H191376   7.520   5.823   9.711
30378WAT     H291377   7.643   5.851   9.816
30379WAT      O91378   6.563   0.096   6.790
30379WAT     H191379   6.600   0.020   6.737
30379WAT     H291380   6.600   0.094   6.882
30380WAT      O91381   7.721   2.915   9.043
30380WAT     H191382   7.629   2.953   9.037
30380WAT     H291383   7.727   2.851   9.120
30381WAT      O91384   5.597   5.963   1.727
30381WAT     H191385   5.589   5.918   1.816
30381WAT     H291386   5.618   6.060   1.740
30382WAT      O91387   0.759   1.083   3.707
30382WAT     H191388   0.752   1.070   3.608
30382WAT     H291389   0.723   1.173   3.732
30383WAT      O91390   3.555   8.634   2.113
30383WAT     H191391   3.617   8.565   2.152
30383WAT     H291392   3.609   8.704   2.067
30384WAT      O91393   0.851   2.329   8.081
30384WAT     H191394   0.860   2.356   8.177
30384WAT     H291395   0.775   2.379   8.040
30385WAT      O91396   2.394   0.815   6.033
30385WAT     H191397   2.431   0.905   6.053
30385WAT     H291398   2.301   0.824   5.995
30386WAT      O91399   3.561   1.045   5.265
30386WAT     H191400   3.568   1.144   5.253
30386WAT     H291401   3.570   1.000   5.176
30387WAT      O91402   9.011   0.570   0.790
30387WAT     H191403   8.939   0.606   0.849
30387WAT     H291404   8.984   0.581   0.694
30388WAT      O91405   6.042   5.852   6.362
30388WAT     H191406   5.993   5.892   6.439
30388WAT     H291407   6.140   5.849   6.383
30389WAT      O91408   8.335   8.140   4.488
30389WAT     H191409   8.235   8.144   4.484
30389WAT     H291410   8.368   8.187   4.570
30390WAT      O91411   0.910   1.448   5.716
30390WAT     H191412   1.006   1.429   5.736
30390WAT     H291413   0.869   1.501   5.791
30391WAT      O91414   0.474   1.314   8.309
30391WAT     H191415   0.541   1.387   8.316
30391WAT     H291416   0.387   1.345   8.349
30392WAT      O91417   0.525   7.315   4.927
30392WAT     H191418   0.497   7.222   4.948
30392WAT     H291419   0.585   7.349   4.999
30393WAT      O91420   3.298   9.011   5.237
30393WAT     H191421   3.318   9.010   5.139
30393WAT     H291422   3.219   9.070   5.254
30394WAT      O91423   2.973   6.359   2.653
30394WAT     H191424   2.966   6.292   2.579
30394WAT     H291425   2.886   6.409   2.660
30395WAT      O91426   1.797   6.604   3.631
30395WAT     H191427   1.702   6.622   3.656
30395WAT     H291428   1.814   6.633   3.537
30396WAT      O91429   0.451   8.500   0.377
30396WAT     H191430   0.377   8.473   0.316
30396WAT     H291431   0.503   8.418   0.404
30397WAT      O91432   5.796   8.663   7.040
30397WAT     H191433   5.751   8.739   6.991
30397WAT     H291434   5.821   8.693   7.132
30398WAT      O91435   1.634   2.413   4.922
30398WAT     H191436   1.647   2.509   4.897
30398WAT     H291437   1.542   2.399   4.957
30399WAT      O91438   6.422   7.293   0.598
30399WAT     H191439   6.486   7.217   0.584
30399WAT     H291440   6.329   7.257   0.605
30400WAT      O91441   5.574   1.793   8.897
30400WAT     H191442   5.630   1.712   8.914
30400WAT     H291443   5.625   1.875   8.923
30401WAT      O91444   8.637   6.904   2.957
30401WAT     H191445   8.572   6.872   3.025
30401WAT     H291446   8.659   6.830   2.893
30402WAT      O91447   3.100   4.006   0.801
30402WAT     H191448   3.117   4.091   0.850
30402WAT     H291449   3.145   3.931   0.850
30403WAT      O91450   3.692   2.173   6.475
30403WAT     H191451   3.654   2.120   6.400
30403WAT     H291452   3.670   2.270   6.462
30404WAT      O91453   2.029   0.538   5.331
30404WAT     H191454   2.027   0.546   5.231
30404WAT     H291455   2.057   0.445   5.356
30405WAT      O91456   4.261   8.494   9.849
30405WAT     H191457   4.323   8.570   9.864
30405WAT     H291458   4.258   8.436   9.931
30406WAT      O91459   3.221   0.304   7.919
30406WAT     H191460   3.189   0.264   7.834
30406WAT     H291461   3.154   0.287   7.992
30407WAT      O91462   3.167   3.952   6.686
30407WAT     H191463   3.121   3.939   6.774
30407WAT     H291464   3.260   3.915   6.692
30408WAT      O91465   5.778   6.626   5.765
30408WAT     H191466   5.831   6.608   5.682
30408WAT     H291467   5.700   6.564   5.770
30409WAT      O91468   4.930   2.889   4.014
30409WAT     H191469   4.866   2.859   4.085
30409WAT     H291470   4.914   2.836   3.930
30410WAT      O91471   4.189   6.049   1.873
30410WAT     H191472   4.164   6.083   1.964
30410WAT     H291473   4.107   6.016   1.826
30411WAT      O91474   2.255   2.020   2.987
30411WAT     H191475   2.178   2.004   2.924
30411WAT     H291476   2.238   2.103   3.040
30412WAT      O91477   6.135   1.240   9.342
30412WAT     H191478   6.085   1.278   9.264
30412WAT     H291479   6.125   1.301   9.420
30413WAT      O91480   2.867   6.481   0.154
30413WAT     H191481   2.822   6.399   0.187
30413WAT     H291482   2.839   6.500   0.060
30414WAT      O91483   6.036   1.739   5.637
30414WAT     H191484   6.058   1.718   5.541
30414WAT     H291485   6.110   1.707   5.696
30415WAT      O91486   6.502   0.885   0.574
30415WAT     H191487   6.466   0.978   0.583
30415WAT     H291488   6.427   0.819   0.586
30416WAT      O91489   8.488   0.565   9.092
30416WAT     H191490   8.408   0.552   9.150
30416WAT     H291491   8.480   0.652   9.044
30417WAT      O91492   9.507   1.449   2.284
30417WAT     H191493   9.562   1.377   2.242
30417WAT     H291494   9.415   1.448   2.245
30418WAT      O91495   2.620   5.330   9.169
30418WAT     H191496   2.570   5.416   9.160
30418WAT     H291497   2.708   5.337   9.122
30419WAT      O91498   0.340   5.523   2.599
30419WAT     H191499   0.396   5.591   2.646
30419WAT     H291500   0.245   5.531   2.629
30420WAT      O91501   9.173   7.767   5.338
30420WAT     H191502   9.242   7.809   5.398
30420WAT     H291503   9.082   7.786   5.375
30421WAT      O91504   5.606   7.349   2.764
30421WAT     H191505   5.706   7.347   2.755
30421WAT     H291506   5.574   7.261   2.799
30422WAT      O91507   6.175   9.617   4.424
30422WAT     H191508   6.161   9.606   4.325
30422WAT     H291509   6.124   9.546   4.473
30423WAT      O91510   8.255   2.325   8.854
30423WAT     H191511   8.337   2.311   8.909
30423WAT     H291512   8.174   2.301   8.907
30424WAT      O91513   5.577   2.254   3.274
30424WAT     H191514   5.526   2.325   3.322
30424WAT     H291515   5.620   2.294   3.193
30425WAT      O91516   5.589   0.950   4.161
30425WAT     H191517   5.585   0.869   4.219
30425WAT     H291518   5.587   1.033   4.218
30426WAT      O91519   4.923   4.923   9.651
30426WAT     H191520   4.852   4.874   9.702
30426WAT     H291521   5.008   4.870   9.652
30427WAT      O91522   5.854   2.299   5.079
30427WAT     H191523   5.949   2.268   5.080
30427WAT     H291524   5.801   2.245   5.144
30428WAT      O91525   9.129   8.004   8.951
30428WAT     H191526   9.094   7.918   8.988
30428WAT     H291527   9.077   8.080   8.989
30429WAT      O91528   3.902   3.633   6.650
30429WAT     H191529   3.916   3.686   6.567
30429WAT     H291530   3.880   3.695   6.726
30430WAT      O91531   3.515   0.978   5.002
30430WAT     H191532   3.497   0.912   4.929
30430WAT     H291533   3.451   1.054   4.995
30431WAT      O91534   1.215   5.463   0.055
30431WAT     H191535   1.286   5.431   0.118
30431WAT     H291536   1.256   5.526  -0.010
30432WAT      O91537   6.408   3.173   2.993
30432WAT     H191538   6.418   3.127   2.904
30432WAT     H291539   6.459   3.259   2.992
30433WAT      O91540   3.520   1.601   6.877
30433WAT     H191541   3.587   1.629   6.946
30433WAT     H291542   3.566   1.547   6.807
30434WAT      O91543   6.850   5.203   6.497
30434WAT     H191544   6.792   5.153   6.562
30434WAT     H291545   6.912   5.140   6.452
30435WAT      O91546   0.165   8.077   4.478
30435WAT     H191547   0.105   8.039   4.408
30435WAT     H291548   0.213   8.003   4.525
30436WAT      O91549   1.422   1.339   1.239
30436WAT     H191550   1.521   1.353   1.246
30436WAT     H291551   1.403   1.268   1.172
30437WAT      O91552   4.376   9.071   1.926
30437WAT     H191553   4.382   9.114   1.836
30437WAT     H291554   4.458   9.016   1.942
30438WAT      O91555   5.511   4.853   5.969
30438WAT     H191556   5.482   4.938   5.925
30438WAT     H291557   5.542   4.788   5.899
30439WAT      O91558   2.454   5.786   3.218
30439WAT     H191559   2.489   5.695   3.196
30439WAT     H291560   2.354   5.786   3.210
30440WAT      O91561   9.356   9.786   0.024
30440WAT     H191562   9.382   9.860   0.086
30440WAT     H291563   9.276   9.814  -0.030
30441WAT      O91564   7.485   4.310   6.380
30441WAT     H191565   7.448   4.399   6.356
30441WAT     H291566   7.528   4.315   6.470
30442WAT      O91567   5.139   9.082   5.381
30442WAT     H191568   5.160   8.984   5.385
30442WAT     H291569   5.063   9.096   5.317
30443WAT      O91570   4.055   0.205   3.608
30443WAT     H191571   4.045   0.136   3.679
30443WAT     H291572   4.085   0.291   3.648
30444WAT      O91573   4.539   2.108   9.315
30444WAT     H191574   4.446   2.127   9.285
30444WAT     H291575   4.601   2.111   9.237
30445WAT      O91576   3.261   6.747   2.964
30445WAT     H191577   3.237   6.722   3.058
30445WAT     H291578   3.338   6.811   2.965
30446WAT      O91579   0.064   9.453   1.742
30446WAT     H191580   0.052   9.398   1.660
30446WAT     H291581   0.020   9.408   1.819
30447WAT      O91582   5.269   7.806   8.204
30447WAT     H191583   5.313   7.720   8.176
30447WAT     H291584   5.286   7.876   8.136
30448WAT      O91585   8.131   3.288   2.417
30448WAT     H191586   8.045   3.243   2.439
30448WAT     H291587   8.206   3.243   2.466
30449WAT      O91588   1.690   8.160   3.383
30449WAT     H191589   1.627   8.109   3.325
30449WAT     H291590   1.721   8.102   3.458
30450WAT      O91591   5.680   4.308   0.185
30450WAT     H191592   5.722   4.251   0.115
30450WAT     H291593   5.645   4.251   0.259
30451WAT      O91594   1.167   1.985   2.190
30451WAT     H191595   1.190   2.039   2.109
30451WAT     H291596   1.093   2.030   2.241
30452WAT      O91597   8.223   0.289   7.334
30452WAT     H191598   8.137   0.338   7.317
30452WAT     H291599   8.297   0.355   7.343
30453WAT      O91600   9.351   4.778   3.120
30453WAT     H191601   9.410   4.854   3.092
30453WAT     H291602   9.263   4.785   3.074
30454WAT      O91603   1.524   8.203   3.682
30454WAT     H191604   1.576   8.123   3.652
30454WAT     H291605   1.473   8.240   3.605
30455WAT      O91606   2.410   1.236   4.940
30455WAT     H191607   2.310   1.244   4.933
30455WAT     H291608   2.433   1.181   5.020
30456WAT      O91609   7.272   4.066   1.777
30456WAT     H191610   7.316   4.155   1.769
30456WAT     H291611   7.277   4.017   1.690
30457WAT      O91612   9.310   0.871   9.468
30457WAT     H191613   9.366   0.788   9.470
30457WAT     H291614   9.255   0.872   9.385
30458WAT      O91615   3.495   5.333   1.922
30458WAT     H191616   3.425   5.342   1.993
30458WAT     H291617   3.575   5.287   1.959
30459WAT      O91618   3.888   1.238   5.780
30459WAT     H191619   3.969   1.280   5.738
30459WAT     H291620   3.815   1.306   5.788
30460WAT      O91621   1.833   9.801   7.914
30460WAT     H191622   1.781   9.725   7.875
30460WAT     H291623   1.931   9.784   7.901
30461WAT      O91624   2.188   4.960   6.453
30461WAT     H191625   2.237   4.879   6.421
30461WAT     H291626   2.254   5.030   6.480
30462WAT      O91627   4.201   9.644   7.599
30462WAT     H191628   4.275   9.672   7.538
30462WAT     H291629   4.180   9.718   7.662
30463WAT      O91630   6.388   4.560   6.871
30463WAT     H191631   6.334   4.476   6.876
30463WAT     H291632   6.483   4.540   6.893
30464WAT      O91633   3.381   7.209   9.043
30464WAT     H191634   3.435   7.165   8.972
30464WAT     H291635   3.284   7.193   9.027
30465WAT      O91636   4.423   8.335   2.793
30465WAT     H191637   4.417   8.399   2.870
30465WAT     H291638   4.341   8.278   2.790
30466WAT      O91639   9.506   4.119   3.211
30466WAT     H191640   9.452   4.102   3.129
30466WAT     H291641   9.473   4.202   3.256
30467WAT      O91642   5.465   1.885   2.740
30467WAT     H191643   5.484   1.903   2.836
30467WAT     H291644   5.422   1.966   2.699
30468WAT      O91645   8.339   4.890   7.696
30468WAT     H191646   8.355   4.830   7.618
30468WAT     H291647   8.392   4.974   7.686
30469WAT      O91648   0.131   6.522   0.762
30469WAT     H191649   0.144   6.557   0.670
30469WAT     H291650   0.214   6.538   0.816
30470WAT      O91651   6.133   8.523   8.246
30470WAT     H191652   6.058   8.544   8.308
30470WAT     H291653   6.217   8.566   8.278
30471WAT      O91654   7.155   4.600   4.852
30471WAT     H191655   7.149   4.645   4.764
30471WAT     H291656   7.211   4.517   4.843
30472WAT      O91657   4.611   9.294   1.272
30472WAT     H191658   4.691   9.354   1.270
30472WAT     H291659   4.604   9.245   1.185
30473WAT      O91660   9.321   9.188   7.758
30473WAT     H191661   9.293   9.283   7.770
30473WAT     H291662   9.306   9.139   7.844
30474WAT      O91663   8.232   6.754   0.990
30474WAT     H191664   8.276   6.838   1.024
30474WAT     H291665   8.134   6.757   1.009
30475WAT      O91666   2.612   5.975   7.519
30475WAT     H191667   2.556   6.033   7.459
30475WAT     H291668   2.552   5.920   7.577
30476WAT      O91669   0.422   4.887   4.566
30476WAT     H191670   0.485   4.965   4.576
30476WAT     H291671   0.473   4.806   4.537
30477WAT      O91672   5.307   6.744   4.543
30477WAT     H191673   5.287   6.821   4.603
30477WAT     H291674   5.397   6.705   4.567
30478WAT      O91675   8.210   5.563   8.333
30478WAT     H191676   8.307   5.547   8.351
30478WAT     H291677   8.198   5.654   8.294
30479WAT      O91678   7.136   8.970   0.552
30479WAT     H191679   7.060   8.982   0.615
30479WAT     H291680   7.200   9.046   0.562
30480WAT      O91681   2.989   4.434   4.894
30480WAT     H191682   2.904   4.467   4.853
30480WAT     H291683   3.066   4.485   4.856
30481WAT      O91684   1.898   9.658   4.249
30481WAT     H191685   1.816   9.600   4.242
30481WAT     H291686   1.887   9.739   4.192
30482WAT      O91687   7.398   7.930   1.034
30482WAT     H191688   7.464   7.943   1.108
30482WAT     H291689   7.306   7.918   1.072
30483WAT      O91690   7.875   5.583   6.509
30483WAT     H191691   7.872   5.603   6.607
30483WAT     H291692   7.963   5.612   6.472
30484WAT      O91693   6.893   2.293   5.979
30484WAT     H191694   6.925   2.247   5.896
30484WAT     H291695   6.821   2.359   5.955
30485WAT      O91696   3.108   1.174   9.789
30485WAT     H191697   3.131   1.190   9.884
30485WAT     H291698   3.056   1.252   9.753
30486WAT      O91699   2.073   2.726   0.063
30486WAT     H191700   2.032   2.643   0.102
30486WAT     H291701   2.053   2.803   0.123
30487WAT      O91702   8.995   5.554   7.728
30487WAT     H191703   8.986   5.628   7.662
30487WAT     H291704   8.946   5.473   7.695
30488WAT      O91705   4.526   0.181   9.769
30488WAT     H191706   4.431   0.210   9.764
30488WAT     H291707   4.535   0.104   9.832
30489WAT      O91708   6.980   0.175   4.569
30489WAT     H191709   7.048   0.227   4.620
30489WAT     H291710   7.026   0.111   4.507
30490WAT      O91711   2.848   1.584   0.768
30490WAT     H191712   2.804   1.608   0.681
30490WAT     H291713   2.947   1.588   0.758
30491WAT      O91714   9.204   9.432   4.102
30491WAT     H191715   9.189   9.391   4.012
30491WAT     H291716   9.138   9.394   4.167
30492WAT      O91717   8.792   8.592   9.008
30492WAT     H191718   8.733   8.598   9.088
30492WAT     H291719   8.807   8.495   8.985
30493WAT      O91720   9.078   8.008   6.657
30493WAT     H191721   9.133   7.925   6.653
30493WAT     H291722   8.985   7.986   6.686
30494WAT      O91723   0.118   6.013   6.517
30494WAT     H191724   0.109   6.108   6.487
30494WAT     H291725   0.214   5.992   6.536
30495WAT      O91726   4.412   8.793   1.735
30495WAT     H191727   4.317   8.772   1.760
30495WAT     H291728   4.419   8.799   1.636
30496WAT      O91729   4.624   5.952   7.079
30496WAT     H191730   4.649   6.036   7.031
30496WAT     H291731   4.645   5.873   7.022
30497WAT      O91732   5.676   6.741   5.367
30497WAT     H191733   5.592   6.696   5.395
30497WAT     H291734   5.755   6.688   5.400
30498WAT      O91735   8.084   0.399   8.895
30498WAT     H191736   8.001   0.364   8.851
30498WAT     H291737   8.136   0.323   8.934
30499WAT      O91738   9.340   1.287   9.255
30499WAT     H191739   9.270   1.232   9.210
30499WAT     H291740   9.303   1.377   9.277
30500WAT      O91741   1.382   7.437   4.803
30500WAT     H191742   1.409   7.534   4.799
30500WAT     H291743   1.295   7.428   4.851
30501WAT      O91744   2.666   0.430   2.779
30501WAT     H191745   2.704   0.504   2.834
30501WAT     H291746   2.574   0.408   2.813
30502WAT      O91747   3.880   2.991   9.395
30502WAT     H191748   3.953   3.059   9.393
30502WAT     H291749   3.808   3.021   9.459
30503WAT      O91750   0.533   6.802   3.913
30503WAT     H191751   0.449   6.857   3.910
30503WAT     H291752   0.598   6.844   3.976
30504WAT      O91753   7.326   0.496   5.456
30504WAT     H191754   7.289   0.577   5.412
30504WAT     H291755   7.372   0.439   5.387
30505WAT      O91756   2.053   1.171   8.587
30505WAT     H191757   1.980   1.107   8.613
30505WAT     H291758   2.091   1.213   8.669
30506WAT      O91759   2.620   8.034   8.834
30506WAT     H191760   2.678   8.032   8.752
30506WAT     H291761   2.553   8.108   8.826
30507WAT      O91762   6.571   7.753   9.340
30507WAT     H191763   6.627   7.671   9.346
30507WAT     H291764   6.528   7.757   9.249
30508WAT      O91765   6.374   1.072   8.638
30508WAT     H191766   6.331   1.162   8.624
30508WAT     H291767   6.460   1.068   8.588
30509WAT      O91768   5.517   2.506   4.278
30509WAT     H191769   5.480   2.563   4.352
30509WAT     H291770   5.575   2.435   4.317
30510WAT      O91771   0.730   4.327   7.041
30510WAT     H191772   0.793   4.327   6.963
30510WAT     H291773   0.769   4.381   7.115
30511WAT      O91774   9.710   9.559   6.927
30511WAT     H191775   9.709   9.651   6.964
30511WAT     H291776   9.675   9.494   6.995
30512WAT      O91777   0.181   5.993   8.214
30512WAT     H191778   0.086   6.013   8.241
30512WAT     H291779   0.210   6.059   8.145
30513WAT      O91780   2.498   2.182   5.345
30513WAT     H191781   2.540   2.265   5.382
30513WAT     H291782   2.427   2.150   5.408
30514WAT      O91783   0.713   8.119   3.271
30514WAT     H191784   0.753   8.130   3.180
30514WAT     H291785   0.771   8.058   3.325
30515WAT      O91786   3.172   7.799   2.638
30515WAT     H191787   3.170   7.713   2.586
30515WAT     H291788   3.189   7.779   2.734
30516WAT      O91789   7.615   5.157   1.965
30516WAT     H191790   7.626   5.058   1.960
30516WAT     H291791   7.706   5.200   1.968
30517WAT      O91792   0.060   2.707   5.796
30517WAT     H191793  -0.011   2.761   5.750
30517WAT     H291794   0.017   2.637   5.853
30518WAT      O91795   5.022   3.313   5.537
30518WAT     H191796   5.060   3.221   5.535
30518WAT     H291797   4.939   3.316   5.481
30519WAT      O91798   3.708   0.236   6.170
30519WAT     H191799   3.753   0.318   6.205
30519WAT     H291800   3.609   0.246   6.178
30520WAT      O91801   2.220   5.878   4.085
30520WAT     H191802   2.139   5.916   4.040
30520WAT     H291803   2.271   5.821   4.020
30521WAT      O91804   9.344   7.862   3.687
30521WAT     H191805   9.368   7.953   3.652
30521WAT     H291806   9.300   7.871   3.776
30522WAT      O91807   0.988   8.025   8.916
30522WAT     H191808   0.900   8.022   8.869
30522WAT     H291809   0.974   8.036   9.014
30523WAT      O91810   3.059   4.817   8.165
30523WAT     H191811   3.024   4.903   8.202
30523WAT     H291812   3.128   4.780   8.227
30524WAT      O91813   4.035   6.581   8.882
30524WAT     H191814   4.007   6.604   8.788
30524WAT     H291815   3.965   6.525   8.925
30525WAT      O91816   8.384   1.665   4.158
30525WAT     H191817   8.348   1.756   4.178
30525WAT     H291818   8.484   1.668   4.157
30526WAT      O91819   0.818   0.072   4.251
30526WAT     H191820   0.880   0.106   4.321
30526WAT     H291821   0.782  -0.017   4.278
30527WAT      O91822   9.781   1.246   2.703
30527WAT     H191823   9.734   1.215   2.620
30527WAT     H291824   9.720   1.304   2.756
30528WAT      O91825   4.290   2.188   8.196
30528WAT     H191826   4.232   2.162   8.272
30528WAT     H291827   4.356   2.257   8.226
30529WAT      O91828   0.041   6.431   2.651
30529WAT     H191829   0.133   6.424   2.612
30529WAT     H291830   0.031   6.520   2.695
30530WAT      O91831   3.579   0.068   4.878
30530WAT     H191832   3.643  -0.009   4.873
30530WAT     H291833   3.534   0.081   4.790
30531WAT      O91834   7.085   5.221   9.546
30531WAT     H191835   7.028   5.143   9.520
30531WAT     H291836   7.150   5.240   9.472
30532WAT      O91837   9.409   5.439   8.019
30532WAT     H191838   9.483   5.405   7.961
30532WAT     H291839   9.336   5.477   7.961
30533WAT      O91840   5.378   2.293   3.695
30533WAT     H191841   5.356   2.336   3.782
30533WAT     H291842   5.344   2.199   3.694
30534WAT      O91843   1.003   6.179   9.882
30534WAT     H191844   0.947   6.116   9.935
30534WAT     H291845   1.075   6.217   9.941
30535WAT      O91846   5.261   5.344   2.440
30535WAT     H191847   5.339   5.377   2.492
30535WAT     H291848   5.248   5.246   2.457
30536WAT      O91849   5.068   6.191   2.829
30536WAT     H191850   5.133   6.166   2.901
30536WAT     H291851   5.113   6.186   2.740
30537WAT      O91852   8.761   4.102   4.173
30537WAT     H191853   8.791   4.124   4.081
30537WAT     H291854   8.686   4.164   4.199
30538WAT      O91855   4.572   6.261   9.666
30538WAT     H191856   4.548   6.233   9.572
30538WAT     H291857   4.550   6.186   9.729
30539WAT      O91858   2.343   7.803   2.890
30539WAT     H191859   2.267   7.868   2.889
30539WAT     H291860   2.415   7.836   2.828
30540WAT      O91861   4.395   2.781   2.063
30540WAT     H191862   4.482   2.829   2.070
30540WAT     H291863   4.373   2.766   1.967
30541WAT      O91864   2.422   6.448   5.611
30541WAT     H191865   2.373   6.532   5.634
30541WAT     H291866   2.483   6.466   5.533
30542WAT      O91867   0.121   8.767   1.022
30542WAT     H191868   0.050   8.770   0.951
30542WAT     H291869   0.086   8.721   1.103
30543WAT      O91870   9.232   2.647   4.020
30543WAT     H191871   9.256   2.634   4.116
30543WAT     H291872   9.240   2.560   3.972
30544WAT      O91873   6.279   0.200   6.244
30544WAT     H191874   6.354   0.218   6.309
30544WAT     H291875   6.252   0.104   6.251
30545WAT      O91876   2.406   3.591   4.006
30545WAT     H191877   2.477   3.646   4.051
30545WAT     H291878   2.398   3.503   4.051
30546WAT      O91879   2.963   3.655   0.307
30546WAT     H191880   2.881   3.648   0.250
30546WAT     H291881   2.940   3.635   0.402
30547WAT      O91882   1.765   9.510   2.604
30547WAT     H191883   1.814   9.484   2.522
30547WAT     H291884   1.767   9.435   2.670
30548WAT      O91885   0.640   3.278   4.223
30548WAT     H191886   0.728   3.299   4.266
30548WAT     H291887   0.636   3.319   4.132
30549WAT      O91888   3.357   9.113   9.744
30549WAT     H191889   3.397   9.178   9.680
30549WAT     H291890   3.341   9.025   9.698
30550WAT      O91891   7.401   5.915   0.122
30550WAT     H191892   7.478   5.959   0.168
30550WAT     H291893   7.319   5.970   0.135
30551WAT      O91894   9.887   3.493   8.095
30551WAT     H191895   9.940   3.411   8.073
30551WAT     H291896   9.790   3.475   8.081
30552WAT      O91897   6.071   9.820   0.124
30552WAT     H191898   6.106   9.741   0.074
30552WAT     H291899   6.140   9.892   0.126
30553WAT      O91900   4.075   8.115   2.357
30553WAT     H191901   4.119   8.184   2.414
30553WAT     H291902   4.135   8.036   2.347
30554WAT      O91903   6.665   2.124   4.202
30554WAT     H191904   6.678   2.126   4.302
30554WAT     H291905   6.703   2.208   4.163
30555WAT      O91906   3.714   6.314   8.665
30555WAT     H191907   3.713   6.221   8.628
30555WAT     H291908   3.771   6.316   8.747
30556WAT      O91909   8.243   5.841   1.306
30556WAT     H191910   8.162   5.790   1.278
30556WAT     H291911   8.238   5.934   1.269
30557WAT      O91912   2.523   4.665   6.244
30557WAT     H191913   2.590   4.651   6.170
30557WAT     H291914   2.558   4.732   6.309
30558WAT      O91915   2.287   1.691   6.953
30558WAT     H191916   2.224   1.662   6.881
30558WAT     H291917   2.380   1.695   6.916
30559WAT      O91918   5.174   6.049   0.084
30559WAT     H191919   5.112   6.122   0.054
30559WAT     H291920   5.169   6.041   0.184
30560WAT      O91921   1.629   2.286   0.969
30560WAT     H191922   1.658   2.374   1.007
30560WAT     H291923   1.530   2.276   0.983
30561WAT      O91924   8.896   4.433   1.806
30561WAT     H191925   8.868   4.343   1.841
30561WAT     H291926   8.856   4.504   1.864
30562WAT      O91927   2.788   5.266   7.915
30562WAT     H191928   2.743   5.238   7.830
30562WAT     H291929   2.874   5.217   7.925
30563WAT      O91930   5.121   5.368   6.044
30563WAT     H191931   5.053   5.295   6.056
30563WAT     H291932   5.117   5.402   5.950
30564WAT      O91933   4.571   8.065   7.424
30564WAT     H191934   4.473   8.058   7.442
30564WAT     H291935   4.587   8.115   7.339
30565WAT      O91936   1.712   0.207   7.923
30565WAT     H191937   1.615   0.197   7.903
30565WAT     H291938   1.758   0.119   7.912
30566WAT      O91939   8.105   2.934   8.535
30566WAT     H191940   8.097   2.974   8.626
30566WAT     H291941   8.202   2.925   8.511
30567WAT      O91942   5.117   4.081   2.789
30567WAT     H191943   5.184   4.098   2.862
30567WAT     H291944   5.046   4.151   2.792
30568WAT      O91945   5.674   7.628   0.786
30568WAT     H191946   5.709   7.537   0.812
30568WAT     H291947   5.635   7.672   0.866
30569WAT      O91948   2.513   5.456   3.538
30569WAT     H191949   2.594   5.493   3.582
30569WAT     H291950   2.530   5.361   3.511
30570WAT      O91951   3.433   4.164   6.021
30570WAT     H191952   3.507   4.176   5.955
30570WAT     H291953   3.392   4.074   6.010
30571WAT      O91954   8.422   6.706   9.225
30571WAT     H191955   8.351   6.700   9.295
30571WAT     H291956   8.449   6.614   9.198
30572WAT      O91957   3.794   3.037   8.864
30572WAT     H191958   3.697   3.026   8.843
30572WAT     H291959   3.804   3.092   8.947
30573WAT      O91960   4.127   8.074   9.238
30573WAT     H191961   4.201   8.054   9.301
30573WAT     H291962   4.083   8.160   9.263
30574WAT      O91963   0.929   5.710   2.088
30574WAT     H191964   0.865   5.758   2.028
30574WAT     H291965   0.999   5.773   2.120
30575WAT      O91966   7.520   5.468   8.169
30575WAT     H191967   7.598   5.499   8.224
30575WAT     H291968   7.463   5.546   8.144
30576WAT      O91969   0.050   4.212   6.203
30576WAT     H191970   0.123   4.178   6.144
30576WAT     H291971  -0.009   4.135   6.231
30577WAT      O91972   4.770   3.089   4.534
30577WAT     H191973   4.772   2.994   4.503
30577WAT     H291974   4.676   3.116   4.554
30578WAT      O91975   5.816   5.898   8.653
30578WAT     H191976   5.857   5.981   8.616
30578WAT     H291977   5.867   5.868   8.734
30579WAT      O91978   7.376   5.620   5.099
30579WAT     H191979   7.315   5.646   5.024
30579WAT     H291980   7.332   5.549   5.155
30580WAT      O91981   6.267   8.665   8.739
30580WAT     H191982   6.287   8.730   8.812
30580WAT     H291983   6.270   8.712   8.651
30581WAT      O91984   8.024   4.826   4.575
30581WAT     H191985   7.973   4.764   4.517
30581WAT     H291986   8.038   4.913   4.528
30582WAT      O91987   2.171   4.261   2.662
30582WAT     H191988   2.189   4.179   2.608
30582WAT     H291989   2.181   4.342   2.604
30583WAT      O91990   3.555   9.715   6.182
30583WAT     H191991   3.522   9.666   6.263
30583WAT     H291992   3.478   9.756   6.134
30584WAT      O91993   8.962   2.879   5.622
30584WAT     H191994   8.899   2.928   5.561
30584WAT     H291995   8.942   2.781   5.619
30585WAT      O91996   1.194   4.301   3.059
30585WAT     H191997   1.220   4.336   3.149
30585WAT     H291998   1.186   4.377   2.995
30586WAT      O91999   5.109   2.887   2.510
30586WAT     H192000   5.134   2.795   2.478
30586WAT     H292001   5.098   2.948   2.431
30587WAT      O92002   4.104   1.138   0.831
30587WAT     H192003   4.200   1.110   0.826
30587WAT     H292004   4.056   1.080   0.897
30588WAT      O92005   3.574   4.381   8.472
30588WAT     H192006   3.654   4.441   8.469
30588WAT     H292007   3.539   4.369   8.379
30589WAT      O92008   0.942   3.961   9.755
30589WAT     H192009   0.862   4.020   9.768
30589WAT     H292010   0.925   3.897   9.680
30590WAT      O92011   1.109   3.453   3.164
30590WAT     H192012   1.207   3.443   3.144
30590WAT     H292013   1.056   3.401   3.098
30591WAT      O92014   7.190   8.926   9.641
30591WAT     H192015   7.159   9.020   9.658
30591WAT     H292016   7.127   8.881   9.577
30592WAT      O92017   8.797   7.552   7.719
30592WAT     H192018   8.887   7.508   7.725
30592WAT     H292019   8.775   7.568   7.623
30593WAT      O92020   2.523   1.837   0.518
30593WAT     H192021   2.606   1.782   0.508
30593WAT     H292022   2.533   1.923   0.467
30594WAT      O92023   3.000   6.488   3.843
30594WAT     H192024   2.948   6.438   3.774
30594WAT     H292025   3.080   6.435   3.870
30595WAT      O92026   9.256   5.532   0.757
30595WAT     H192027   9.332   5.511   0.696
30595WAT     H292028   9.172   5.543   0.704
30596WAT      O92029   0.403   2.119   5.135
30596WAT     H192030   0.471   2.047   5.144
30596WAT     H292031   0.379   2.131   5.039
30597WAT      O92032   4.603   0.977   3.287
30597WAT     H192033   4.522   0.955   3.342
30597WAT     H292034   4.639   1.066   3.314
30598WAT      O92035   0.407   9.389   5.770
30598WAT     H192036   0.397   9.348   5.680
30598WAT     H292037   0.505   9.397   5.792
30599WAT      O92038   0.676   7.484   2.006
30599WAT     H192039   0.712   7.572   2.036
30599WAT     H292040   0.741   7.440   1.944
30600WAT      O92041   6.636   9.276   6.440
30600WAT     H192042   6.603   9.194   6.394
30600WAT     H292043   6.640   9.352   6.375
30601WAT      O92044   4.266   6.041   0.360
30601WAT     H192045   4.244   6.016   0.265
30601WAT     H292046   4.291   6.138   0.364
30602WAT      O92047   3.933   7.313   3.204
30602WAT     H192048   3.871   7.372   3.255
30602WAT     H292049   3.902   7.306   3.109
30603WAT      O92050   2.347   5.615   1.513
30603WAT     H192051   2.365   5.563   1.429
30603WAT     H292052   2.272   5.573   1.563
30604WAT      O92053   5.922   5.683   6.796
30604WAT     H192054   5.997   5.682   6.729
30604WAT     H292055   5.834   5.679   6.747
30605WAT      O92056   5.457   7.045   5.783
30605WAT     H192057   5.505   6.970   5.737
30605WAT     H292058   5.439   7.020   5.878
30606WAT      O92059   0.508   3.263   6.687
30606WAT     H192060   0.490   3.170   6.719
30606WAT     H292061   0.599   3.267   6.645
30607WAT      O92062   0.138   2.885   1.684
30607WAT     H192063   0.114   2.971   1.728
30607WAT     H292064   0.092   2.878   1.595
30608WAT      O92065   6.397   7.797   0.110
30608WAT     H192066   6.319   7.736   0.094
30608WAT     H292067   6.365   7.892   0.108
30609WAT      O92068   9.240   5.062   3.449
30609WAT     H192069   9.280   5.038   3.538
30609WAT     H292070   9.158   5.007   3.434
30610WAT      O92071   0.602   2.229   8.372
30610WAT     H192072   0.609   2.156   8.440
30610WAT     H292073   0.569   2.190   8.286
30611WAT      O92074   6.984   8.088   5.666
30611WAT     H192075   6.995   8.054   5.760
30611WAT     H292076   6.908   8.041   5.622
30612WAT      O92077   0.839   8.007   6.828
30612WAT     H192078   0.841   8.071   6.904
30612WAT     H292079   0.800   7.920   6.859
30613WAT      O92080   3.979   8.082   9.017
30613WAT     H192081   4.014   8.159   8.965
30613WAT     H292082   4.036   8.067   9.098
30614WAT      O92083   1.032   5.574   4.750
30614WAT     H192084   1.028   5.487   4.701
30614WAT     H292085   1.090   5.565   4.830
30615WAT      O92086   0.404   1.987   2.742
30615WAT     H192087   0.459   1.907   2.769
30615WAT     H292088   0.335   2.004   2.812
30616WAT      O92089   3.800   8.891   0.525
30616WAT     H192090   3.748   8.915   0.607
30616WAT     H292091   3.771   8.949   0.448
30617WAT      O92092   4.227   7.129   3.333
30617WAT     H192093   4.220   7.229   3.335
30617WAT     H292094   4.192   7.094   3.247
30618WAT      O92095   0.057   6.126   5.830
30618WAT     H192096   0.059   6.168   5.739
30618WAT     H292097  -0.015   6.056   5.833
30619WAT      O92098   8.019   3.248   5.498
30619WAT     H192099   8.081   3.326   5.495
30619WAT     H292100   7.973   3.245   5.587
30620WAT      O92101   0.425   5.827   6.802
30620WAT     H192102   0.514   5.860   6.834
30620WAT     H292103   0.403   5.741   6.848
30621WAT      O92104   2.156   1.495   1.077
30621WAT     H192105   2.172   1.578   1.023
30621WAT     H292106   2.242   1.465   1.118
30622WAT      O92107   6.853   8.001   7.877
30622WAT     H192108   6.776   7.964   7.824
30622WAT     H292109   6.823   8.020   7.970
30623WAT      O92110   0.964   6.435   0.246
30623WAT     H192111   1.018   6.359   0.209
30623WAT     H292112   1.025   6.503   0.286
30624WAT      O92113   5.892   0.468   3.044
30624WAT     H192114   5.910   0.382   2.996
30624WAT     H292115   5.815   0.456   3.106
30625WAT      O92116   5.476   7.455   5.158
30625WAT     H192117   5.566   7.495   5.138
30625WAT     H292118   5.405   7.519   5.132
30626WAT      O92119   4.882   5.342   2.832
30626WAT     H192120   4.946   5.365   2.759
30626WAT     H292121   4.832   5.425   2.860
30627WAT      O92122   2.095   8.237   5.094
30627WAT     H192123   2.010   8.215   5.046
30627WAT     H292124   2.159   8.279   5.030
30628WAT      O92125   5.825   7.494   7.636
30628WAT     H192126   5.912   7.445   7.631
30628WAT     H292127   5.814   7.551   7.555
30629WAT      O92128   4.849   7.571   3.717
30629WAT     H192129   4.782   7.575   3.792
30629WAT     H292130   4.819   7.503   3.649
30630WAT      O92131   0.353   2.178   2.960
30630WAT     H192132   0.301   2.210   2.880
30630WAT     H292133   0.441   2.140   2.930
30631WAT      O92134   0.045   2.360   1.850
30631WAT     H192135   0.039   2.342   1.752
30631WAT     H292136   0.141   2.358   1.878
30632WAT      O92137   5.597   5.178   7.015
30632WAT     H192138   5.596   5.226   7.102
30632WAT     H292139   5.631   5.239   6.943
30633WAT      O92140   1.216   7.683   1.956
30633WAT     H192141   1.302   7.638   1.935
30633WAT     H292142   1.140   7.623   1.931
30634WAT      O92143   6.068   1.054   8.327
30634WAT     H192144   6.069   0.955   8.323
30634WAT     H292145   6.037   1.085   8.416
30635WAT      O92146   1.991   7.818   4.176
30635WAT     H192147   2.035   7.872   4.248
30635WAT     H292148   2.016   7.854   4.087
30636WAT      O92149   7.775   7.769   6.196
30636WAT     H192150   7.849   7.820   6.239
30636WAT     H292151   7.687   7.802   6.230
30637WAT      O92152   4.940   5.291   8.479
30637WAT     H192153   4.990   5.296   8.393
30637WAT     H292154   5.002   5.260   8.552
30638WAT      O92155   6.170   5.192   4.542
30638WAT     H192156   6.163   5.248   4.625
30638WAT     H292157   6.090   5.208   4.484
30639WAT      O92158   9.693   1.233   6.442
30639WAT     H192159   9.780   1.272   6.474
30639WAT     H292160   9.622   1.303   6.446
30640WAT      O92161   0.213   1.800   7.946
30640WAT     H192162   0.201   1.759   7.855
30640WAT     H292163   0.127   1.796   7.996
30641WAT      O92164   1.486   2.375   6.623
30641WAT     H192165   1.576   2.417   6.636
30641WAT     H292166   1.498   2.278   6.601
30642WAT      O92167   8.072   5.812   6.881
30642WAT     H192168   8.014   5.815   6.800
30642WAT     H292169   8.014   5.807   6.963
30643WAT      O92170   6.303   2.987   3.148
30643WAT     H192171   6.334   3.069   3.101
30643WAT     H292172   6.211   2.964   3.118
30644WAT      O92173   1.733   6.630   8.627
30644WAT     H192174   1.698   6.665   8.714
30644WAT     H292175   1.724   6.530   8.626
30645WAT      O92176   5.997   3.170   7.647
30645WAT     H192177   6.020   3.181   7.550
30645WAT     H292178   6.011   3.074   7.674
30646WAT      O92179   9.458   3.075   9.852
30646WAT     H192180   9.370   3.121   9.841
30646WAT     H292181   9.497   3.054   9.763
30647WAT      O92182   4.092   1.858   9.202
30647WAT     H192183   4.158   1.928   9.175
30647WAT     H292184   4.000   1.898   9.203
30648WAT      O92185   5.438   2.793   3.951
30648WAT     H192186   5.346   2.831   3.943
30648WAT     H292187   5.465   2.791   4.047
30649WAT      O92188   5.490   0.655   8.075
30649WAT     H192189   5.494   0.665   7.976
30649WAT     H292190   5.434   0.728   8.113
30650WAT      O92191   0.141   7.469   2.590
30650WAT     H192192   0.139   7.567   2.613
30650WAT     H292193   0.092   7.454   2.504
30651WAT      O92194   4.666   5.879   0.663
30651WAT     H192195   4.740   5.821   0.698
30651WAT     H292196   4.628   5.838   0.580
30652WAT      O92197   1.023   6.421   0.969
30652WAT     H192198   0.927   6.420   0.998
30652WAT     H292199   1.069   6.339   1.003
30653WAT      O92200   7.714   1.471   4.674
30653WAT     H192201   7.621   1.506   4.678
30653WAT     H292202   7.772   1.521   4.738
30654WAT      O92203   0.776   9.362   5.015
30654WAT     H192204   0.741   9.299   5.084
30654WAT     H292205   0.844   9.314   4.959
30655WAT      O92206   4.161   3.248   4.501
30655WAT     H192207   4.095   3.173   4.498
30655WAT     H292208   4.243   3.223   4.450
30656WAT      O92209   8.452   9.597   3.555
30656WAT     H192210   8.370   9.552   3.520
30656WAT     H292211   8.504   9.636   3.479
30657WAT      O92212   2.806   9.459   5.806
30657WAT     H192213   2.866   9.462   5.886
30657WAT     H292214   2.848   9.402   5.735
30658WAT      O92215   5.440   8.573   3.230
30658WAT     H192216   5.522   8.600   3.280
30658WAT     H292217   5.466   8.515   3.152
30659WAT      O92218   1.993   7.592   4.811
30659WAT     H192219   2.092   7.603   4.818
30659WAT     H292220   1.949   7.679   4.835
30660WAT      O92221   2.613   7.921   4.794
30660WAT     H192222   2.655   7.838   4.831
30660WAT     H292223   2.680   7.994   4.790
30661WAT      O92224   1.777   0.591   9.140
30661WAT     H192225   1.750   0.683   9.168
30661WAT     H292226   1.846   0.596   9.068
30662WAT      O92227   2.889   8.760   6.897
30662WAT     H192228   2.844   8.701   6.830
30662WAT     H292229   2.854   8.853   6.889
30663WAT      O92230   8.454   4.029   3.597
30663WAT     H192231   8.378   3.968   3.574
30663WAT     H292232   8.502   4.055   3.513
30664WAT      O92233   8.903   2.714   6.377
30664WAT     H192234   8.820   2.770   6.373
30664WAT     H292235   8.957   2.729   6.294
30665WAT      O92236   2.370   3.089   3.444
30665WAT     H192237   2.449   3.151   3.448
30665WAT     H292238   2.296   3.132   3.393
30666WAT      O92239   5.100   7.130   9.623
30666WAT     H192240   5.030   7.094   9.685
30666WAT     H292241   5.121   7.062   9.553
30667WAT      O92242   4.133   3.630   4.347
30667WAT     H192243   4.162   3.569   4.421
30667WAT     H292244   4.172   3.597   4.261
30668WAT      O92245   4.015   8.700   0.871
30668WAT     H192246   4.027   8.601   0.865
30668WAT     H292247   3.964   8.722   0.954
30669WAT      O92248   1.044   3.373   6.508
30669WAT     H192249   1.056   3.279   6.477
30669WAT     H292250   1.133   3.410   6.536
30670WAT      O92251   9.136   8.591   1.894
30670WAT     H192252   9.195   8.514   1.869
30670WAT     H292253   9.153   8.668   1.833
30671WAT      O92254   9.604   0.203   2.113
30671WAT     H192255   9.606   0.137   2.189
30671WAT     H292256   9.524   0.262   2.123
30672WAT      O92257   1.646   5.276   1.515
30672WAT     H192258   1.571   5.259   1.451
30672WAT     H292259   1.677   5.371   1.505
30673WAT      O92260   1.460   1.668   2.293
30673WAT     H192261   1.361   1.659   2.282
30673WAT     H292262   1.501   1.697   2.206
30674WAT      O92263   5.866   8.143   7.164
30674WAT     H192264   5.830   8.093   7.086
30674WAT     H292265   5.881   8.239   7.138
30675WAT      O92266   4.170   4.372   0.851
30675WAT     H192267   4.209   4.444   0.908
30675WAT     H292268   4.198   4.385   0.756
30676WAT      O92269   0.934   3.883   6.874
30676WAT     H192270   1.007   3.830   6.831
30676WAT     H292271   0.907   3.958   6.812
30677WAT      O92272   0.067   0.064   0.455
30677WAT     H192273   0.015   0.147   0.476
30677WAT     H292274   0.038  -0.010   0.515
30678WAT      O92275   7.463   3.456   6.007
30678WAT     H192276   7.433   3.540   6.051
30678WAT     H292277   7.395   3.384   6.021
30679WAT      O92278   6.958   0.248   2.167
30679WAT     H192279   6.913   0.226   2.253
30679WAT     H292280   6.941   0.175   2.101
30680WAT      O92281   5.489   2.707   7.730
30680WAT     H192282   5.452   2.757   7.651
30680WAT     H292283   5.520   2.617   7.700
30681WAT      O92284   4.142   6.312   7.964
30681WAT     H192285   4.231   6.276   7.936
30681WAT     H292286   4.102   6.365   7.888
30682WAT      O92287   5.701   5.104   2.974
30682WAT     H192288   5.649   5.095   3.059
30682WAT     H292289   5.796   5.075   2.990
30683WAT      O92290   0.212   7.073   1.837
30683WAT     H192291   0.307   7.040   1.843
30683WAT     H292292   0.156   7.023   1.902
30684WAT      O92293   9.651   3.284   0.016
30684WAT     H192294   9.704   3.268   0.099
30684WAT     H292295   9.592   3.205  -0.002
30685WAT      O92296   8.615   7.680   6.823
30685WAT     H192297   8.668   7.653   6.903
30685WAT     H292298   8.671   7.669   6.740
30686WAT      O92299   0.498   5.329   6.804
30686WAT     H192300   0.454   5.240   6.815
30686WAT     H292301   0.587   5.327   6.850
30687WAT      O92302   7.317   4.683   6.988
30687WAT     H192303   7.409   4.682   7.027
30687WAT     H292304   7.322   4.690   6.889
30688WAT      O92305   7.735   5.844   7.861
30688WAT     H192306   7.650   5.893   7.883
30688WAT     H292307   7.809   5.883   7.915
30689WAT      O92308   9.526   7.850   1.038
30689WAT     H192309   9.521   7.915   1.114
30689WAT     H292310   9.449   7.787   1.043
30690WAT      O92311   3.900   3.587   4.488
30690WAT     H192312   3.981   3.618   4.438
30690WAT     H292313   3.928   3.548   4.576
30691WAT      O92314   9.078   8.572   8.908
30691WAT     H192315   9.167   8.602   8.943
30691WAT     H292316   9.007   8.595   8.974
30692WAT      O92317   4.636   7.805   0.331
30692WAT     H192318   4.538   7.794   0.348
30692WAT     H292319   4.649   7.867   0.253
30693WAT      O92320   8.352   0.699   3.131
30693WAT     H192321   8.322   0.738   3.219
30693WAT     H292322   8.388   0.607   3.146
30694WAT      O92323   9.232   4.715   6.593
30694WAT     H192324   9.327   4.697   6.622
30694WAT     H292325   9.233   4.780   6.518
30695WAT      O92326   1.974   1.411   3.839
30695WAT     H192327   2.043   1.354   3.794
30695WAT     H292328   2.015   1.500   3.862
30696WAT      O92329   3.429   6.402   0.132
30696WAT     H192330   3.489   6.479   0.153
30696WAT     H292331   3.337   6.420   0.168
30697WAT      O92332   1.541   6.968   2.670
30697WAT     H192333   1.611   6.905   2.635
30697WAT     H292334   1.580   7.022   2.744
30698WAT      O92335   3.090   3.866   2.147
30698WAT     H192336   3.007   3.905   2.107
30698WAT     H292337   3.068   3.823   2.235
30699WAT      O92338   0.406   9.329   0.955
30699WAT     H192339   0.477   9.269   0.991
30699WAT     H292340   0.428   9.354   0.860
30700WAT      O92341   1.583   9.331   3.335
30700WAT     H192342   1.653   9.319   3.265
30700WAT     H292343   1.535   9.245   3.349
30701WAT      O92344   0.933   8.206   3.509
30701WAT     H192345   1.014   8.212   3.567
30701WAT     H292346   0.854   8.240   3.558
30702WAT      O92347   9.693   7.096   2.712
30702WAT     H192348   9.713   7.156   2.789
30702WAT     H292349   9.711   7.001   2.738
30703WAT      O92350   4.862   3.485   0.669
30703WAT     H192351   4.865   3.442   0.759
30703WAT     H292352   4.812   3.572   0.676
30704WAT      O92353   1.814   9.679   7.574
30704WAT     H192354   1.767   9.634   7.650
30704WAT     H292355   1.901   9.716   7.607
30705WAT      O92356   7.169   2.701   1.516
30705WAT     H192357   7.115   2.749   1.584
30705WAT     H292358   7.233   2.639   1.562
30706WAT      O92359   0.670   4.336   4.206
30706WAT     H192360   0.638   4.417   4.156
30706WAT     H292361   0.605   4.314   4.278
30707WAT      O92362   1.071   6.633   2.116
30707WAT     H192363   1.135   6.704   2.088
30707WAT     H292364   1.070   6.626   2.216
30708WAT      O92365   9.071   1.512   5.422
30708WAT     H192366   9.001   1.577   5.391
30708WAT     H292367   9.059   1.425   5.375
30709WAT      O92368   8.744   7.442   9.822
30709WAT     H192369   8.725   7.538   9.839
30709WAT     H292370   8.759   7.427   9.724
30710WAT      O92371   0.488   8.446   7.529
30710WAT     H192372   0.495   8.499   7.444
30710WAT     H292373   0.393   8.419   7.543
30711WAT      O92374   6.010   9.519   1.976
30711WAT     H192375   6.034   9.454   1.904
30711WAT     H292376   6.088   9.579   1.994
30712WAT      O92377   3.591   6.982   8.655
30712WAT     H192378   3.652   7.022   8.587
30712WAT     H292379   3.517   6.933   8.609
30713WAT      O92380   1.836   1.461   7.803
30713WAT     H192381   1.800   1.530   7.740
30713WAT     H292382   1.902   1.403   7.755
30714WAT      O92383   2.227   2.827   4.782
30714WAT     H192384   2.197   2.751   4.724
30714WAT     H292385   2.170   2.832   4.864
30715WAT      O92386   8.755   2.687   6.931
30715WAT     H192387   8.753   2.587   6.923
30715WAT     H292388   8.668   2.725   6.901
30716WAT      O92389   2.983   2.571   3.455
30716WAT     H192390   2.968   2.660   3.498
30716WAT     H292391   2.912   2.555   3.386
30717WAT      O92392   4.718   9.398   7.537
30717WAT     H192393   4.785   9.471   7.551
30717WAT     H292394   4.637   9.416   7.593
30718WAT      O92395   7.199   0.769   8.621
30718WAT     H192396   7.231   0.862   8.602
30718WAT     H292397   7.195   0.717   8.535
30719WAT      O92398   2.639   8.759   1.892
30719WAT     H192399   2.546   8.787   1.870
30719WAT     H292400   2.700   8.838   1.885
30720WAT      O92401   1.255   0.136   9.510
30720WAT     H192402   1.345   0.152   9.470
30720WAT     H292403   1.242   0.038   9.526
30721WAT      O92404   6.704   4.572   3.103
30721WAT     H192405   6.706   4.643   3.173
30721WAT     H292406   6.743   4.487   3.141
30722WAT      O92407   4.345   5.978   5.105
30722WAT     H192408   4.393   6.031   5.035
30722WAT     H292409   4.363   6.019   5.195
30723WAT      O92410   4.580   2.204   8.665
30723WAT     H192411   4.553   2.153   8.584
30723WAT     H292412   4.533   2.167   8.745
30724WAT      O92413   6.978   5.046   6.330
30724WAT     H192414   6.907   5.055   6.261
30724WAT     H292415   7.061   5.009   6.288
30725WAT      O92416   6.952   9.670   4.227
30725WAT     H192417   6.908   9.598   4.281
30725WAT     H292418   7.012   9.724   4.287
30726WAT      O92419   8.532   6.431   6.583
30726WAT     H192420   8.538   6.369   6.505
30726WAT     H292421   8.438   6.428   6.620
30727WAT      O92422   8.959   0.894   2.778
30727WAT     H192423   8.939   0.800   2.806
30727WAT     H292424   9.050   0.898   2.738
30728WAT      O92425   8.525   0.121   6.949
30728WAT     H192426   8.470   0.195   6.912
30728WAT     H292427   8.478   0.034   6.934
30729WAT      O92428   8.478   3.039   4.108
30729WAT     H192429   8.499   2.986   4.025
30729WAT     H292430   8.458   2.977   4.183
30730WAT      O92431   3.529   4.806   8.920
30730WAT     H192432   3.597   4.855   8.866
30730WAT     H292433   3.459   4.769   8.860
30731WAT      O92434   8.403   2.170   6.144
30731WAT     H192435   8.482   2.203   6.091
30731WAT     H292436   8.321   2.221   6.116
30732WAT      O92437   9.824   2.730   4.619
30732WAT     H192438   9.750   2.774   4.569
30732WAT     H292439   9.910   2.742   4.568
30733WAT      O92440   9.528   4.681   6.679
30733WAT     H192441   9.616   4.675   6.633
30733WAT     H292442   9.491   4.589   6.692
30734WAT      O92443   1.778   6.826   7.748
30734WAT     H192444   1.722   6.744   7.737
30734WAT     H292445   1.775   6.880   7.664
30735WAT      O92446   9.844   4.635   1.968
30735WAT     H192447   9.752   4.671   1.987
30735WAT     H292448   9.880   4.680   1.886
30736WAT      O92449   6.363   4.395   8.178
30736WAT     H192450   6.424   4.468   8.149
30736WAT     H292451   6.296   4.432   8.243
30737WAT      O92452   2.089   3.272   4.602
30737WAT     H192453   2.119   3.317   4.518
30737WAT     H292454   2.120   3.325   4.682
30738WAT      O92455   0.229   7.236   0.285
30738WAT     H192456   0.290   7.166   0.249
30738WAT     H292457   0.141   7.195   0.308
30739WAT      O92458   9.049   7.250   1.146
30739WAT     H192459   9.097   7.278   1.229
30739WAT     H292460   8.950   7.253   1.162
30740WAT      O92461   3.943   6.977   8.089
30740WAT     H192462   3.893   6.952   8.005
30740WAT     H292463   3.987   7.065   8.076
30741WAT      O92464   9.419   1.540   9.592
30741WAT     H192465   9.516   1.555   9.610
30741WAT     H292466   9.367   1.546   9.677
30742WAT      O92467   7.505   9.691   4.598
30742WAT     H192468   7.507   9.591   4.605
30742WAT     H292469   7.524   9.718   4.503
30743WAT      O92470   4.136   1.382   9.236
30743WAT     H192471   4.149   1.283   9.241
30743WAT     H292472   4.210   1.428   9.286
30744WAT      O92473   8.213   6.048   0.098
30744WAT     H192474   8.274   5.970   0.109
30744WAT     H292475   8.128   6.019   0.054
30745WAT      O92476   0.330   7.966   6.885
30745WAT     H192477   0.260   8.035   6.867
30745WAT     H292478   0.416   7.993   6.841
30746WAT      O92479   1.545   3.535   0.346
30746WAT     H192480   1.537   3.466   0.273
30746WAT     H292481   1.636   3.528   0.388
30747WAT      O92482   4.132   7.114   5.957
30747WAT     H192483   4.112   7.177   5.882
30747WAT     H292484   4.091   7.148   6.042
30748WAT      O92485   1.871   4.233   3.462
30748WAT     H192486   1.865   4.306   3.394
30748WAT     H292487   1.932   4.262   3.536
30749WAT      O92488   1.405   2.728   3.232
30749WAT     H192489   1.308   2.712   3.213
30749WAT     H292490   1.417   2.745   3.330
30750WAT      O92491   2.143   0.541   6.594
30750WAT     H192492   2.129   0.531   6.495
30750WAT     H292493   2.076   0.607   6.630
30751WAT      O92494   6.296   6.358   0.178
30751WAT     H192495   6.321   6.437   0.233
30751WAT     H292496   6.197   6.341   0.187
30752WAT      O92497   1.533   9.775   7.126
30752WAT     H192498   1.551   9.721   7.208
30752WAT     H292499   1.603   9.846   7.116
30753WAT      O92500   3.887   5.137   9.215
30753WAT     H192501   3.916   5.230   9.237
30753WAT     H292502   3.803   5.116   9.266
30754WAT      O92503   7.031   5.771   0.686
30754WAT     H192504   7.033   5.858   0.736
30754WAT     H292505   7.095   5.707   0.729
30755WAT      O92506   7.343   7.143   9.844
30755WAT     H192507   7.247   7.160   9.824
30755WAT     H292508   7.381   7.081   9.775
30756WAT      O92509   2.861   9.117   8.435
30756WAT     H192510   2.951   9.150   8.463
30756WAT     H292511   2.809   9.092   8.516
30757WAT      O92512   8.928   5.111   2.580
30757WAT     H192513   8.968   5.163   2.655
30757WAT     H292514   8.856   5.165   2.536
30758WAT      O92515   7.704   2.039   8.241
30758WAT     H192516   7.762   1.978   8.188
30758WAT     H292517   7.634   2.079   8.182
30759WAT      O92518   0.997   0.747   6.977
30759WAT     H192519   1.010   0.745   6.878
30759WAT     H292520   0.923   0.810   7.000
30760WAT      O92521   1.124   3.167   5.504
30760WAT     H192522   1.049   3.207   5.557
30760WAT     H292523   1.150   3.231   5.431
30761WAT      O92524   3.293   7.634   1.978
30761WAT     H192525   3.238   7.618   2.060
30761WAT     H292526   3.390   7.626   2.001
30762WAT      O92527   0.293   5.121   6.884
30762WAT     H192528   0.364   5.056   6.910
30762WAT     H292529   0.215   5.113   6.946
30763WAT      O92530   6.278   5.697   2.804
30763WAT     H192531   6.311   5.771   2.746
30763WAT     H292532   6.205   5.647   2.757
30764WAT      O92533   2.704   2.766   5.703
30764WAT     H192534   2.699   2.738   5.607
30764WAT     H292535   2.715   2.865   5.708
30765WAT      O92536   1.804   1.049   8.946
30765WAT     H192537   1.893   1.005   8.955
30765WAT     H292538   1.810   1.144   8.975
30766WAT      O92539   6.744   0.909   0.723
30766WAT     H192540   6.726   0.928   0.820
30766WAT     H292541   6.659   0.877   0.680
30767WAT      O92542   2.765   0.464   9.421
30767WAT     H192543   2.835   0.401   9.455
30767WAT     H292544   2.809   0.543   9.379
30768WAT      O92545   0.422   1.615   3.908
30768WAT     H192546   0.512   1.573   3.909
30768WAT     H292547   0.364   1.570   3.976
30769WAT      O92548   3.372   4.813   1.540
30769WAT     H192549   3.388   4.894   1.484
30769WAT     H292550   3.383   4.730   1.484
30770WAT      O92551   4.511   3.328   3.523
30770WAT     H192552   4.442   3.255   3.518
30770WAT     H292553   4.510   3.381   3.439
30771WAT      O92554   4.694   8.162   8.761
30771WAT     H192555   4.766   8.164   8.831
30771WAT     H292556   4.735   8.151   8.671
30772WAT      O92557   8.433   5.173   4.003
30772WAT     H192558   8.377   5.249   4.035
30772WAT     H292559   8.453   5.185   3.906
30773WAT      O92560   9.496   2.830   6.401
30773WAT     H192561   9.549   2.747   6.381
30773WAT     H292562   9.436   2.851   6.324
30774WAT      O92563   1.830   3.587   3.673
30774WAT     H192564   1.823   3.680   3.707
30774WAT     H292565   1.743   3.560   3.631
30775WAT      O92566   3.271   5.092   7.483
30775WAT     H192567   3.353   5.046   7.516
30775WAT     H292568   3.222   5.131   7.561
30776WAT      O92569   0.947   4.401   2.675
30776WAT     H192570   0.947   4.402   2.575
30776WAT     H292571   1.023   4.347   2.708
30777WAT      O92572   3.726   7.681   3.470
30777WAT     H192573   3.711   7.604   3.407
30777WAT     H292574   3.712   7.767   3.421
30778WAT      O92575   4.023   6.316   5.490
30778WAT     H192576   4.086   6.245   5.523
30778WAT     H292577   3.940   6.273   5.454
30779WAT      O92578   5.012   2.481   9.104
30779WAT     H192579   4.963   2.513   9.024
30779WAT     H292580   4.950   2.429   9.163
30780WAT      O92581   7.597   4.924   4.210
30780WAT     H192582   7.694   4.948   4.219
30780WAT     H292583   7.565   4.885   4.296
30781WAT      O92584   3.378   8.204   2.368
30781WAT     H192585   3.308   8.249   2.314
30781WAT     H292586   3.338   8.129   2.420
30782WAT      O92587   5.648   3.056   8.666
30782WAT     H192588   5.615   3.126   8.730
30782WAT     H292589   5.710   2.993   8.715
30783WAT      O92590   3.952   9.561   9.229
30783WAT     H192591   3.989   9.654   9.228
30783WAT     H292592   3.867   9.560   9.282
30784WAT      O92593   4.840   8.913   3.865
30784WAT     H192594   4.786   8.981   3.815
30784WAT     H292595   4.933   8.947   3.879
30785WAT      O92596   2.727   0.094   0.798
30785WAT     H192597   2.781   0.061   0.876
30785WAT     H292598   2.744   0.192   0.786
30786WAT      O92599   7.415   0.143   9.868
30786WAT     H192600   7.456   0.075   9.808
30786WAT     H292601   7.378   0.218   9.813
30787WAT      O92602   1.092   9.104   8.456
30787WAT     H192603   1.149   9.144   8.527
30787WAT     H292604   1.012   9.162   8.440
30788WAT      O92605   5.969   5.536   3.239
30788WAT     H192606   5.954   5.503   3.146
30788WAT     H292607   6.034   5.612   3.238
30789WAT      O92608   1.837   1.783   6.106
30789WAT     H192609   1.812   1.696   6.063
30789WAT     H292610   1.754   1.837   6.123
30790WAT      O92611   3.275   5.619   2.845
30790WAT     H192612   3.330   5.538   2.823
30790WAT     H292613   3.333   5.701   2.839
30791WAT      O92614   0.589   6.988   3.034
30791WAT     H192615   0.503   6.994   2.983
30791WAT     H292616   0.662   7.034   2.982
30792WAT      O92617   8.644   9.358   8.925
30792WAT     H192618   8.595   9.389   9.006
30792WAT     H292619   8.586   9.294   8.873
30793WAT      O92620   3.717   1.248   0.476
30793WAT     H192621   3.729   1.337   0.432
30793WAT     H292622   3.649   1.194   0.426
30794WAT      O92623   6.230   6.727   4.942
30794WAT     H192624   6.260   6.800   4.880
30794WAT     H292625   6.195   6.651   4.888
30795WAT      O92626   1.571   7.365   5.037
30795WAT     H192627   1.472   7.351   5.031
30795WAT     H292628   1.618   7.279   5.022
30796WAT      O92629   9.625   0.226   6.004
30796WAT     H192630   9.571   0.305   6.035
30796WAT     H292631   9.617   0.152   6.071
30797WAT      O92632   1.201   2.119   9.121
30797WAT     H192633   1.255   2.189   9.075
30797WAT     H292634   1.242   2.097   9.210
30798WAT      O92635   6.350   5.801   0.025
30798WAT     H192636   6.437   5.756   0.043
30798WAT     H292637   6.330   5.867   0.097
30799WAT      O92638   5.342   5.294   6.185
30799WAT     H192639   5.413   5.317   6.119
30799WAT     H292640   5.252   5.303   6.142
30800WAT      O92641   2.086   6.778   6.827
30800WAT     H192642   2.048   6.692   6.791
30800WAT     H292643   2.054   6.854   6.771
30801WAT      O92644   1.254   3.666   9.073
30801WAT     H192645   1.270   3.678   8.975
30801WAT     H292646   1.320   3.600   9.110
30802WAT      O92647   2.356   4.832   4.950
30802WAT     H192648   2.310   4.920   4.959
30802WAT     H292649   2.289   4.759   4.948
30803WAT      O92650   3.765   1.154   6.514
30803WAT     H192651   3.813   1.162   6.601
30803WAT     H292652   3.733   1.060   6.501
30804WAT      O92653   6.934   8.586   5.344
30804WAT     H192654   6.999   8.633   5.404
30804WAT     H292655   6.981   8.553   5.262
30805WAT      O92656   9.556   5.619   9.019
30805WAT     H192657   9.599   5.592   8.933
30805WAT     H292658   9.574   5.716   9.036
30806WAT      O92659   0.389   0.049   8.961
30806WAT     H192660   0.437   0.107   9.026
30806WAT     H292661   0.334  -0.018   9.010
30807WAT      O92662   3.801   1.032   3.426
30807WAT     H192663   3.728   1.079   3.476
30807WAT     H292664   3.770   1.009   3.334
30808WAT      O92665   4.520   7.173   2.615
30808WAT     H192666   4.539   7.237   2.541
30808WAT     H292667   4.428   7.134   2.603
30809WAT      O92668   0.954   4.719   9.693
30809WAT     H192669   1.023   4.662   9.738
30809WAT     H292670   0.991   4.755   9.608
30810WAT      O92671   0.068   7.825   1.506
30810WAT     H192672  -0.019   7.846   1.463
30810WAT     H292673   0.053   7.804   1.603
30811WAT      O92674   3.686   1.278   1.462
30811WAT     H192675   3.640   1.270   1.550
30811WAT     H292676   3.746   1.199   1.449
30812WAT      O92677   8.516   9.098   3.946
30812WAT     H192678   8.562   9.165   4.004
30812WAT     H292679   8.563   9.092   3.859
30813WAT      O92680   7.407   6.274   9.880
30813WAT     H192681   7.370   6.355   9.924
30813WAT     H292682   7.338   6.202   9.878
30814WAT      O92683   9.620   3.352   7.999
30814WAT     H192684   9.664   3.268   7.967
30814WAT     H292685   9.591   3.340   8.094
30815WAT      O92686   6.791   4.903   9.794
30815WAT     H192687   6.754   4.929   9.883
30815WAT     H292688   6.860   4.832   9.806
30816WAT      O92689   8.985   5.497   1.132
30816WAT     H192690   8.964   5.504   1.229
30816WAT     H292691   8.911   5.537   1.078
30817WAT      O92692   9.744   9.798   5.538
30817WAT     H192693   9.771   9.861   5.465
30817WAT     H292694   9.713   9.852   5.617
30818WAT      O92695   1.711   0.365   5.042
30818WAT     H192696   1.807   0.372   5.015
30818WAT     H292697   1.694   0.275   5.082
30819WAT      O92698   8.673   4.919   9.542
30819WAT     H192699   8.748   4.917   9.477
30819WAT     H292700   8.643   5.014   9.556
30820WAT      O92701   8.016   4.577   7.188
30820WAT     H192702   8.022   4.662   7.240
30820WAT     H292703   7.934   4.577   7.132
30821WAT      O92704   9.260   7.461   9.291
30821WAT     H192705   9.224   7.396   9.224
30821WAT     H292706   9.360   7.464   9.284
30822WAT      O92707   8.107   4.413   7.368
30822WAT     H192708   8.146   4.477   7.435
30822WAT     H292709   8.090   4.460   7.282
30823WAT      O92710   9.395   7.347   2.652
30823WAT     H192711   9.392   7.265   2.594
30823WAT     H292712   9.488   7.383   2.654
30824WAT      O92713   3.399   4.344   8.693
30824WAT     H192714   3.468   4.334   8.764
30824WAT     H292715   3.443   4.358   8.605
30825WAT      O92716   8.095   1.533   0.182
30825WAT     H192717   8.021   1.595   0.208
30825WAT     H292718   8.156   1.518   0.261
30826WAT      O92719   5.827   5.587   5.941
30826WAT     H192720   5.923   5.600   5.918
30826WAT     H292721   5.775   5.667   5.910
30827WAT      O92722   6.496   0.839   4.255
30827WAT     H192723   6.438   0.880   4.324
30827WAT     H292724   6.550   0.909   4.209
30828WAT      O92725   1.157   4.541   1.369
30828WAT     H192726   1.175   4.477   1.444
30828WAT     H292727   1.113   4.492   1.293
30829WAT      O92728   8.392   0.297   6.808
30829WAT     H192729   8.405   0.296   6.709
30829WAT     H292730   8.406   0.390   6.842
30830WAT      O92731   0.295   5.442   2.310
30830WAT     H192732   0.211   5.388   2.304
30830WAT     H292733   0.313   5.466   2.405
30831WAT      O92734   3.449   3.818   4.934
30831WAT     H192735   3.359   3.810   4.978
30831WAT     H292736   3.440   3.799   4.836
30832WAT      O92737   0.590   7.609   1.594
30832WAT     H192738   0.603   7.681   1.662
30832WAT     H292739   0.564   7.650   1.506
30833WAT      O92740   1.176   3.469   5.146
30833WAT     H192741   1.107   3.400   5.124
30833WAT     H292742   1.233   3.486   5.066
30834WAT      O92743   3.062   7.461   5.267
30834WAT     H192744   3.105   7.519   5.337
30834WAT     H292745   2.969   7.437   5.295
30835WAT      O92746   2.630   8.814   1.036
30835WAT     H192747   2.573   8.869   0.974
30835WAT     H292748   2.693   8.874   1.085
30836WAT      O92749   6.672   3.829   3.545
30836WAT     H192750   6.603   3.882   3.594
30836WAT     H292751   6.697   3.749   3.600
30837WAT      O92752   4.934   6.208   0.251
30837WAT     H192753   5.002   6.274   0.219
30837WAT     H292754   4.928   6.213   0.351
30838WAT      O92755   6.387   3.577   9.032
30838WAT     H192756   6.301   3.629   9.031
30838WAT     H292757   6.460   3.636   9.066
30839WAT      O92758   7.337   8.284   1.309
30839WAT     H192759   7.321   8.375   1.268
30839WAT     H292760   7.249   8.241   1.326
30840WAT      O92761   5.824   2.120   4.574
30840WAT     H192762   5.731   2.093   4.549
30840WAT     H292763   5.827   2.218   4.590
30841WAT      O92764   4.699   9.348   5.849
30841WAT     H192765   4.733   9.334   5.942
30841WAT     H292766   4.600   9.360   5.851
30842WAT      O92767   4.169   1.493   1.350
30842WAT     H192768   4.069   1.488   1.357
30842WAT     H292769   4.195   1.492   1.254
30843WAT      O92770   4.850   7.404   1.645
30843WAT     H192771   4.904   7.475   1.599
30843WAT     H292772   4.757   7.437   1.661
30844WAT      O92773   2.132   3.317   1.197
30844WAT     H192774   2.166   3.247   1.259
30844WAT     H292775   2.201   3.337   1.127
30845WAT      O92776   4.405   2.721   5.559
30845WAT     H192777   4.336   2.792   5.549
30845WAT     H292778   4.444   2.700   5.469
30846WAT      O92779   3.565   1.834   2.905
30846WAT     H192780   3.496   1.903   2.883
30846WAT     H292781   3.633   1.830   2.831
30847WAT      O92782   9.307   2.360   6.191
30847WAT     H192783   9.297   2.447   6.238
30847WAT     H292784   9.226   2.344   6.133
30848WAT      O92785   3.376   7.586   8.199
30848WAT     H192786   3.396   7.650   8.273
30848WAT     H292787   3.410   7.622   8.113
30849WAT      O92788   8.612   1.529   9.232
30849WAT     H192789   8.649   1.599   9.292
30849WAT     H292790   8.515   1.545   9.217
30850WAT      O92791   8.628   9.278   0.447
30850WAT     H192792   8.638   9.323   0.358
30850WAT     H292793   8.685   9.197   0.450
30851WAT      O92794   3.456   3.199   8.628
30851WAT     H192795   3.464   3.214   8.726
30851WAT     H292796   3.523   3.256   8.580
30852WAT      O92797   4.417   9.602   6.399
30852WAT     H192798   4.404   9.505   6.378
30852WAT     H292799   4.329   9.646   6.412
30853WAT      O92800   1.833   1.733   8.075
30853WAT     H192801   1.827   1.820   8.124
30853WAT     H292802   1.859   1.660   8.139
30854WAT      O92803   2.539   3.022   2.137
30854WAT     H192804   2.595   2.951   2.093
30854WAT     H292805   2.552   3.109   2.090
30855WAT      O92806   8.827   3.960   4.512
30855WAT     H192807   8.799   3.867   4.488
30855WAT     H292808   8.816   4.020   4.433
30856WAT      O92809   5.220   4.986   9.384
30856WAT     H192810   5.210   4.887   9.369
30856WAT     H292811   5.129   5.028   9.389
30857WAT      O92812   4.226   3.976   2.090
30857WAT     H192813   4.253   3.968   1.994
30857WAT     H292814   4.230   4.072   2.117
30858WAT      O92815   2.183   9.407   0.132
30858WAT     H192816   2.129   9.322   0.134
30858WAT     H292817   2.254   9.399   0.062
30859WAT      O92818   3.709   7.144   6.036
30859WAT     H192819   3.712   7.219   5.970
30859WAT     H292820   3.782   7.157   6.104
30860WAT      O92821   4.192   8.507   0.554
30860WAT     H192822   4.263   8.518   0.484
30860WAT     H292823   4.112   8.462   0.514
30861WAT      O92824   9.419   8.671   5.108
30861WAT     H192825   9.440   8.747   5.170
30861WAT     H292826   9.327   8.637   5.127
30862WAT      O92827   8.285   9.052   3.738
30862WAT     H192828   8.308   9.140   3.696
30862WAT     H292829   8.356   9.028   3.805
30863WAT      O92830   2.651   6.380   1.486
30863WAT     H192831   2.561   6.362   1.524
30863WAT     H292832   2.707   6.297   1.494
30864WAT      O92833   6.730   7.300   0.764
30864WAT     H192834   6.768   7.344   0.682
30864WAT     H292835   6.763   7.347   0.846
30865WAT      O92836   5.924   3.147   8.283
30865WAT     H192837   5.844   3.203   8.304
30865WAT     H292838   5.931   3.135   8.184
30866WAT      O92839   4.068   0.849   9.894
30866WAT     H192840   4.162   0.824   9.872
30866WAT     H292841   4.026   0.893   9.815
30867WAT      O92842   4.956   9.492   7.311
30867WAT     H192843   4.937   9.497   7.409
30867WAT     H292844   4.921   9.405   7.275
30868WAT      O92845   0.956   2.959   1.772
30868WAT     H192846   0.993   2.952   1.680
30868WAT     H292847   0.859   2.932   1.771
30869WAT      O92848   0.742   8.960   3.688
30869WAT     H192849   0.794   8.884   3.651
30869WAT     H292850   0.715   8.939   3.782
30870WAT      O92851   4.993   0.067   3.378
30870WAT     H192852   4.951   0.008   3.308
30870WAT     H292853   4.991   0.162   3.347
30871WAT      O92854   8.971   4.516   0.381
30871WAT     H192855   9.060   4.517   0.426
30871WAT     H292856   8.970   4.584   0.307
30872WAT      O92857   0.691   1.335   3.734
30872WAT     H192858   0.643   1.383   3.807
30872WAT     H292859   0.779   1.379   3.717
30873WAT      O92860   3.230   8.201   2.950
30873WAT     H192861   3.284   8.276   2.989
30873WAT     H292862   3.217   8.218   2.852
30874WAT      O92863   2.615   9.048   1.643
30874WAT     H192864   2.692   9.111   1.653
30874WAT     H292865   2.531   9.091   1.676
30875WAT      O92866   0.060   7.580   5.956
30875WAT     H192867   0.083   7.483   5.969
30875WAT     H292868   0.143   7.635   5.959
30876WAT      O92869   3.479   2.584   4.527
30876WAT     H192870   3.425   2.642   4.466
30876WAT     H292871   3.536   2.642   4.586
30877WAT      O92872   5.983   9.656   2.399
30877WAT     H192873   5.957   9.732   2.340
30877WAT     H292874   5.945   9.671   2.491
30878WAT      O92875   2.656   0.981   0.358
30878WAT     H192876   2.735   1.040   0.344
30878WAT     H292877   2.661   0.902   0.296
30879WAT      O92878   7.284   1.116   2.104
30879WAT     H192879   7.189   1.126   2.132
30879WAT     H292880   7.324   1.206   2.088
30880WAT      O92881   9.206   5.373   7.462
30880WAT     H192882   9.199   5.462   7.508
30880WAT     H292883   9.300   5.359   7.431
30881WAT      O92884   6.064   6.455   2.969
30881WAT     H192885   6.009   6.461   2.886
30881WAT     H292886   6.119   6.538   2.979
30882WAT      O92887   8.085   3.576   8.415
30882WAT     H192888   8.181   3.591   8.440
30882WAT     H292889   8.070   3.479   8.396
30883WAT      O92890   7.895   7.409   7.531
30883WAT     H192891   7.860   7.393   7.439
30883WAT     H292892   7.818   7.422   7.594
30884WAT      O92893   1.872   4.732   8.981
30884WAT     H192894   1.884   4.669   9.059
30884WAT     H292895   1.827   4.815   9.013
30885WAT      O92896   5.160   2.593   9.280
30885WAT     H192897   5.159   2.522   9.350
30885WAT     H292898   5.115   2.560   9.198
30886WAT      O92899   3.705   9.669   2.124
30886WAT     H192900   3.665   9.747   2.075
30886WAT     H292901   3.773   9.625   2.065
30887WAT      O92902   9.536   7.156   3.335
30887WAT     H192903   9.504   7.217   3.263
30887WAT     H292904   9.597   7.205   3.396
30888WAT      O92905   1.144   0.809   3.421
30888WAT     H192906   1.140   0.907   3.441
30888WAT     H292907   1.226   0.769   3.463
30889WAT      O92908   2.520   1.334   3.027
30889WAT     H192909   2.529   1.379   2.938
30889WAT     H292910   2.600   1.356   3.084
30890WAT      O92911   3.149   7.281   8.450
30890WAT     H192912   3.117   7.273   8.545
30890WAT     H292913   3.172   7.190   8.415
30891WAT      O92914   5.087   3.309   8.680
30891WAT     H192915   5.105   3.350   8.591
30891WAT     H292916   5.126   3.217   8.683
30892WAT      O92917   0.749   1.583   8.107
30892WAT     H192918   0.802   1.503   8.079
30892WAT     H292919   0.739   1.584   8.207
30893WAT      O92920   5.116   5.181   5.782
30893WAT     H192921   5.213   5.158   5.787
30893WAT     H292922   5.106   5.279   5.767
30894WAT      O92923   3.835   9.027   0.981
30894WAT     H192924   3.895   9.015   1.061
30894WAT     H292925   3.739   9.024   1.011
30895WAT      O92926   6.656   6.704   6.339
30895WAT     H192927   6.726   6.705   6.411
30895WAT     H292928   6.698   6.674   6.253
30896WAT      O92929   6.729   0.652   4.166
30896WAT     H192930   6.657   0.695   4.221
30896WAT     H292931   6.703   0.656   4.069
30897WAT      O92932   3.633   7.507   4.222
30897WAT     H192933   3.533   7.517   4.224
30897WAT     H292934   3.664   7.494   4.128
30898WAT      O92935   2.517   9.809   7.167
30898WAT     H192936   2.501   9.757   7.083
30898WAT     H292937   2.581   9.759   7.226
30899WAT      O92938   6.779   0.191   1.800
30899WAT     H192939   6.766   0.120   1.730
30899WAT     H292940   6.864   0.174   1.849
30900WAT      O92941   9.695   2.153   5.153
30900WAT     H192942   9.715   2.214   5.230
30900WAT     H292943   9.670   2.062   5.188
30901WAT      O92944   4.783   8.952   0.557
30901WAT     H192945   4.820   8.993   0.474
30901WAT     H292946   4.705   9.005   0.588
30902WAT      O92947   2.201   2.088   4.530
30902WAT     H192948   2.281   2.125   4.483
30902WAT     H292949   2.215   1.991   4.550
30903WAT      O92950   0.957   9.195   1.211
30903WAT     H192951   0.895   9.225   1.138
30903WAT     H292952   1.049   9.182   1.174
30904WAT      O92953   6.899   3.979   7.007
30904WAT     H192954   6.928   3.932   7.090
30904WAT     H292955   6.956   3.949   6.930
30905WAT      O92956   6.348   5.732   4.353
30905WAT     H192957   6.336   5.700   4.447
30905WAT     H292958   6.341   5.654   4.291
30906WAT      O92959   3.241   8.979   0.078
30906WAT     H192960   3.213   8.885   0.056
30906WAT     H292961   3.271   9.025  -0.005
30907WAT      O92962   3.467   3.840   0.528
30907WAT     H192963   3.539   3.901   0.561
30907WAT     H292964   3.491   3.746   0.549
30908WAT      O92965   9.610   2.491   4.107
30908WAT     H192966   9.689   2.546   4.076
30908WAT     H292967   9.596   2.415   4.043
30909WAT      O92968   0.508   3.740   7.049
30909WAT     H192969   0.467   3.708   6.964
30909WAT     H292970   0.606   3.753   7.037
30910WAT      O92971   4.905   8.110   6.207
30910WAT     H192972   4.846   8.184   6.173
30910WAT     H292973   4.974   8.148   6.268
30911WAT      O92974   6.503   9.550   7.044
30911WAT     H192975   6.517   9.628   7.106
30911WAT     H292976   6.532   9.575   6.952
30912WAT      O92977   2.927   9.674   8.522
30912WAT     H192978   2.894   9.608   8.454
30912WAT     H292979   2.913   9.638   8.614
30913WAT      O92980   1.128   2.679   7.178
30913WAT     H192981   1.181   2.605   7.220
30913WAT     H292982   1.053   2.706   7.239
30914WAT      O92983   5.996   6.091   1.290
30914WAT     H192984   5.908   6.057   1.257
30914WAT     H292985   6.051   6.014   1.324
30915WAT      O92986   7.496   8.564   1.478
30915WAT     H192987   7.480   8.498   1.551
30915WAT     H292988   7.590   8.597   1.483
30916WAT      O92989   6.281   7.635   3.940
30916WAT     H192990   6.300   7.641   3.842
30916WAT     H292991   6.234   7.718   3.970
30917WAT      O92992   6.996   1.023   7.033
30917WAT     H192993   7.043   0.938   7.009
30917WAT     H292994   6.932   1.007   7.108
30918WAT      O92995   6.663   4.916   6.467
30918WAT     H192996   6.749   4.884   6.428
30918WAT     H292997   6.680   4.956   6.557
30919WAT      O92998   6.446   1.927   9.225
30919WAT     H192999   6.393   1.847   9.253
30919WAT     H293000   6.531   1.930   9.277
30920WAT      O93001   1.349   3.452   6.904
30920WAT     H193002   1.410   3.489   6.973
30920WAT     H293003   1.389   3.467   6.813
30921WAT      O93004   3.631   5.403   5.849
30921WAT     H193005   3.687   5.350   5.786
30921WAT     H293006   3.637   5.363   5.941
30922WAT      O93007   3.451   6.330   8.812
30922WAT     H193008   3.378   6.284   8.761
30922WAT     H293009   3.534   6.332   8.757
30923WAT      O93010   7.157   4.063   7.846
30923WAT     H193011   7.239   4.057   7.790
30923WAT     H293012   7.144   4.157   7.877
30924WAT      O93013   7.937   1.363   1.705
30924WAT     H193014   8.034   1.387   1.702
30924WAT     H293015   7.921   1.296   1.778
30925WAT      O93016   3.837   3.459   9.880
30925WAT     H193017   3.894   3.382   9.911
30925WAT     H293018   3.806   3.441   9.787
30926WAT      O93019   3.160   2.539   1.919
30926WAT     H193020   3.060   2.549   1.920
30926WAT     H293021   3.185   2.456   1.969
30927WAT      O93022   8.463   2.879   7.699
30927WAT     H193023   8.497   2.945   7.632
30927WAT     H293024   8.488   2.787   7.670
30928WAT      O93025   6.318   5.719   1.723
30928WAT     H193026   6.251   5.647   1.740
30928WAT     H293027   6.317   5.784   1.799
30929WAT      O93028   0.622   9.821   1.827
30929WAT     H193029   0.574   9.737   1.855
30929WAT     H293030   0.721   9.804   1.828
30930WAT      O93031   1.299   6.013   9.263
30930WAT     H193032   1.377   6.062   9.302
30930WAT     H293033   1.295   6.029   9.165
30931WAT      O93034   3.202   4.341   2.664
30931WAT     H193035   3.145   4.408   2.618
30931WAT     H293036   3.294   4.379   2.679
30932WAT      O93037   0.994   3.614   4.686
30932WAT     H193038   1.016   3.525   4.725
30932WAT     H293039   0.953   3.602   4.595
30933WAT      O93040   9.497   9.058   0.582
30933WAT     H193041   9.595   9.075   0.592
30933WAT     H293042   9.462   9.107   0.502
30934WAT      O93043   3.657   4.397   9.361
30934WAT     H193044   3.631   4.485   9.402
30934WAT     H293045   3.756   4.390   9.356
30935WAT      O93046   9.079   4.179   3.321
30935WAT     H193047   9.138   4.099   3.323
30935WAT     H293048   8.983   4.151   3.328
30936WAT      O93049   5.592   8.569   9.717
30936WAT     H193050   5.508   8.623   9.709
30936WAT     H293051   5.568   8.474   9.736
30937WAT      O93052   9.738   9.294   6.595
30937WAT     H193053   9.724   9.352   6.515
30937WAT     H293054   9.805   9.337   6.656
30938WAT      O93055   0.208   1.574   0.920
30938WAT     H193056   0.283   1.514   0.948
30938WAT     H293057   0.241   1.667   0.909
30939WAT      O93058   8.359   4.649   1.198
30939WAT     H193059   8.346   4.581   1.126
30939WAT     H293060   8.271   4.687   1.225
30940WAT      O93061   9.222   0.778   0.615
30940WAT     H193062   9.286   0.786   0.539
30940WAT     H293063   9.146   0.718   0.589
30941WAT      O93064   1.492   9.580   9.550
30941WAT     H193065   1.396   9.607   9.545
30941WAT     H293066   1.524   9.589   9.645
30942WAT      O93067   1.028   4.886   0.034
30942WAT     H193068   1.004   4.791   0.014
30942WAT     H293069   1.049   4.934  -0.051
30943WAT      O93070   1.726   2.169   7.052
30943WAT     H193071   1.821   2.187   7.026
30943WAT     H293072   1.673   2.254   7.049
30944WAT      O93073   6.710   9.801   5.579
30944WAT     H193074   6.626   9.853   5.570
30944WAT     H293075   6.689   9.703   5.575
30945WAT      O93076   7.511   6.310   1.172
30945WAT     H193077   7.434   6.247   1.176
30945WAT     H293078   7.477   6.404   1.173
30946WAT      O93079   4.803   2.864   5.867
30946WAT     H193080   4.875   2.933   5.863
30946WAT     H293081   4.716   2.905   5.842
30947WAT      O93082   1.964   2.165   3.156
30947WAT     H193083   1.901   2.237   3.186
30947WAT     H293084   2.058   2.190   3.180
30948WAT      O93085   2.624   9.406   3.513
30948WAT     H193086   2.695   9.337   3.501
30948WAT     H293087   2.567   9.382   3.592
30949WAT      O93088   0.196   7.569   1.783
30949WAT     H193089   0.149   7.656   1.800
30949WAT     H293090   0.157   7.499   1.843
30950WAT      O93091   0.163   7.584   7.411
30950WAT     H193092   0.235   7.544   7.467
30950WAT     H293093   0.091   7.622   7.471
30951WAT      O93094   0.662   1.363   4.753
30951WAT     H193095   0.674   1.269   4.786
30951WAT     H293096   0.595   1.410   4.810
30952WAT      O93097   2.890   4.652   8.025
30952WAT     H193098   2.937   4.566   8.004
30952WAT     H293099   2.957   4.719   8.056
30953WAT      O93100   1.775   7.227   6.703
30953WAT     H193101   1.808   7.295   6.637
30953WAT     H293102   1.705   7.171   6.660
30954WAT      O93103   8.359   8.171   5.449
30954WAT     H193104   8.337   8.232   5.525
30954WAT     H293105   8.435   8.111   5.476
30955WAT      O93106   8.275   8.673   6.172
30955WAT     H193107   8.297   8.750   6.232
30955WAT     H293108   8.205   8.616   6.215
30956WAT      O93109   8.778   3.005   4.430
30956WAT     H193110   8.864   3.010   4.482
30956WAT     H293111   8.752   3.097   4.400
30957WAT      O93112   8.938   5.302   4.778
30957WAT     H193113   8.898   5.211   4.779
30957WAT     H293114   9.005   5.310   4.852
30958WAT      O93115   5.343   0.752   1.828
30958WAT     H193116   5.317   0.711   1.916
30958WAT     H293117   5.406   0.691   1.780
30959WAT      O93118   1.304   5.591   9.112
30959WAT     H193119   1.381   5.531   9.135
30959WAT     H293120   1.338   5.668   9.058
30960WAT      O93121   8.800   4.232   7.574
30960WAT     H193122   8.782   4.326   7.546
30960WAT     H293123   8.715   4.190   7.607
30961WAT      O93124   8.402   2.854   7.208
30961WAT     H193125   8.494   2.816   7.212
30961WAT     H293126   8.338   2.793   7.254
30962WAT      O93127   4.483   0.405   1.420
30962WAT     H193128   4.455   0.320   1.464
30962WAT     H293129   4.418   0.428   1.348
30963WAT      O93130   0.781   4.080   5.798
30963WAT     H193131   0.792   4.055   5.701
30963WAT     H293132   0.796   4.178   5.809
30964WAT      O93133   9.099   0.010   6.863
30964WAT     H193134   9.092  -0.060   6.792
30964WAT     H293135   9.112   0.100   6.821
30965WAT      O93136   1.509   4.990   5.266
30965WAT     H193137   1.460   5.076   5.250
30965WAT     H293138   1.517   4.973   5.364
30966WAT      O93139   1.313   0.038   8.959
30966WAT     H193140   1.246   0.091   9.011
30966WAT     H293141   1.309   0.063   8.863
30967WAT      O93142   5.477   2.527   5.118
30967WAT     H193143   5.388   2.535   5.162
30967WAT     H293144   5.464   2.505   5.022
30968WAT      O93145   7.728   2.139   2.513
30968WAT     H193146   7.719   2.146   2.414
30968WAT     H293147   7.656   2.080   2.549
30969WAT      O93148   4.997   0.503   2.124
30969WAT     H193149   4.941   0.586   2.130
30969WAT     H293150   4.940   0.423   2.140
30970WAT      O93151   7.458   6.731   9.100
30970WAT     H193152   7.374   6.784   9.111
30970WAT     H293153   7.513   6.771   9.027
30971WAT      O93154   1.730   6.758   8.891
30971WAT     H193155   1.672   6.830   8.851
30971WAT     H293156   1.673   6.699   8.949
30972WAT      O93157   9.458   4.540   2.958
30972WAT     H193158   9.459   4.449   2.918
30972WAT     H293159   9.365   4.577   2.955
30973WAT      O93160   5.749   1.853   8.007
30973WAT     H193161   5.775   1.945   8.035
30973WAT     H293162   5.659   1.831   8.045
30974WAT      O93163   0.304   3.970   1.686
30974WAT     H193164   0.271   3.918   1.764
30974WAT     H293165   0.235   3.971   1.614
30975WAT      O93166   7.527   2.782   9.434
30975WAT     H193167   7.484   2.775   9.524
30975WAT     H293168   7.604   2.846   9.440
30976WAT      O93169   0.860   7.354   2.692
30976WAT     H193170   0.842   7.271   2.745
30976WAT     H293171   0.824   7.434   2.741
30977WAT      O93172   4.255   2.981   1.717
30977WAT     H193173   4.216   3.063   1.759
30977WAT     H293174   4.182   2.927   1.675
30978WAT      O93175   6.301   0.216   2.433
30978WAT     H193176   6.346   0.196   2.520
30978WAT     H293177   6.323   0.144   2.366
30979WAT      O93178   0.733   7.956   5.249
30979WAT     H193179   0.647   7.932   5.204
30979WAT     H293180   0.799   7.987   5.181
30980WAT      O93181   8.834   4.678   4.788
30980WAT     H193182   8.860   4.664   4.884
30980WAT     H293183   8.903   4.736   4.744
30981WAT      O93184   8.753   5.952   4.796
30981WAT     H193185   8.753   5.922   4.701
30981WAT     H293186   8.838   6.000   4.816
30982WAT      O93187   4.492   2.266   4.165
30982WAT     H193188   4.522   2.276   4.070
30982WAT     H293189   4.570   2.244   4.223
30983WAT      O93190   2.957   1.567   4.558
30983WAT     H193191   3.044   1.615   4.569
30983WAT     H293192   2.968   1.493   4.491
30984WAT      O93193   2.842   5.345   2.591
30984WAT     H193194   2.743   5.336   2.579
30984WAT     H293195   2.860   5.419   2.657
30985WAT      O93196   8.626   6.612   6.741
30985WAT     H193197   8.599   6.550   6.667
30985WAT     H293198   8.709   6.576   6.785
30986WAT      O93199   9.505   3.524   4.511
30986WAT     H193200   9.506   3.587   4.588
30986WAT     H293201   9.437   3.452   4.528
30987WAT      O93202   2.285   4.449   5.512
30987WAT     H193203   2.195   4.426   5.475
30987WAT     H293204   2.279   4.457   5.611
30988WAT      O93205   8.784   3.432   1.718
30988WAT     H193206   8.693   3.394   1.730
30988WAT     H293207   8.810   3.430   1.621
30989WAT      O93208   9.500   7.404   0.133
30989WAT     H193209   9.523   7.482   0.076
30989WAT     H293210   9.565   7.330   0.116
30990WAT      O93211   7.732   8.497   7.691
30990WAT     H193212   7.831   8.516   7.689
30990WAT     H293213   7.698   8.487   7.598
30991WAT      O93214   6.180   0.506   0.531
30991WAT     H193215   6.242   0.460   0.595
30991WAT     H293216   6.124   0.438   0.484
30992WAT      O93217   6.010   9.408   5.832
30992WAT     H193218   6.092   9.466   5.830
30992WAT     H293219   5.942   9.449   5.892
30993WAT      O93220   8.696   7.181   6.106
30993WAT     H193221   8.684   7.093   6.152
30993WAT     H293222   8.743   7.167   6.019
30994WAT      O93223   6.817   8.720   0.455
30994WAT     H193224   6.880   8.700   0.380
30994WAT     H293225   6.815   8.642   0.518
30995WAT      O93226   3.056   8.990   7.903
30995WAT     H193227   2.992   8.999   7.827
30995WAT     H293228   3.022   8.921   7.967
30996WAT      O93229   6.577   4.457   7.886
30996WAT     H193230   6.512   4.387   7.856
30996WAT     H293231   6.556   4.543   7.840
30997WAT      O93232   8.418   9.105   0.527
30997WAT     H193233   8.492   9.159   0.486
30997WAT     H293234   8.330   9.143   0.500
30998WAT      O93235   0.973   6.963   2.722
30998WAT     H193236   1.066   6.936   2.697
30998WAT     H293237   0.907   6.903   2.677
30999WAT      O93238   2.821   3.061   9.178
30999WAT     H193239   2.881   3.135   9.147
30999WAT     H293240   2.876   2.992   9.224
31000WAT      O93241   5.246   3.196   7.482
31000WAT     H193242   5.248   3.286   7.438
31000WAT     H293243   5.340   3.166   7.501
31001WAT      O93244   0.198   1.477   7.625
31001WAT     H193245   0.254   1.553   7.591
31001WAT     H293246   0.160   1.502   7.714
31002WAT      O93247   1.005   1.106   6.474
31002WAT     H193248   1.022   1.036   6.404
31002WAT     H293249   1.038   1.073   6.562
31003WAT      O93250   1.807   5.353   9.345
31003WAT     H193251   1.886   5.376   9.288
31003WAT     H293252   1.756   5.279   9.302
31004WAT      O93253   9.619   4.175   4.884
31004WAT     H193254   9.552   4.243   4.857
31004WAT     H293255   9.614   4.097   4.821
31005WAT      O93256   4.562   9.446   9.204
31005WAT     H193257   4.527   9.439   9.111
31005WAT     H293258   4.491   9.414   9.268
31006WAT      O93259   3.174   4.555   6.397
31006WAT     H193260   3.258   4.607   6.414
31006WAT     H293261   3.125   4.596   6.319
31007WAT      O93262   0.222   4.505   4.471
31007WAT     H193263   0.233   4.487   4.373
31007WAT     H293264   0.304   4.476   4.520
31008WAT      O93265   6.133   8.018   6.446
31008WAT     H193266   6.174   7.966   6.521
31008WAT     H293267   6.051   7.971   6.414
31009WAT      O93268   8.464   8.329   3.499
31009WAT     H193269   8.469   8.305   3.402
31009WAT     H293270   8.520   8.264   3.552
31010WAT      O93271   9.309   7.143   8.571
31010WAT     H193272   9.345   7.235   8.557
31010WAT     H293273   9.371   7.076   8.531
31011WAT      O93274   0.291   9.642   6.803
31011WAT     H193275   0.228   9.670   6.876
31011WAT     H293276   0.379   9.687   6.817
31012WAT      O93277   2.803   3.811   9.535
31012WAT     H193278   2.861   3.827   9.615
31012WAT     H293279   2.714   3.854   9.549
31013WAT      O93280   2.167   6.757   3.295
31013WAT     H193281   2.073   6.733   3.272
31013WAT     H293282   2.229   6.691   3.251
31014WAT      O93283   9.765   2.515   7.825
31014WAT     H193284   9.689   2.570   7.790
31014WAT     H293285   9.779   2.534   7.922
31015WAT      O93286   1.864   8.065   0.402
31015WAT     H193287   1.862   8.107   0.493
31015WAT     H293288   1.784   8.096   0.350
31016WAT      O93289   5.700   2.013   8.995
31016WAT     H193290   5.774   2.004   8.928
31016WAT     H293291   5.734   1.987   9.085
31017WAT      O93292   3.697   8.014   1.467
31017WAT     H193293   3.739   8.079   1.404
31017WAT     H293294   3.765   7.946   1.495
31018WAT      O93295   4.550   0.483   8.848
31018WAT     H193296   4.578   0.422   8.923
31018WAT     H293297   4.454   0.507   8.859
31019WAT      O93298   2.984   0.514   1.398
31019WAT     H193299   2.950   0.536   1.490
31019WAT     H293300   3.079   0.544   1.389
31020WAT      O93301   2.744   7.967   6.412
31020WAT     H193302   2.653   7.960   6.371
31020WAT     H293303   2.811   7.989   6.341
31021WAT      O93304   2.538   9.001   0.045
31021WAT     H193305   2.472   9.031  -0.024
31021WAT     H293306   2.548   8.901   0.039
31022WAT      O93307   1.775   0.493   0.061
31022WAT     H193308   1.706   0.422   0.047
31022WAT     H293309   1.835   0.497  -0.018
31023WAT      O93310   2.373   9.328   6.926
31023WAT     H193311   2.358   9.359   6.832
31023WAT     H293312   2.313   9.378   6.988
31024WAT      O93313   9.046   4.855   7.682
31024WAT     H193314   8.987   4.907   7.744
31024WAT     H293315   8.990   4.815   7.609
31025WAT      O93316   4.117   2.594   9.043
31025WAT     H193317   4.206   2.621   9.005
31025WAT     H293318   4.109   2.628   9.137
31026WAT      O93319   1.246   3.018   5.691
31026WAT     H193320   1.216   3.071   5.611
31026WAT     H293321   1.279   3.081   5.761
31027WAT      O93322   4.252   1.652   0.188
31027WAT     H193323   4.329   1.706   0.153
31027WAT     H293324   4.225   1.585   0.118
31028WAT      O93325   7.339   2.497   1.603
31028WAT     H193326   7.350   2.507   1.702
31028WAT     H293327   7.429   2.486   1.561
31029WAT      O93328   8.484   6.874   1.863
31029WAT     H193329   8.506   6.879   1.960
31029WAT     H293330   8.386   6.864   1.851
31030WAT      O93331   1.447   8.659   3.682
31030WAT     H193332   1.538   8.665   3.640
31030WAT     H293333   1.446   8.709   3.768
31031WAT      O93334   9.853   8.121   9.097
31031WAT     H193335   9.937   8.169   9.124
31031WAT     H293336   9.870   8.023   9.097
31032WAT      O93337   6.443   3.774   1.344
31032WAT     H193338   6.347   3.780   1.372
31032WAT     H293339   6.453   3.813   1.252
31033WAT      O93340   0.009   4.143   7.974
31033WAT     H193341   0.040   4.053   7.943
31033WAT     H293342  -0.080   4.132   8.020
31034WAT      O93343   0.871   1.888   0.532
31034WAT     H193344   0.867   1.795   0.568
31034WAT     H293345   0.959   1.930   0.554
31035WAT      O93346   6.695   2.668   3.986
31035WAT     H193347   6.635   2.684   4.065
31035WAT     H293348   6.648   2.611   3.919
31036WAT      O93349   0.052   4.879   4.250
31036WAT     H193350   0.066   4.881   4.152
31036WAT     H293351  -0.046   4.881   4.270
31037WAT      O93352   1.929   8.977   3.309
31037WAT     H193353   1.909   8.996   3.405
31037WAT     H293354   2.003   8.910   3.302
31038WAT      O93355   4.649   3.037   0.937
31038WAT     H193356   4.707   2.958   0.961
31038WAT     H293357   4.605   3.020   0.849
31039WAT      O93358   3.245   1.664   3.950
31039WAT     H193359   3.169   1.600   3.937
31039WAT     H293360   3.295   1.673   3.864
31040WAT      O93361   3.451   2.978   9.426
31040WAT     H193362   3.527   3.029   9.465
31040WAT     H293363   3.404   2.928   9.499
31041WAT      O93364   0.412   3.317   3.521
31041WAT     H193365   0.417   3.337   3.423
31041WAT     H293366   0.340   3.249   3.537
31042WAT      O93367   8.015   8.566   7.124
31042WAT     H193368   7.929   8.557   7.074
31042WAT     H293369   8.091   8.560   7.060
31043WAT      O93370   9.630   6.090   0.434
31043WAT     H193371   9.623   5.997   0.469
31043WAT     H293372   9.709   6.097   0.373
31044WAT      O93373   7.315   1.164   0.791
31044WAT     H193374   7.252   1.241   0.803
31044WAT     H293375   7.387   1.170   0.861
31045WAT      O93376   1.190   3.279   7.756
31045WAT     H193377   1.162   3.369   7.789
31045WAT     H293378   1.129   3.209   7.794
31046WAT      O93379   7.359   2.846   0.435
31046WAT     H193380   7.444   2.886   0.471
31046WAT     H293381   7.343   2.758   0.480
31047WAT      O93382   1.929   4.793   1.296
31047WAT     H193383   1.925   4.748   1.385
31047WAT     H293384   1.975   4.882   1.306
31048WAT      O93385   5.151   8.337   7.167
31048WAT     H193386   5.093   8.385   7.102
31048WAT     H293387   5.185   8.402   7.235
31049WAT      O93388   3.187   9.406   6.785
31049WAT     H193389   3.127   9.358   6.849
31049WAT     H293390   3.210   9.496   6.823
31050WAT      O93391   6.945   3.315   5.827
31050WAT     H193392   7.012   3.388   5.837
31050WAT     H293393   6.902   3.297   5.915
31051WAT      O93394   2.096   3.475   2.957
31051WAT     H193395   2.099   3.376   2.949
31051WAT     H293396   2.078   3.515   2.867
31052WAT      O93397   8.990   1.926   8.826
31052WAT     H193398   8.996   2.016   8.869
31052WAT     H293399   8.989   1.855   8.897
31053WAT      O93400   7.763   0.045   8.662
31053WAT     H193401   7.748   0.004   8.752
31053WAT     H293402   7.681   0.034   8.606
31054WAT      O93403   0.891   3.328   6.104
31054WAT     H193404   0.888   3.257   6.174
31054WAT     H293405   0.969   3.311   6.043
31055WAT      O93406   3.852   9.600   8.589
31055WAT     H193407   3.857   9.506   8.623
31055WAT     H293408   3.758   9.633   8.598
31056WAT      O93409   1.363   1.944   2.401
31056WAT     H193410   1.304   1.974   2.326
31056WAT     H293411   1.399   1.853   2.381
31057WAT      O93412   4.228   1.601   1.083
31057WAT     H193413   4.315   1.650   1.081
31057WAT     H293414   4.225   1.536   1.007
31058WAT      O93415   1.247   0.384   5.341
31058WAT     H193416   1.287   0.431   5.419
31058WAT     H293417   1.258   0.439   5.258
31059WAT      O93418   6.270   2.694   1.081
31059WAT     H193419   6.269   2.601   1.046
31059WAT     H293420   6.227   2.755   1.013
31060WAT      O93421   6.481   6.881   9.173
31060WAT     H193422   6.511   6.958   9.118
31060WAT     H293423   6.560   6.827   9.202
31061WAT      O93424   0.496   0.833   8.440
31061WAT     H193425   0.555   0.912   8.453
31061WAT     H293426   0.522   0.761   8.504
31062WAT      O93427   1.812   9.462   5.004
31062WAT     H193428   1.841   9.427   5.093
31062WAT     H293429   1.717   9.434   4.986
31063WAT      O93430   7.402   1.659   5.128
31063WAT     H193431   7.460   1.684   5.206
31063WAT     H293432   7.313   1.703   5.138
31064WAT      O93433   2.035   8.385   0.291
31064WAT     H193434   2.053   8.346   0.201
31064WAT     H293435   1.947   8.352   0.325
31065WAT      O93436   5.944   1.719   0.235
31065WAT     H193437   5.853   1.751   0.208
31065WAT     H293438   5.995   1.691   0.154
31066WAT      O93439   3.169   4.189   1.904
31066WAT     H193440   3.073   4.206   1.927
31066WAT     H293441   3.211   4.132   1.975
31067WAT      O93442   8.789   3.474   0.480
31067WAT     H193443   8.730   3.471   0.560
31067WAT     H293444   8.883   3.492   0.508
31068WAT      O93445   4.145   2.964   6.956
31068WAT     H193446   4.046   2.961   6.970
31068WAT     H293447   4.172   2.889   6.895
31069WAT      O93448   5.188   6.346   7.234
31069WAT     H193449   5.219   6.308   7.322
31069WAT     H293450   5.122   6.419   7.251
31070WAT      O93451   7.087   7.674   1.001
31070WAT     H193452   7.081   7.672   0.902
31070WAT     H293453   7.001   7.643   1.041
31071WAT      O93454   0.985   6.889   4.773
31071WAT     H193455   0.904   6.877   4.831
31071WAT     H293456   0.962   6.951   4.697
31072WAT      O93457   2.290   7.435   6.735
31072WAT     H193458   2.250   7.343   6.729
31072WAT     H293459   2.362   7.445   6.666
31073WAT      O93460   6.674   3.447   5.428
31073WAT     H193461   6.763   3.489   5.443
31073WAT     H293462   6.682   3.375   5.360
31074WAT      O93463   7.560   3.823   1.017
31074WAT     H193464   7.463   3.832   1.040
31074WAT     H293465   7.595   3.735   1.051
31075WAT      O93466   1.375   4.587   2.283
31075WAT     H193467   1.399   4.504   2.233
31075WAT     H293468   1.407   4.580   2.377
31076WAT      O93469   2.036   2.223   5.816
31076WAT     H193470   2.035   2.138   5.869
31076WAT     H293471   2.106   2.284   5.853
31077WAT      O93472   8.069   7.497   8.644
31077WAT     H193473   8.041   7.542   8.729
31077WAT     H293474   8.151   7.441   8.662
31078WAT      O93475   0.190   7.743   9.729
31078WAT     H193476   0.204   7.809   9.804
31078WAT     H293477   0.199   7.650   9.765
31079WAT      O93478   9.510   4.244   7.224
31079WAT     H193479   9.496   4.343   7.232
31079WAT     H293480   9.608   4.225   7.213
31080WAT      O93481   6.431   0.863   0.996
31080WAT     H193482   6.471   0.819   1.077
31080WAT     H293483   6.501   0.917   0.949
31081WAT      O93484   7.433   8.520   4.724
31081WAT     H193485   7.447   8.460   4.645
31081WAT     H293486   7.456   8.470   4.807
31082WAT      O93487   3.962   0.179   6.373
31082WAT     H193488   3.981   0.107   6.307
31082WAT     H293489   3.907   0.143   6.448
31083WAT      O93490   2.347   7.594   3.389
31083WAT     H193491   2.279   7.575   3.319
31083WAT     H293492   2.397   7.510   3.411
31084WAT      O93493   2.373   6.641   3.709
31084WAT     H193494   2.346   6.689   3.626
31084WAT     H293495   2.377   6.543   3.690
31085WAT      O93496   3.888   3.390   5.361
31085WAT     H193497   3.797   3.355   5.343
31085WAT     H293498   3.947   3.373   5.282
31086WAT      O93499   8.454   6.770   8.970
31086WAT     H193500   8.425   6.863   8.949
31086WAT     H293501   8.454   6.756   9.069
31087WAT      O93502   2.270   5.999   2.421
31087WAT     H193503   2.270   5.915   2.475
31087WAT     H293504   2.349   6.056   2.446
31088WAT      O93505   2.235   1.212   7.077
31088WAT     H193506   2.208   1.162   7.160
31088WAT     H293507   2.231   1.310   7.095
31089WAT      O93508   4.154   8.322   8.487
31089WAT     H193509   4.119   8.244   8.434
31089WAT     H293510   4.221   8.289   8.554
31090WAT      O93511   2.245   1.592   3.980
31090WAT     H193512   2.200   1.646   3.909
31090WAT     H293513   2.321   1.644   4.018
31091WAT      O93514   1.977   3.027   8.910
31091WAT     H193515   1.967   2.954   8.978
31091WAT     H293516   1.914   3.011   8.834
31092WAT      O93517   3.028   0.351   8.839
31092WAT     H193518   3.092   0.426   8.856
31092WAT     H293519   3.023   0.292   8.920
31093WAT      O93520   7.490   2.734   3.344
31093WAT     H193521   7.564   2.675   3.377
31093WAT     H293522   7.424   2.750   3.418
31094WAT      O93523   9.627   3.315   4.830
31094WAT     H193524   9.692   3.390   4.850
31094WAT     H293525   9.534   3.351   4.830
31095WAT      O93526   2.468   8.493   4.035
31095WAT     H193527   2.521   8.409   4.046
31095WAT     H293528   2.513   8.568   4.084
31096WAT      O93529   5.188   5.688   6.482
31096WAT     H193530   5.222   5.709   6.574
31096WAT     H293531   5.216   5.596   6.457
31097WAT      O93532   9.022   7.524   4.213
31097WAT     H193533   9.051   7.561   4.125
31097WAT     H293534   8.942   7.467   4.201
31098WAT      O93535   0.775   7.920   8.369
31098WAT     H193536   0.872   7.929   8.391
31098WAT     H293537   0.743   8.004   8.325
31099WAT      O93538   0.404   4.873   8.263
31099WAT     H193539   0.470   4.918   8.203
31099WAT     H293540   0.393   4.927   8.346
31100WAT      O93541   4.403   2.518   0.066
31100WAT     H193542   4.399   2.618   0.059
31100WAT     H293543   4.461   2.482  -0.008
31101WAT      O93544   4.655   0.756   5.257
31101WAT     H193545   4.566   0.719   5.230
31101WAT     H293546   4.720   0.745   5.182
31102WAT      O93547   0.292   4.114   5.336
31102WAT     H193548   0.276   4.030   5.285
31102WAT     H293549   0.292   4.192   5.273
31103WAT      O93550   5.004   5.145   6.170
31103WAT     H193551   4.947   5.074   6.211
31103WAT     H293552   5.094   5.107   6.149
31104WAT      O93553   8.142   6.944   4.932
31104WAT     H193554   8.168   6.859   4.977
31104WAT     H293555   8.182   6.947   4.840
31105WAT      O93556   5.802   8.968   6.508
31105WAT     H193557   5.865   9.046   6.510
31105WAT     H293558   5.851   8.888   6.474
31106WAT      O93559   8.317   8.318   8.612
31106WAT     H193560   8.249   8.312   8.539
31106WAT     H293561   8.407   8.291   8.576
31107WAT      O93562   3.171   1.715   8.307
31107WAT     H193563   3.256   1.765   8.316
31107WAT     H293564   3.164   1.676   8.215
31108WAT      O93565   4.069   3.161   3.697
31108WAT     H193566   4.119   3.231   3.647
31108WAT     H293567   4.101   3.070   3.670
31109WAT      O93568   1.469   2.395   1.897
31109WAT     H193569   1.395   2.366   1.958
31109WAT     H293570   1.432   2.453   1.824
31110WAT      O93571   8.238   7.912   2.695
31110WAT     H193572   8.234   7.816   2.668
31110WAT     H293573   8.160   7.933   2.754
31111WAT      O93574   8.135   3.035   2.770
31111WAT     H193575   8.153   3.010   2.675
31111WAT     H293576   8.194   2.982   2.831
31112WAT      O93577   4.760   4.463   1.002
31112WAT     H193578   4.661   4.449   1.006
31112WAT     H293579   4.786   4.538   1.062
31113WAT      O93580   0.712   1.370   0.889
31113WAT     H193581   0.740   1.373   0.793
31113WAT     H293582   0.681   1.277   0.912
31114WAT      O93583   4.722   6.555   1.228
31114WAT     H193584   4.715   6.652   1.206
31114WAT     H293585   4.770   6.508   1.154
31115WAT      O93586   1.962   3.107   5.676
31115WAT     H193587   1.871   3.102   5.634
31115WAT     H293588   2.026   3.053   5.622
31116WAT      O93589   8.245   0.094   2.488
31116WAT     H193590   8.271   0.169   2.428
31116WAT     H293591   8.324   0.065   2.542
31117WAT      O93592   3.141   1.498   2.239
31117WAT     H193593   3.165   1.462   2.149
31117WAT     H293594   3.195   1.581   2.257
31118WAT      O93595   9.814   1.998   9.823
31118WAT     H193596   9.724   2.043   9.827
31118WAT     H293597   9.881   2.054   9.872
31119WAT      O93598   6.480   3.524   3.509
31119WAT     H193599   6.442   3.609   3.472
31119WAT     H293600   6.462   3.450   3.445
31120WAT      O93601   5.112   1.309   1.268
31120WAT     H193602   5.160   1.383   1.222
31120WAT     H293603   5.128   1.314   1.366
31121WAT      O93604   0.289   7.143   2.919
31121WAT     H193605   0.201   7.145   2.872
31121WAT     H293606   0.363   7.144   2.852
31122WAT      O93607   9.566   2.280   1.555
31122WAT     H193608   9.470   2.289   1.530
31122WAT     H293609   9.624   2.306   1.478
31123WAT      O93610   7.363   6.483   5.239
31123WAT     H193611   7.297   6.548   5.200
31123WAT     H293612   7.419   6.445   5.166
31124WAT      O93613   8.115   9.616   0.702
31124WAT     H193614   8.163   9.701   0.719
31124WAT     H293615   8.167   9.560   0.637
31125WAT      O93616   5.411   7.478   6.648
31125WAT     H193617   5.337   7.519   6.593
31125WAT     H293618   5.377   7.457   6.739
31126WAT      O93619   7.570   3.858   9.482
31126WAT     H193620   7.578   3.944   9.431
31126WAT     H293621   7.542   3.785   9.420
31127WAT      O93622   1.040   9.291   4.444
31127WAT     H193623   0.958   9.296   4.386
31127WAT     H293624   1.031   9.354   4.520
31128WAT      O93625   7.920   2.586   2.647
31128WAT     H193626   8.014   2.595   2.613
31128WAT     H293627   7.916   2.621   2.740
31129WAT      O93628   7.050   2.304   2.408
31129WAT     H193629   7.081   2.398   2.393
31129WAT     H293630   7.118   2.254   2.462
31130WAT      O93631   3.875   7.071   1.047
31130WAT     H193632   3.812   7.079   1.125
31130WAT     H293633   3.898   6.975   1.033
31131WAT      O93634   1.635   9.176   7.261
31131WAT     H193635   1.583   9.105   7.214
31131WAT     H293636   1.663   9.246   7.195
31132WAT      O93637   1.413   5.711   6.720
31132WAT     H193638   1.463   5.796   6.702
31132WAT     H293639   1.358   5.688   6.640
31133WAT      O93640   8.407   3.255   3.754
31133WAT     H193641   8.354   3.328   3.712
31133WAT     H293642   8.398   3.261   3.854
31134WAT      O93643   0.405   0.227   0.707
31134WAT     H193644   0.328   0.291   0.709
31134WAT     H293645   0.463   0.248   0.628
31135WAT      O93646   0.517   6.447   9.149
31135WAT     H193647   0.499   6.362   9.100
31135WAT     H293648   0.576   6.428   9.228
31136WAT      O93649   5.411   6.787   6.481
31136WAT     H193650   5.497   6.778   6.529
31136WAT     H293651   5.343   6.726   6.522
31137WAT      O93652   9.338   7.517   9.581
31137WAT     H193653   9.314   7.448   9.512
31137WAT     H293654   9.295   7.604   9.557
31138WAT      O93655   2.013   1.828   8.878
31138WAT     H193656   2.087   1.760   8.873
31138WAT     H293657   2.030   1.891   8.954
31139WAT      O93658   6.151   2.427   4.410
31139WAT     H193659   6.161   2.451   4.313
31139WAT     H293660   6.197   2.496   4.466
31140WAT      O93661   3.348   5.076   0.075
31140WAT     H193662   3.322   5.016  -0.001
31140WAT     H293663   3.376   5.165   0.039
31141WAT      O93664   6.593   4.491   1.313
31141WAT     H193665   6.597   4.500   1.413
31141WAT     H293666   6.557   4.576   1.274
31142WAT      O93667   6.052   9.339   0.594
31142WAT     H193668   6.129   9.350   0.532
31142WAT     H293669   5.997   9.424   0.594
31143WAT      O93670   4.034   3.224   9.678
31143WAT     H193671   4.100   3.289   9.641
31143WAT     H293672   3.942   3.251   9.649
31144WAT      O93673   7.141   0.564   0.435
31144WAT     H193674   7.230   0.532   0.403
31144WAT     H293675   7.153   0.650   0.485
31145WAT      O93676   5.942   9.709   8.530
31145WAT     H193677   6.039   9.721   8.549
31145WAT     H293678   5.889   9.774   8.585
31146WAT      O93679   4.598   9.167   1.049
31146WAT     H193680   4.561   9.146   0.959
31146WAT     H293681   4.591   9.085   1.107
31147WAT      O93682   0.277   4.664   6.983
31147WAT     H193683   0.276   4.621   7.073
31147WAT     H293684   0.330   4.608   6.919
31148WAT      O93685   4.832   7.775   1.691
31148WAT     H193686   4.822   7.712   1.768
31148WAT     H293687   4.753   7.767   1.630
31149WAT      O93688   8.943   5.621   0.004
31149WAT     H193689   9.018   5.571   0.047
31149WAT     H293690   8.977   5.667  -0.078
31150WAT      O93691   1.617   8.512   5.460
31150WAT     H193692   1.669   8.597   5.461
31150WAT     H293693   1.668   8.441   5.411
31151WAT      O93694   5.353   3.516   9.608
31151WAT     H193695   5.435   3.568   9.633
31151WAT     H293696   5.376   3.452   9.535
31152WAT      O93697   7.578   4.660   3.890
31152WAT     H193698   7.518   4.740   3.896
31152WAT     H293699   7.631   4.665   3.805
31153WAT      O93700   3.720   4.548   5.313
31153WAT     H193701   3.801   4.495   5.337
31153WAT     H293702   3.694   4.530   5.219
31154WAT      O93703   1.850   4.784   9.563
31154WAT     H193704   1.948   4.766   9.570
31154WAT     H293705   1.801   4.726   9.627
31155WAT      O93706   7.116   7.167   4.701
31155WAT     H193707   7.165   7.208   4.778
31155WAT     H293708   7.149   7.073   4.687
31156WAT      O93709   4.548   0.885   4.317
31156WAT     H193710   4.475   0.953   4.306
31156WAT     H293711   4.587   0.892   4.408
31157WAT      O93712   4.020   2.668   7.805
31157WAT     H193713   4.089   2.739   7.818
31157WAT     H293714   4.053   2.582   7.845
31158WAT      O93715   4.433   9.175   3.459
31158WAT     H193716   4.340   9.191   3.426
31158WAT     H293717   4.492   9.249   3.427
31159WAT      O93718   3.040   5.008   7.021
31159WAT     H193719   3.105   5.015   6.946
31159WAT     H293720   3.089   5.011   7.109
31160WAT      O93721   1.069   0.828   3.161
31160WAT     H193722   1.108   0.823   3.253
31160WAT     H293723   0.970   0.844   3.167
31161WAT      O93724   5.549   2.774   4.194
31161WAT     H193725   5.573   2.677   4.201
31161WAT     H293726   5.490   2.799   4.270
31162WAT      O93727   2.626   7.054   2.496
31162WAT     H193728   2.684   7.014   2.424
31162WAT     H293729   2.679   7.062   2.580
31163WAT      O93730   9.405   0.580   5.641
31163WAT     H193731   9.457   0.613   5.720
31163WAT     H293732   9.311   0.562   5.668
31164WAT      O93733   7.783   3.195   7.636
31164WAT     H193734   7.773   3.268   7.704
31164WAT     H293735   7.864   3.214   7.581
31165WAT      O93736   5.513   9.176   6.746
31165WAT     H193737   5.463   9.261   6.760
31165WAT     H293738   5.501   9.116   6.825
31166WAT      O93739   8.547   1.256   5.893
31166WAT     H193740   8.549   1.345   5.848
31166WAT     H293741   8.537   1.268   5.992
31167WAT      O93742   0.341   1.067   0.786
31167WAT     H193743   0.297   1.068   0.875
31167WAT     H293744   0.332   1.157   0.743
31168WAT      O93745   0.086   8.126   2.965
31168WAT     H193746   0.053   8.189   2.895
31168WAT     H293747   0.016   8.114   3.035
31169WAT      O93748   0.867   9.397   2.103
31169WAT     H193749   0.773   9.429   2.102
31169WAT     H293750   0.896   9.382   2.198
31170WAT      O93751   7.360   8.331   6.176
31170WAT     H193752   7.294   8.404   6.195
31170WAT     H293753   7.451   8.371   6.163
31171WAT      O93754   0.376   0.555   0.903
31171WAT     H193755   0.455   0.500   0.876
31171WAT     H293756   0.395   0.602   0.989
31172WAT      O93757   2.719   1.728   3.289
31172WAT     H193758   2.816   1.747   3.304
31172WAT     H293759   2.677   1.806   3.243
31173WAT      O93760   2.163   2.514   9.050
31173WAT     H193761   2.250   2.466   9.058
31173WAT     H293762   2.158   2.559   8.961
31174WAT      O93763   0.812   4.367   9.449
31174WAT     H193764   0.824   4.269   9.433
31174WAT     H293765   0.863   4.418   9.380
31175WAT      O93766   8.206   6.925   1.883
31175WAT     H193767   8.140   6.851   1.897
31175WAT     H293768   8.200   6.989   1.959
31176WAT      O93769   9.407   7.763   2.790
31176WAT     H193770   9.391   7.780   2.693
31176WAT     H293771   9.320   7.749   2.837
31177WAT      O93772   8.215   2.879   9.586
31177WAT     H193773   8.142   2.935   9.625
31177WAT     H293774   8.243   2.810   9.653
31178WAT      O93775   2.883   1.094   5.678
31178WAT     H193776   2.901   1.180   5.629
31178WAT     H293777   2.932   1.020   5.633
31179WAT      O93778   2.536   6.674   7.374
31179WAT     H193779   2.436   6.665   7.368
31179WAT     H293780   2.565   6.660   7.468
31180WAT      O93781   9.677   5.442   6.645
31180WAT     H193782   9.674   5.379   6.723
31180WAT     H293783   9.755   5.418   6.587
31181WAT      O93784   1.125   7.718   4.412
31181WAT     H193785   1.166   7.710   4.503
31181WAT     H293786   1.165   7.797   4.365
31182WAT      O93787   4.242   8.359   7.969
31182WAT     H193788   4.286   8.273   7.993
31182WAT     H293789   4.148   8.360   8.005
31183WAT      O93790   4.689   8.306   3.801
31183WAT     H193791   4.632   8.344   3.874
31183WAT     H293792   4.702   8.375   3.730
31184WAT      O93793   7.093   1.895   8.393
31184WAT     H193794   7.043   1.833   8.333
31184WAT     H293795   7.031   1.967   8.425
31185WAT      O93796   4.618   1.834   0.855
31185WAT     H193797   4.530   1.875   0.830
31185WAT     H293798   4.680   1.906   0.888
31186WAT      O93799   8.295   4.185   0.784
31186WAT     H193800   8.369   4.121   0.764
31186WAT     H293801   8.333   4.269   0.822
31187WAT      O93802   9.264   1.100   3.000
31187WAT     H193803   9.293   1.180   2.948
31187WAT     H293804   9.176   1.119   3.044
31188WAT      O93805   0.094   9.204   9.745
31188WAT     H193806   0.021   9.253   9.794
31188WAT     H293807   0.125   9.258   9.667
31189WAT      O93808   6.801   4.764   3.340
31189WAT     H193809   6.877   4.702   3.323
31189WAT     H293810   6.753   4.735   3.423
31190WAT      O93811   4.862   8.898   1.317
31190WAT     H193812   4.856   8.993   1.349
31190WAT     H293813   4.955   8.878   1.288
31191WAT      O93814   7.358   6.889   2.840
31191WAT     H193815   7.301   6.925   2.914
31191WAT     H293816   7.301   6.843   2.772
31192WAT      O93817   1.887   3.227   0.275
31192WAT     H193818   1.840   3.228   0.186
31192WAT     H293819   1.895   3.320   0.309
31193WAT      O93820   1.013   6.544   4.432
31193WAT     H193821   0.976   6.637   4.428
31193WAT     H293822   1.107   6.545   4.395
31194WAT      O93823   8.324   7.021   2.963
31194WAT     H193824   8.352   7.085   3.035
31194WAT     H293825   8.251   7.062   2.909
31195WAT      O93826   5.896   6.525   5.182
31195WAT     H193827   5.864   6.561   5.270
31195WAT     H293828   5.952   6.594   5.136
31196WAT      O93829   2.806   9.369   0.627
31196WAT     H193830   2.754   9.290   0.593
31196WAT     H293831   2.777   9.451   0.577
31197WAT      O93832   9.217   4.972   8.093
31197WAT     H193833   9.232   5.071   8.094
31197WAT     H293834   9.248   4.935   8.005
31198WAT      O93835   4.140   6.884   6.815
31198WAT     H193836   4.172   6.790   6.809
31198WAT     H293837   4.181   6.928   6.896
31199WAT      O93838   9.319   8.405   1.866
31199WAT     H193839   9.278   8.320   1.900
31199WAT     H293840   9.330   8.398   1.767
31200WAT      O93841   4.613   9.752   6.299
31200WAT     H193842   4.539   9.711   6.354
31200WAT     H293843   4.690   9.775   6.359
31201WAT      O93844   2.419   9.685   8.455
31201WAT     H193845   2.344   9.626   8.485
31201WAT     H293846   2.400   9.718   8.363
31202WAT      O93847   6.848   0.662   8.117
31202WAT     H193848   6.868   0.708   8.203
31202WAT     H293849   6.838   0.730   8.044
31203WAT      O93850   9.318   4.805   3.963
31203WAT     H193851   9.381   4.809   4.041
31203WAT     H293852   9.238   4.861   3.983
31204WAT      O93853   0.855   3.060   4.432
31204WAT     H193854   0.907   3.014   4.504
31204WAT     H293855   0.759   3.032   4.436
31205WAT      O93856   6.424   1.927   1.532
31205WAT     H193857   6.459   1.891   1.446
31205WAT     H293858   6.327   1.949   1.522
31206WAT      O93859   6.360   0.876   4.791
31206WAT     H193860   6.316   0.854   4.704
31206WAT     H293861   6.385   0.791   4.838
31207WAT      O93862   8.927   6.586   6.261
31207WAT     H193863   8.923   6.622   6.354
31207WAT     H293864   9.019   6.551   6.242
31208WAT      O93865   4.617   0.350   4.242
31208WAT     H193866   4.680   0.408   4.294
31208WAT     H293867   4.549   0.312   4.304
31209WAT      O93868   1.582   9.783   8.948
31209WAT     H193869   1.495   9.831   8.935
31209WAT     H293870   1.637   9.832   9.016
31210WAT      O93871   2.967   0.743   2.952
31210WAT     H193872   3.013   0.682   3.017
31210WAT     H293873   3.035   0.788   2.894
31211WAT      O93874   1.697   3.380   4.389
31211WAT     H193875   1.614   3.434   4.405
31211WAT     H293876   1.674   3.300   4.333
31212WAT      O93877   2.438   9.049   0.568
31212WAT     H193878   2.358   9.017   0.619
31212WAT     H293879   2.431   9.017   0.474
31213WAT      O93880   5.521   7.590   5.558
31213WAT     H193881   5.431   7.632   5.567
31213WAT     H293882   5.511   7.497   5.522
31214WAT      O93883   8.713   2.430   5.734
31214WAT     H193884   8.696   2.511   5.678
31214WAT     H293885   8.640   2.363   5.719
31215WAT      O93886   4.042   0.940   3.271
31215WAT     H193887   3.986   0.884   3.209
31215WAT     H293888   3.983   0.985   3.337
31216WAT      O93889   2.418   3.969   1.972
31216WAT     H193890   2.451   4.001   1.883
31216WAT     H293891   2.398   3.872   1.967
31217WAT      O93892   9.246   5.440   9.557
31217WAT     H193893   9.216   5.491   9.476
31217WAT     H293894   9.171   5.380   9.587
31218WAT      O93895   9.577   0.990   7.287
31218WAT     H193896   9.510   1.064   7.284
31218WAT     H293897   9.666   1.025   7.257
31219WAT      O93898   1.151   4.156   7.627
31219WAT     H193899   1.233   4.194   7.671
31219WAT     H293900   1.084   4.228   7.613
31220WAT      O93901   2.572   2.431   1.624
31220WAT     H193902   2.578   2.529   1.611
31220WAT     H293903   2.663   2.393   1.640
31221WAT      O93904   5.055   8.957   2.405
31221WAT     H193905   5.028   8.982   2.312
31221WAT     H293906   4.976   8.961   2.465
31222WAT      O93907   2.698   7.363   0.080
31222WAT     H193908   2.719   7.450   0.036
31222WAT     H293909   2.599   7.348   0.078
31223WAT      O93910   4.553   1.379   1.716
31223WAT     H193911   4.461   1.356   1.682
31223WAT     H293912   4.566   1.335   1.805
31224WAT      O93913   7.038   0.852   7.665
31224WAT     H193914   7.031   0.753   7.652
31224WAT     H293915   7.130   0.876   7.694
31225WAT      O93916   8.971   7.338   8.615
31225WAT     H193917   9.063   7.365   8.588
31225WAT     H293918   8.908   7.413   8.599
31226WAT      O93919   4.367   1.268   4.375
31226WAT     H193920   4.377   1.297   4.279
31226WAT     H293921   4.429   1.322   4.432
31227WAT      O93922   2.405   3.714   1.497
31227WAT     H193923   2.427   3.657   1.418
31227WAT     H293924   2.339   3.785   1.471
31228WAT      O93925   1.986   7.052   1.046
31228WAT     H193926   1.921   7.117   1.085
31228WAT     H293927   2.037   7.096   0.972
31229WAT      O93928   1.372   1.918   3.591
31229WAT     H193929   1.420   2.003   3.613
31229WAT     H293930   1.288   1.940   3.542
31230WAT      O93931   3.477   9.256   3.820
31230WAT     H193932   3.555   9.250   3.759
31230WAT     H293933   3.437   9.165   3.832
31231WAT      O93934   2.989   6.709   0.819
31231WAT     H193935   3.067   6.696   0.757
31231WAT     H293936   2.958   6.620   0.852
31232WAT      O93937   5.485   2.452   4.846
31232WAT     H193938   5.566   2.406   4.811
31232WAT     H293939   5.407   2.389   4.846
31233WAT      O93940   8.851   4.557   6.025
31233WAT     H193941   8.765   4.564   6.076
31233WAT     H293942   8.928   4.569   6.088
31234WAT      O93943   4.422   8.048   6.035
31234WAT     H193944   4.499   8.048   6.098
31234WAT     H293945   4.393   8.142   6.017
31235WAT      O93946   1.757   7.771   0.239
31235WAT     H193947   1.681   7.801   0.181
31235WAT     H293948   1.752   7.817   0.327
31236WAT      O93949   2.559   6.356   5.821
31236WAT     H193950   2.506   6.328   5.901
31236WAT     H293951   2.496   6.375   5.745
31237WAT      O93952   7.941   4.677   5.875
31237WAT     H193953   7.894   4.758   5.840
31237WAT     H293954   7.898   4.647   5.960
31238WAT      O93955   0.333   2.866   6.923
31238WAT     H193956   0.238   2.895   6.931
31238WAT     H293957   0.380   2.879   7.010
31239WAT      O93958   7.720   8.004   7.175
31239WAT     H193959   7.790   7.961   7.118
31239WAT     H293960   7.658   8.057   7.117
31240WAT      O93961   3.481   9.471   9.333
31240WAT     H193962   3.568   9.498   9.374
31240WAT     H293963   3.495   9.446   9.237
31241WAT      O93964   5.155   7.633   3.643
31241WAT     H193965   5.058   7.659   3.648
31241WAT     H293966   5.197   7.642   3.734
31242WAT      O93967   8.991   4.546   9.271
31242WAT     H193968   8.905   4.557   9.320
31242WAT     H293969   9.067   4.573   9.330
31243WAT      O93970   0.155   9.468   3.330
31243WAT     H193971   0.235   9.409   3.334
31243WAT     H293972   0.075   9.419   3.365
31244WAT      O93973   4.448   7.615   5.518
31244WAT     H193974   4.495   7.696   5.482
31244WAT     H293975   4.395   7.572   5.446
31245WAT      O93976   0.477   1.761   2.861
31245WAT     H193977   0.540   1.819   2.913
31245WAT     H293978   0.489   1.666   2.888
31246WAT      O93979   8.238   5.285   3.517
31246WAT     H193980   8.216   5.261   3.612
31246WAT     H293981   8.162   5.333   3.476
31247WAT      O93982   6.238   1.115   7.294
31247WAT     H193983   6.248   1.102   7.392
31247WAT     H293984   6.270   1.033   7.246
31248WAT      O93985   2.186   0.309   7.153
31248WAT     H193986   2.224   0.218   7.167
31248WAT     H293987   2.252   0.366   7.104
31249WAT      O93988   2.676   4.545   3.089
31249WAT     H193989   2.649   4.487   3.166
31249WAT     H293990   2.771   4.528   3.066
31250WAT      O93991   4.742   7.251   0.436
31250WAT     H193992   4.837   7.247   0.466
31250WAT     H293993   4.726   7.179   0.368
31251WAT      O93994   2.686   4.866   9.741
31251WAT     H193995   2.711   4.783   9.691
31251WAT     H293996   2.765   4.928   9.743
31252WAT      O93997   3.225   5.319   3.372
31252WAT     H193998   3.214   5.387   3.445
31252WAT     H293999   3.322   5.307   3.352
31253WAT      O94000   8.440   1.831   8.363
31253WAT     H194001   8.438   1.742   8.408
31253WAT     H294002   8.534   1.859   8.348
31254WAT      O94003   7.420   0.666   4.076
31254WAT     H194004   7.369   0.731   4.020
31254WAT     H294005   7.364   0.640   4.155
31255WAT      O94006   0.676   0.430   5.228
31255WAT     H194007   0.771   0.437   5.259
31255WAT     H294008   0.664   0.488   5.147
31256WAT      O94009   8.404   4.596   0.735
31256WAT     H194010   8.440   4.535   0.665
31256WAT     H294011   8.312   4.626   0.710
31257WAT      O94012   1.696   2.237   0.278
31257WAT     H194013   1.778   2.259   0.331
31257WAT     H294014   1.654   2.322   0.246
31258WAT      O94015   2.567   1.713   2.545
31258WAT     H194016   2.569   1.683   2.449
31258WAT     H294017   2.614   1.647   2.602
31259WAT      O94018   5.808   1.791   6.115
31259WAT     H194019   5.825   1.762   6.209
31259WAT     H294020   5.777   1.712   6.061
31260WAT      O94021   6.912   9.828   2.547
31260WAT     H194022   7.002   9.844   2.588
31260WAT     H294023   6.841   9.851   2.613
31261WAT      O94024   8.955   6.652   3.016
31261WAT     H194025   9.026   6.668   2.947
31261WAT     H294026   8.975   6.705   3.098
31262WAT      O94027   4.042   6.104   9.024
31262WAT     H194028   4.091   6.058   8.950
31262WAT     H294029   3.955   6.058   9.040
31263WAT      O94030   2.070   6.668   5.538
31263WAT     H194031   2.056   6.730   5.460
31263WAT     H294032   2.165   6.673   5.568
31264WAT      O94033   6.929   3.473   1.825
31264WAT     H194034   6.956   3.432   1.912
31264WAT     H294035   6.834   3.450   1.806
31265WAT      O94036   3.536   7.366   8.323
31265WAT     H194037   3.622   7.400   8.363
31265WAT     H294038   3.489   7.441   8.276
31266WAT      O94039   3.078   0.190   6.396
31266WAT     H194040   3.058   0.215   6.301
31266WAT     H294041   3.085   0.090   6.403
31267WAT      O94042   7.947   8.072   2.379
31267WAT     H194043   8.010   7.995   2.370
31267WAT     H294044   7.988   8.154   2.339
31268WAT      O94045   0.049   4.477   9.032
31268WAT     H194046   0.090   4.560   8.995
31268WAT     H294047  -0.033   4.455   8.980
31269WAT      O94048   0.750   7.579   2.906
31269WAT     H194049   0.692   7.501   2.885
31269WAT     H294050   0.756   7.590   3.005
31270WAT      O94051   7.228   2.053   6.059
31270WAT     H194052   7.160   2.016   6.123
31270WAT     H294053   7.211   2.016   5.968
31271WAT      O94054   6.573   4.269   9.098
31271WAT     H194055   6.566   4.364   9.127
31271WAT     H294056   6.539   4.260   9.004
31272WAT      O94057   3.062   9.175   3.231
31272WAT     H194058   3.031   9.270   3.233
31272WAT     H294059   3.152   9.168   3.274
31273WAT      O94060   1.663   1.000   1.134
31273WAT     H194061   1.633   1.075   1.192
31273WAT     H294062   1.657   1.027   1.038
31274WAT      O94063   5.165   1.622   6.453
31274WAT     H194064   5.193   1.696   6.514
31274WAT     H294065   5.066   1.617   6.450
31275WAT      O94066   7.963   4.951   7.069
31275WAT     H194067   8.003   4.935   6.978
31275WAT     H294068   7.941   5.048   7.079
31276WAT      O94069   7.633   6.100   1.652
31276WAT     H194070   7.619   6.012   1.698
31276WAT     H294071   7.716   6.143   1.688
31277WAT      O94072   4.646   3.106   2.241
31277WAT     H194073   4.714   3.165   2.285
31277WAT     H294074   4.580   3.075   2.310
31278WAT      O94075   6.433   0.351   1.143
31278WAT     H194076   6.376   0.272   1.120
31278WAT     H294077   6.521   0.319   1.179
31279WAT      O94078   0.876   3.624   4.445
31279WAT     H194079   0.874   3.564   4.365
31279WAT     H294080   0.784   3.655   4.466
31280WAT      O94081   8.767   4.151   1.826
31280WAT     H194082   8.769   4.108   1.916
31280WAT     H294083   8.842   4.115   1.771
31281WAT      O94084   6.884   0.024   5.800
31281WAT     H194085   6.901  -0.059   5.852
31281WAT     H294086   6.820   0.004   5.725
31282WAT      O94087   0.401   2.446   8.870
31282WAT     H194088   0.405   2.350   8.844
31282WAT     H294089   0.475   2.466   8.934
31283WAT      O94090   1.021   8.587   3.474
31283WAT     H194091   1.092   8.625   3.414
31283WAT     H294092   0.970   8.517   3.424
31284WAT      O94093   4.145   0.785   4.364
31284WAT     H194094   4.199   0.867   4.342
31284WAT     H294095   4.204   0.715   4.403
31285WAT      O94096   4.289   3.966   7.196
31285WAT     H194097   4.329   4.031   7.260
31285WAT     H294098   4.322   3.874   7.217
31286WAT      O94099   4.251   9.106   4.166
31286WAT     H194100   4.158   9.125   4.134
31286WAT     H294101   4.314   9.110   4.088
31287WAT      O94102   2.156   8.324   9.579
31287WAT     H194103   2.224   8.274   9.526
31287WAT     H294104   2.105   8.386   9.519
31288WAT      O94105   3.692   2.822   6.196
31288WAT     H194106   3.607   2.872   6.215
31288WAT     H294107   3.691   2.789   6.101
31289WAT      O94108   6.885   7.071   3.571
31289WAT     H194109   6.856   7.046   3.663
31289WAT     H294110   6.893   6.988   3.515
31290WAT      O94111   1.275   5.207   1.600
31290WAT     H194112   1.180   5.177   1.592
31290WAT     H294113   1.279   5.296   1.645
31291WAT      O94114   0.691   2.276   8.809
31291WAT     H194115   0.660   2.219   8.732
31291WAT     H294116   0.683   2.372   8.785
31292WAT      O94117   8.227   8.519   8.766
31292WAT     H194118   8.131   8.538   8.784
31292WAT     H294119   8.235   8.430   8.721
31293WAT      O94120   0.645   5.854   7.767
31293WAT     H194121   0.626   5.759   7.744
31293WAT     H294122   0.619   5.872   7.862
31294WAT      O94123   0.672   9.213   9.675
31294WAT     H194124   0.632   9.125   9.649
31294WAT     H294125   0.710   9.206   9.768
31295WAT      O94126   1.137   9.216   9.594
31295WAT     H194127   1.233   9.241   9.582
31295WAT     H294128   1.120   9.196   9.691
31296WAT      O94129   7.662   8.308   7.879
31296WAT     H194130   7.706   8.367   7.811
31296WAT     H294131   7.671   8.212   7.850
31297WAT      O94132   9.328   5.033   8.479
31297WAT     H194133   9.347   5.112   8.538
31297WAT     H294134   9.378   5.044   8.393
31298WAT      O94135   3.103   1.790   6.808
31298WAT     H194136   3.088   1.692   6.817
31298WAT     H294137   3.200   1.810   6.818
31299WAT      O94138   7.904   4.994   5.528
31299WAT     H194139   7.973   4.956   5.466
31299WAT     H294140   7.925   5.090   5.546
31300WAT      O94141   2.499   6.489   2.977
31300WAT     H194142   2.593   6.502   2.948
31300WAT     H294143   2.441   6.474   2.897
31301WAT      O94144   3.014   5.143   9.155
31301WAT     H194145   2.944   5.156   9.224
31301WAT     H294146   3.033   5.045   9.145
31302WAT      O94147   6.687   2.738   4.974
31302WAT     H194148   6.730   2.814   4.926
31302WAT     H294149   6.593   2.726   4.941
31303WAT      O94150   7.221   2.576   5.975
31303WAT     H194151   7.191   2.503   6.036
31303WAT     H294152   7.277   2.642   6.026
31304WAT      O94153   7.933   2.899   1.306
31304WAT     H194154   7.939   2.800   1.295
31304WAT     H294155   8.012   2.942   1.262
31305WAT      O94156   3.607   9.712   2.849
31305WAT     H194157   3.509   9.703   2.868
31305WAT     H294158   3.619   9.756   2.759
31306WAT      O94159   0.730   2.277   6.471
31306WAT     H194160   0.790   2.272   6.392
31306WAT     H294161   0.673   2.360   6.465
31307WAT      O94162   7.508   1.454   6.092
31307WAT     H194163   7.488   1.442   6.189
31307WAT     H294164   7.607   1.456   6.078
31308WAT      O94165   8.094   6.171   7.138
31308WAT     H194166   8.053   6.256   7.106
31308WAT     H294167   8.044   6.137   7.218
31309WAT      O94168   2.161   3.164   8.414
31309WAT     H194169   2.240   3.148   8.355
31309WAT     H294170   2.173   3.115   8.500
31310WAT      O94171   6.306   8.273   3.806
31310WAT     H194172   6.336   8.331   3.731
31310WAT     H294173   6.325   8.319   3.893
31311WAT      O94174   0.775   6.290   0.354
31311WAT     H194175   0.841   6.360   0.327
31311WAT     H294176   0.823   6.205   0.373
31312WAT      O94177   3.610   8.807   5.365
31312WAT     H194178   3.560   8.743   5.307
31312WAT     H294179   3.610   8.774   5.459
31313WAT      O94180   2.479   1.455   2.747
31313WAT     H194181   2.558   1.510   2.773
31313WAT     H294182   2.507   1.385   2.680
31314WAT      O94183   6.496   5.377   8.143
31314WAT     H194184   6.487   5.399   8.240
31314WAT     H294185   6.485   5.461   8.089
31315WAT      O94186   6.731   2.104   1.212
31315WAT     H194187   6.738   2.038   1.137
31315WAT     H294188   6.741   2.197   1.176
31316WAT      O94189   7.322   2.129   6.860
31316WAT     H194190   7.344   2.126   6.762
31316WAT     H294191   7.225   2.109   6.872
31317WAT      O94192   5.983   0.243   9.617
31317WAT     H194193   5.933   0.219   9.534
31317WAT     H294194   6.057   0.306   9.594
31318WAT      O94195   0.915   9.279   8.858
31318WAT     H194196   1.000   9.294   8.909
31318WAT     H294197   0.845   9.343   8.888
31319WAT      O94198   7.796   9.427   9.571
31319WAT     H194199   7.877   9.424   9.630
31319WAT     H294200   7.819   9.392   9.480
31320WAT      O94201   0.683   9.793   7.443
31320WAT     H194202   0.603   9.756   7.396
31320WAT     H294203   0.656   9.821   7.536
31321WAT      O94204   1.027   8.353   5.515
31321WAT     H194205   0.936   8.380   5.546
31321WAT     H294206   1.067   8.289   5.581
31322WAT      O94207   1.472   8.918   9.189
31322WAT     H194208   1.395   8.974   9.218
31322WAT     H294209   1.439   8.840   9.137
31323WAT      O94210   4.246   4.732   3.929
31323WAT     H194211   4.241   4.820   3.882
31323WAT     H294212   4.211   4.743   4.022
31324WAT      O94213   4.277   1.190   2.200
31324WAT     H194214   4.261   1.131   2.278
31324WAT     H294215   4.372   1.223   2.202
31325WAT      O94216   6.040   2.646   0.845
31325WAT     H194217   6.043   2.687   0.936
31325WAT     H294218   6.024   2.548   0.854
31326WAT      O94219   7.544   6.750   0.231
31326WAT     H194220   7.589   6.661   0.230
31326WAT     H294221   7.613   6.822   0.223
31327WAT      O94222   9.645   2.131   6.665
31327WAT     H194223   9.610   2.052   6.614
31327WAT     H294224   9.572   2.168   6.723
31328WAT      O94225   3.840   2.475   4.388
31328WAT     H194226   3.866   2.474   4.291
31328WAT     H294227   3.836   2.381   4.421
31329WAT      O94228   9.544   6.411   1.799
31329WAT     H194229   9.637   6.423   1.834
31329WAT     H294230   9.479   6.419   1.874
31330WAT      O94231   9.598   9.371   2.148
31330WAT     H194232   9.615   9.465   2.118
31330WAT     H294233   9.503   9.361   2.176
31331WAT      O94234   2.126   2.564   5.594
31331WAT     H194235   2.078   2.617   5.665
31331WAT     H294236   2.161   2.626   5.524
31332WAT      O94237   6.168   6.887   6.285
31332WAT     H194238   6.169   6.987   6.279
31332WAT     H294239   6.074   6.854   6.287
31333WAT      O94240   2.159   8.057   5.302
31333WAT     H194241   2.126   8.135   5.249
31333WAT     H294242   2.168   8.084   5.398
31334WAT      O94243   5.279   1.926   7.831
31334WAT     H194244   5.226   1.995   7.880
31334WAT     H294245   5.219   1.851   7.803
31335WAT      O94246   1.899   6.687   3.311
31335WAT     H194247   1.810   6.733   3.302
31335WAT     H294248   1.887   6.589   3.295
31336WAT      O94249   1.493   7.856   2.918
31336WAT     H194250   1.542   7.775   2.884
31336WAT     H294251   1.559   7.924   2.949
31337WAT      O94252   4.401   5.907   1.791
31337WAT     H194253   4.339   5.971   1.836
31337WAT     H294254   4.355   5.866   1.712
31338WAT      O94255   4.287   3.199   1.444
31338WAT     H194256   4.306   3.258   1.523
31338WAT     H294257   4.190   3.174   1.443
31339WAT      O94258   7.578   6.871   1.286
31339WAT     H194259   7.647   6.840   1.351
31339WAT     H294260   7.598   6.966   1.258
31340WAT      O94261   6.342   3.633   6.358
31340WAT     H194262   6.336   3.731   6.341
31340WAT     H294263   6.351   3.616   6.456
31341WAT      O94264   6.034   5.357   0.039
31341WAT     H194265   6.059   5.315   0.127
31341WAT     H294266   6.117   5.387  -0.007
31342WAT      O94267   2.592   8.057   3.268
31342WAT     H194268   2.525   8.118   3.226
31342WAT     H294269   2.648   8.015   3.197
31343WAT      O94270   4.435   3.753   1.709
31343WAT     H194271   4.377   3.673   1.693
31343WAT     H294272   4.492   3.770   1.628
31344WAT      O94273   7.870   3.328   8.934
31344WAT     H194274   7.946   3.299   8.991
31344WAT     H294275   7.854   3.426   8.946
31345WAT      O94276   6.152   5.836   1.231
31345WAT     H194277   6.156   5.842   1.330
31345WAT     H294278   6.244   5.816   1.195
31346WAT      O94279   8.691   1.295   9.330
31346WAT     H194280   8.621   1.251   9.386
31346WAT     H294281   8.663   1.388   9.308
31347WAT      O94282   6.728   3.238   5.019
31347WAT     H194283   6.689   3.212   5.108
31347WAT     H294284   6.819   3.197   5.010
31348WAT      O94285   2.479   3.725   4.911
31348WAT     H194286   2.547   3.788   4.874
31348WAT     H294287   2.394   3.776   4.928
31349WAT      O94288   1.324   5.490   1.291
31349WAT     H194289   1.354   5.397   1.313
31349WAT     H294290   1.385   5.556   1.335
31350WAT      O94291   2.564   3.377   6.904
31350WAT     H194292   2.495   3.346   6.970
31350WAT     H294293   2.652   3.335   6.925
31351WAT      O94294   4.113   5.430   8.074
31351WAT     H194295   4.142   5.346   8.119
31351WAT     H294296   4.192   5.490   8.061
31352WAT      O94297   4.714   6.974   0.353
31352WAT     H194298   4.686   6.932   0.439
31352WAT     H294299   4.789   6.923   0.313
31353WAT      O94300   7.986   1.233   7.795
31353WAT     H194301   7.945   1.226   7.704
31353WAT     H294302   8.064   1.171   7.801
31354WAT      O94303   6.436   8.261   1.534
31354WAT     H194304   6.353   8.253   1.480
31354WAT     H294305   6.418   8.233   1.628
31355WAT      O94306   6.079   1.860   2.015
31355WAT     H194307   6.155   1.919   1.990
31355WAT     H294308   6.111   1.787   2.075
31356WAT      O94309   6.952   7.874   0.444
31356WAT     H194310   6.963   7.864   0.543
31356WAT     H294311   6.889   7.803   0.410
31357WAT      O94312   5.302   0.638   2.451
31357WAT     H194313   5.216   0.678   2.417
31357WAT     H294314   5.379   0.694   2.422
31358WAT      O94315   2.875   0.638   0.618
31358WAT     H194316   2.784   0.666   0.588
31358WAT     H294317   2.890   0.665   0.713
31359WAT      O94318   2.659   8.800   2.512
31359WAT     H194319   2.606   8.849   2.444
31359WAT     H294320   2.693   8.864   2.581
31360WAT      O94321   0.490   4.969   4.006
31360WAT     H194322   0.437   5.014   3.934
31360WAT     H294323   0.585   5.001   4.002
31361WAT      O94324   4.250   6.001   0.007
31361WAT     H194325   4.237   6.009  -0.092
31361WAT     H294326   4.256   6.092   0.048
31362WAT      O94327   1.453   5.952   3.658
31362WAT     H194328   1.432   5.857   3.634
31362WAT     H294329   1.368   6.006   3.658
31363WAT      O94330   1.512   6.339   7.239
31363WAT     H194331   1.491   6.436   7.225
31363WAT     H294332   1.439   6.283   7.201
31364WAT      O94333   1.366   8.214   0.409
31364WAT     H194334   1.413   8.128   0.429
31364WAT     H294335   1.383   8.240   0.314
31365WAT      O94336   9.111   6.425   2.052
31365WAT     H194337   9.058   6.380   1.979
31365WAT     H294338   9.121   6.522   2.031
31366WAT      O94339   3.568   0.580   3.973
31366WAT     H194340   3.638   0.609   3.908
31366WAT     H294341   3.568   0.480   3.980
31367WAT      O94342   4.454   1.781   8.529
31367WAT     H194343   4.393   1.711   8.566
31367WAT     H294344   4.540   1.739   8.500
31368WAT      O94345   9.043   1.155   0.801
31368WAT     H194346   9.108   1.229   0.781
31368WAT     H294347   8.950   1.192   0.803
31369WAT      O94348   9.328   9.218   8.063
31369WAT     H194349   9.281   9.306   8.052
31369WAT     H294350   9.395   9.225   8.137
31370WAT      O94351   7.356   3.808   5.948
31370WAT     H194352   7.334   3.905   5.956
31370WAT     H294353   7.438   3.788   6.001
31371WAT      O94354   4.513   9.713   4.348
31371WAT     H194355   4.499   9.766   4.265
31371WAT     H294356   4.447   9.742   4.418
31372WAT      O94357   1.740   3.910   2.816
31372WAT     H194358   1.774   3.817   2.831
31372WAT     H294359   1.790   3.973   2.876
31373WAT      O94360   1.256   2.650   0.861
31373WAT     H194361   1.181   2.591   0.831
31373WAT     H294362   1.219   2.726   0.915
31374WAT      O94363   5.012   9.333   5.556
31374WAT     H194364   4.913   9.321   5.549
31374WAT     H294365   5.058   9.249   5.529
31375WAT      O94366   8.696   8.046   0.531
31375WAT     H194367   8.627   8.020   0.464
31375WAT     H294368   8.673   8.006   0.620
31376WAT      O94369   2.975   0.901   7.119
31376WAT     H194370   3.060   0.929   7.164
31376WAT     H294371   2.943   0.814   7.157
31377WAT      O94372   3.807   0.446   4.645
31377WAT     H194373   3.847   0.538   4.648
31377WAT     H294374   3.803   0.408   4.737
31378WAT      O94375   6.778   9.009   3.933
31378WAT     H194376   6.683   8.997   3.902
31378WAT     H294377   6.799   9.106   3.939
31379WAT      O94378   3.664   2.840   2.300
31379WAT     H194379   3.737   2.788   2.254
31379WAT     H294380   3.681   2.938   2.288
31380WAT      O94381   9.753   5.983   9.488
31380WAT     H194382   9.722   6.031   9.570
31380WAT     H294383   9.839   6.022   9.457
31381WAT      O94384   2.732   3.983   4.493
31381WAT     H194385   2.762   3.970   4.399
31381WAT     H294386   2.722   3.894   4.537
31382WAT      O94387   6.226   2.892   6.614
31382WAT     H194388   6.255   2.980   6.651
31382WAT     H294389   6.303   2.828   6.616
31383WAT      O94390   4.746   3.609   5.746
31383WAT     H194391   4.651   3.634   5.767
31383WAT     H294392   4.771   3.644   5.656
31384WAT      O94393   3.049   1.380   8.045
31384WAT     H194394   2.985   1.341   8.111
31384WAT     H294395   2.999   1.411   7.964
31385WAT      O94396   5.667   9.443   7.033
31385WAT     H194397   5.678   9.423   7.130
31385WAT     H294398   5.753   9.423   6.984
31386WAT      O94399   1.050   1.746   5.080
31386WAT     H194400   1.011   1.666   5.035
31386WAT     H294401   1.105   1.716   5.158
31387WAT      O94402   5.438   4.232   0.360
31387WAT     H194403   5.350   4.222   0.406
31387WAT     H294404   5.426   4.216   0.262
31388WAT      O94405   4.628   8.368   3.358
31388WAT     H194406   4.675   8.409   3.280
31388WAT     H294407   4.656   8.414   3.442
31389WAT      O94408   0.958   5.706   9.172
31389WAT     H194409   1.003   5.617   9.164
31389WAT     H294410   0.875   5.697   9.228
31390WAT      O94411   9.013   4.864   9.135
31390WAT     H194412   9.016   4.781   9.080
31390WAT     H294413   9.053   4.846   9.225
31391WAT      O94414   8.595   5.702   9.720
31391WAT     H194415   8.621   5.673   9.812
31391WAT     H294416   8.668   5.680   9.656
31392WAT      O94417   2.991   0.420   5.788
31392WAT     H194418   3.051   0.420   5.708
31392WAT     H294419   3.038   0.377   5.865
31393WAT      O94420   4.411   9.431   0.993
31393WAT     H194421   4.335   9.384   0.948
31393WAT     H294422   4.491   9.372   0.993
31394WAT      O94423   2.069   0.290   4.770
31394WAT     H194424   2.111   0.204   4.798
31394WAT     H294425   2.130   0.366   4.791
31395WAT      O94426   5.095   2.885   0.922
31395WAT     H194427   5.169   2.951   0.937
31395WAT     H294428   5.051   2.865   1.010
31396WAT      O94429   0.938   1.539   9.612
31396WAT     H194430   0.843   1.570   9.615
31396WAT     H294431   0.968   1.535   9.517
31397WAT      O94432   6.895   4.281   3.469
31397WAT     H194433   6.940   4.320   3.549
31397WAT     H294434   6.959   4.221   3.421
31398WAT      O94435   2.860   2.239   6.427
31398WAT     H194436   2.820   2.317   6.474
31398WAT     H294437   2.950   2.264   6.390
31399WAT      O94438   6.836   7.828   6.290
31399WAT     H194439   6.761   7.886   6.322
31399WAT     H294440   6.819   7.801   6.195
31400WAT      O94441   9.638   3.666   2.536
31400WAT     H194442   9.661   3.713   2.450
31400WAT     H294443   9.703   3.592   2.551
31401WAT      O94444   1.687   8.457   0.318
31401WAT     H194445   1.687   8.436   0.220
31401WAT     H294446   1.765   8.516   0.340
31402WAT      O94447   9.643   3.934   3.061
31402WAT     H194448   9.599   3.972   2.981
31402WAT     H294449   9.612   3.983   3.143
31403WAT      O94450   3.737   4.776   1.052
31403WAT     H194451   3.790   4.857   1.077
31403WAT     H294452   3.653   4.804   1.005
31404WAT      O94453   0.908   5.143   0.278
31404WAT     H194454   1.000   5.172   0.304
31404WAT     H294455   0.898   5.044   0.293
31405WAT      O94456   3.386   7.114   0.726
31405WAT     H194457   3.318   7.112   0.799
31405WAT     H294458   3.469   7.066   0.755
31406WAT      O94459   5.050   4.709   5.307
31406WAT     H194460   5.141   4.748   5.294
31406WAT     H294461   5.058   4.615   5.342
31407WAT      O94462   7.773   2.198   3.634
31407WAT     H194463   7.859   2.245   3.650
31407WAT     H294464   7.763   2.178   3.537
31408WAT      O94465   5.566   7.073   8.921
31408WAT     H194466   5.620   7.049   8.841
31408WAT     H294467   5.626   7.108   8.993
31409WAT      O94468   2.963   5.755   8.389
31409WAT     H194469   2.931   5.664   8.364
31409WAT     H294470   2.994   5.803   8.307
31410WAT      O94471   4.545   8.386   2.148
31410WAT     H194472   4.471   8.332   2.109
31410WAT     H294473   4.508   8.448   2.218
31411WAT      O94474   3.274   0.840   1.611
31411WAT     H194475   3.286   0.766   1.545
31411WAT     H294476   3.221   0.913   1.569
31412WAT      O94477   5.559   9.126   1.005
31412WAT     H194478   5.594   9.074   1.084
31412WAT     H294479   5.624   9.198   0.981
31413WAT      O94480   9.624   3.084   8.736
31413WAT     H194481   9.647   3.028   8.815
31413WAT     H294482   9.648   3.179   8.754
31414WAT      O94483   2.011   9.339   3.364
31414WAT     H194484   2.082   9.269   3.367
31414WAT     H294485   1.974   9.345   3.271
31415WAT      O94486   3.062   9.807   6.637
31415WAT     H194487   3.096   9.769   6.551
31415WAT     H294488   2.986   9.750   6.670
31416WAT      O94489   4.803   4.937   5.960
31416WAT     H194490   4.737   4.898   5.896
31416WAT     H294491   4.877   4.872   5.975
31417WAT      O94492   0.662   6.375   8.458
31417WAT     H194493   0.715   6.428   8.524
31417WAT     H294494   0.685   6.405   8.365
31418WAT      O94495   6.798   7.395   0.515
31418WAT     H194496   6.760   7.485   0.534
31418WAT     H294497   6.763   7.362   0.427
31419WAT      O94498   1.587   1.328   7.776
31419WAT     H194499   1.669   1.379   7.802
31419WAT     H294500   1.529   1.313   7.856
31420WAT      O94501   9.704   8.188   0.732
31420WAT     H194502   9.734   8.159   0.823
31420WAT     H294503   9.718   8.286   0.722
31421WAT      O94504   7.234   1.953   0.957
31421WAT     H194505   7.264   1.884   0.891
31421WAT     H294506   7.136   1.969   0.946
31422WAT      O94507   1.610   1.057   4.153
31422WAT     H194508   1.590   1.048   4.250
31422WAT     H294509   1.654   0.973   4.120
31423WAT      O94510   2.296   5.345   4.224
31423WAT     H194511   2.355   5.397   4.286
31423WAT     H294512   2.211   5.394   4.209
31424WAT      O94513   8.508   5.940   4.266
31424WAT     H194514   8.601   5.912   4.239
31424WAT     H294515   8.465   5.987   4.189
31425WAT      O94516   1.365   7.154   8.817
31425WAT     H194517   1.411   7.175   8.731
31425WAT     H294518   1.328   7.239   8.856
31426WAT      O94519   0.296   1.946   9.675
31426WAT     H194520   0.253   2.035   9.661
31426WAT     H294521   0.277   1.914   9.768
31427WAT      O94522   7.991   0.664   1.040
31427WAT     H194523   8.016   0.724   1.116
31427WAT     H294524   8.046   0.689   0.960
31428WAT      O94525   8.980   3.190   8.349
31428WAT     H194526   9.004   3.235   8.263
31428WAT     H294527   8.889   3.219   8.378
31429WAT      O94528   7.942   1.856   0.322
31429WAT     H194529   8.036   1.888   0.309
31429WAT     H294530   7.923   1.782   0.256
31430WAT      O94531   8.446   2.977   4.727
31430WAT     H194532   8.512   3.052   4.735
31430WAT     H294533   8.358   3.014   4.696
31431WAT      O94534   6.642   5.116   4.704
31431WAT     H194535   6.632   5.205   4.748
31431WAT     H294536   6.737   5.105   4.672
31432WAT      O94537   6.382   2.954   4.133
31432WAT     H194538   6.284   2.932   4.125
31432WAT     H294539   6.395   3.027   4.200
31433WAT      O94540   0.513   6.910   8.577
31433WAT     H194541   0.523   6.824   8.527
31433WAT     H294542   0.552   6.900   8.668
31434WAT      O94543   3.745   0.369   2.381
31434WAT     H194544   3.790   0.287   2.417
31434WAT     H294545   3.808   0.417   2.320
31435WAT      O94546   9.441   9.659   4.990
31435WAT     H194547   9.404   9.574   4.951
31435WAT     H294548   9.423   9.735   4.928
31436WAT      O94549   8.333   6.892   3.349
31436WAT     H194550   8.253   6.894   3.290
31436WAT     H294551   8.322   6.817   3.415
31437WAT      O94552   9.230   8.077   7.692
31437WAT     H194553   9.256   8.128   7.774
31437WAT     H294554   9.204   8.140   7.619
31438WAT      O94555   7.055   0.967   3.549
31438WAT     H194556   7.078   1.005   3.639
31438WAT     H294557   6.974   0.909   3.556
31439WAT      O94558   5.841   5.202   7.842
31439WAT     H194559   5.816   5.213   7.745
31439WAT     H294560   5.926   5.251   7.860
31440WAT      O94561   7.107   8.069   0.356
31440WAT     H194562   7.078   7.991   0.412
31440WAT     H294563   7.195   8.103   0.388
31441WAT      O94564   8.755   3.320   9.398
31441WAT     H194565   8.715   3.298   9.309
31441WAT     H294566   8.853   3.298   9.398
31442WAT      O94567   6.407   9.166   1.414
31442WAT     H194568   6.392   9.113   1.498
31442WAT     H294569   6.401   9.264   1.435
31443WAT      O94570   0.031   2.301   3.993
31443WAT     H194571   0.004   2.214   4.033
31443WAT     H294572   0.102   2.285   3.924
31444WAT      O94573   9.194   3.590   9.427
31444WAT     H194574   9.129   3.611   9.500
31444WAT     H294575   9.188   3.662   9.357
31445WAT      O94576   9.193   6.654   5.282
31445WAT     H194577   9.198   6.753   5.292
31445WAT     H294578   9.097   6.625   5.282
31446WAT      O94579   3.444   7.928   0.665
31446WAT     H194580   3.539   7.959   0.659
31446WAT     H294581   3.384   7.997   0.625
31447WAT      O94582   2.715   5.854   1.174
31447WAT     H194583   2.621   5.844   1.142
31447WAT     H294584   2.739   5.776   1.233
31448WAT      O94585   6.642   6.446   1.114
31448WAT     H194586   6.702   6.377   1.075
31448WAT     H294587   6.689   6.494   1.188
31449WAT      O94588   3.028   3.819   2.416
31449WAT     H194589   3.052   3.726   2.443
31449WAT     H294590   3.100   3.882   2.444
31450WAT      O94591   7.225   9.681   2.271
31450WAT     H194592   7.226   9.603   2.208
31450WAT     H294593   7.248   9.649   2.363
31451WAT      O94594   7.080   8.188   1.875
31451WAT     H194595   7.052   8.209   1.781
31451WAT     H294596   7.157   8.124   1.873
31452WAT      O94597   7.385   3.365   5.579
31452WAT     H194598   7.433   3.451   5.597
31452WAT     H294599   7.318   3.380   5.506
31453WAT      O94600   5.138   6.429   9.574
31453WAT     H194601   5.038   6.432   9.569
31453WAT     H294602   5.168   6.336   9.597
31454WAT      O94603   7.572   6.536   2.550
31454WAT     H194604   7.551   6.523   2.647
31454WAT     H294605   7.559   6.632   2.526
31455WAT      O94606   2.004   1.278   5.176
31455WAT     H194607   1.908   1.305   5.187
31455WAT     H294608   2.034   1.228   5.258
31456WAT      O94609   4.216   4.980   4.136
31456WAT     H194610   4.123   4.958   4.105
31456WAT     H294611   4.216   4.986   4.236
31457WAT      O94612   2.958   6.559   3.156
31457WAT     H194613   2.900   6.553   3.237
31457WAT     H294614   2.919   6.505   3.082
31458WAT      O94615   3.804   8.475   4.566
31458WAT     H194616   3.797   8.383   4.526
31458WAT     H294617   3.874   8.527   4.517
31459WAT      O94618   0.649   3.736   9.434
31459WAT     H194619   0.624   3.732   9.337
31459WAT     H294620   0.568   3.757   9.488
31460WAT      O94621   8.852   9.020   7.672
31460WAT     H194622   8.945   9.006   7.706
31460WAT     H294623   8.790   8.956   7.716
31461WAT      O94624   2.728   0.314   7.225
31461WAT     H194625   2.733   0.233   7.283
31461WAT     H294626   2.787   0.385   7.262
31462WAT      O94627   4.385   3.971   2.351
31462WAT     H194628   4.391   3.922   2.438
31462WAT     H294629   4.364   3.906   2.278
31463WAT      O94630   3.558   3.907   5.152
31463WAT     H194631   3.644   3.860   5.170
31463WAT     H294632   3.518   3.872   5.067
31464WAT      O94633   4.380   2.461   6.471
31464WAT     H194634   4.452   2.490   6.408
31464WAT     H294635   4.299   2.435   6.420
31465WAT      O94636   8.609   2.516   2.963
31465WAT     H194637   8.676   2.460   2.915
31465WAT     H294638   8.584   2.595   2.906
31466WAT      O94639   1.745   8.667   8.455
31466WAT     H194640   1.657   8.673   8.504
31466WAT     H294641   1.818   8.704   8.513
31467WAT      O94642   0.919   4.187   2.986
31467WAT     H194643   0.928   4.134   2.902
31467WAT     H294644   1.008   4.221   3.015
31468WAT      O94645   1.586   7.531   6.712
31468WAT     H194646   1.639   7.507   6.631
31468WAT     H294647   1.520   7.602   6.689
31469WAT      O94648   6.784   1.128   9.249
31469WAT     H194649   6.695   1.131   9.202
31469WAT     H294650   6.782   1.057   9.319
31470WAT      O94651   3.343   5.922   4.531
31470WAT     H194652   3.390   6.010   4.522
31470WAT     H294653   3.245   5.936   4.517
31471WAT      O94654   7.521   6.129   0.891
31471WAT     H194655   7.505   6.067   0.968
31471WAT     H294656   7.617   6.156   0.889
31472WAT      O94657   3.036   5.216   3.674
31472WAT     H194658   3.006   5.272   3.598
31472WAT     H294659   2.990   5.246   3.758
31473WAT      O94660   1.853   6.516   7.445
31473WAT     H194661   1.946   6.533   7.479
31473WAT     H294662   1.835   6.574   7.366
31474WAT      O94663   2.336   2.801   7.897
31474WAT     H194664   2.365   2.896   7.899
31474WAT     H294665   2.238   2.795   7.914
31475WAT      O94666   0.273   4.362   6.295
31475WAT     H194667   0.188   4.312   6.279
31475WAT     H294668   0.350   4.300   6.280
31476WAT      O94669   3.389   6.340   2.183
31476WAT     H194670   3.350   6.420   2.139
31476WAT     H294671   3.351   6.331   2.275
31477WAT      O94672   0.706   6.385   0.887
31477WAT     H194673   0.626   6.442   0.868
31477WAT     H294674   0.703   6.304   0.829
31478WAT      O94675   4.235   0.401   5.179
31478WAT     H194676   4.162   0.463   5.151
31478WAT     H294677   4.277   0.435   5.263
31479WAT      O94678   0.358   3.269   9.564
31479WAT     H194679   0.352   3.360   9.524
31479WAT     H294680   0.429   3.268   9.635
31480WAT      O94681   5.600   2.195   7.257
31480WAT     H194682   5.689   2.240   7.259
31480WAT     H294683   5.558   2.208   7.167
31481WAT      O94684   7.757   1.391   6.035
31481WAT     H194685   7.784   1.295   6.048
31481WAT     H294686   7.796   1.425   5.950
31482WAT      O94687   2.010   2.447   9.815
31482WAT     H194688   2.033   2.507   9.738
31482WAT     H294689   2.093   2.423   9.865
31483WAT      O94690   6.809   2.927   6.322
31483WAT     H194691   6.764   2.952   6.236
31483WAT     H294692   6.802   3.003   6.386
31484WAT      O94693   7.910   8.170   1.469
31484WAT     H194694   7.897   8.244   1.403
31484WAT     H294695   7.876   8.198   1.559
31485WAT      O94696   6.204   0.738   0.912
31485WAT     H194697   6.302   0.745   0.930
31485WAT     H294698   6.175   0.643   0.923
31486WAT      O94699   3.306   8.822   6.144
31486WAT     H194700   3.235   8.874   6.096
31486WAT     H294701   3.377   8.884   6.175
31487WAT      O94702   7.839   3.547   1.873
31487WAT     H194703   7.838   3.484   1.951
31487WAT     H294704   7.745   3.575   1.853
31488WAT      O94705   1.088   7.296   2.031
31488WAT     H194706   1.073   7.198   2.029
31488WAT     H294707   1.050   7.338   1.949
31489WAT      O94708   5.943   5.953   4.132
31489WAT     H194709   5.901   6.034   4.091
31489WAT     H294710   6.037   5.974   4.158
31490WAT      O94711   7.726   9.696   2.380
31490WAT     H194712   7.739   9.758   2.303
31490WAT     H294713   7.794   9.716   2.451
31491WAT      O94714   0.782   3.798   7.061
31491WAT     H194715   0.832   3.825   6.978
31491WAT     H294716   0.752   3.881   7.109
31492WAT      O94717   5.593   3.739   6.394
31492WAT     H194718   5.633   3.718   6.483
31492WAT     H294719   5.501   3.775   6.407
31493WAT      O94720   0.519   4.048   4.750
31493WAT     H194721   0.472   3.961   4.729
31493WAT     H294722   0.602   4.029   4.802
31494WAT      O94723   9.023   1.216   8.061
31494WAT     H194724   8.964   1.197   7.982
31494WAT     H294725   8.992   1.163   8.140
31495WAT      O94726   3.727   0.594   4.274
31495WAT     H194727   3.742   0.503   4.236
31495WAT     H294728   3.809   0.649   4.262
31496WAT      O94729   3.892   3.055   6.971
31496WAT     H194730   3.848   3.137   7.005
31496WAT     H294731   3.866   2.977   7.027
31497WAT      O94732   2.939   9.157   7.332
31497WAT     H194733   3.007   9.228   7.350
31497WAT     H294734   2.857   9.174   7.387
31498WAT      O94735   6.346   4.187   4.576
31498WAT     H194736   6.352   4.097   4.532
31498WAT     H294737   6.438   4.221   4.595
31499WAT      O94738   0.251   6.687   9.532
31499WAT     H194739   0.210   6.596   9.523
31499WAT     H294740   0.334   6.681   9.587
31500WAT      O94741   4.786   3.760   2.783
31500WAT     H194742   4.850   3.713   2.723
31500WAT     H294743   4.770   3.705   2.865
31501WAT      O94744   2.997   2.033   0.062
31501WAT     H194745   2.932   2.018  -0.012
31501WAT     H294746   3.086   1.997   0.036
31502WAT      O94747   8.238   6.705   6.071
31502WAT     H194748   8.189   6.698   6.158
31502WAT     H294749   8.294   6.623   6.058
31503WAT      O94750   1.973   5.575   9.180
31503WAT     H194751   2.027   5.504   9.135
31503WAT     H294752   1.971   5.657   9.123
31504WAT      O94753   4.409   2.788   7.588
31504WAT     H194754   4.405   2.690   7.568
31504WAT     H294755   4.399   2.840   7.503
31505WAT      O94756   5.906   2.313   8.547
31505WAT     H194757   5.901   2.293   8.449
31505WAT     H294758   6.001   2.335   8.572
31506WAT      O94759   8.042   9.048   4.662
31506WAT     H194760   7.982   9.106   4.607
31506WAT     H294761   8.100   9.106   4.720
31507WAT      O94762   1.002   5.871   1.670
31507WAT     H194763   0.993   5.923   1.585
31507WAT     H294764   0.934   5.903   1.736
31508WAT      O94765   4.236   4.528   2.864
31508WAT     H194766   4.217   4.430   2.856
31508WAT     H294767   4.304   4.555   2.796
31509WAT      O94768   3.668   4.319   5.635
31509WAT     H194769   3.583   4.336   5.684
31509WAT     H294770   3.739   4.381   5.668
31510WAT      O94771   4.611   9.589   6.082
31510WAT     H194772   4.672   9.614   6.007
31510WAT     H294773   4.606   9.664   6.148
31511WAT      O94774   7.486   7.501   4.546
31511WAT     H194775   7.524   7.534   4.460
31511WAT     H294776   7.386   7.503   4.541
31512WAT      O94777   2.236   7.716   6.449
31512WAT     H194778   2.204   7.809   6.471
31512WAT     H294779   2.305   7.689   6.516
31513WAT      O94780   6.628   3.873   1.674
31513WAT     H194781   6.552   3.843   1.731
31513WAT     H294782   6.677   3.947   1.720
31514WAT      O94783   5.874   7.695   4.764
31514WAT     H194784   5.932   7.635   4.709
31514WAT     H294785   5.818   7.640   4.826
31515WAT      O94786   4.611   8.048   6.217
31515WAT     H194787   4.680   8.119   6.202
31515WAT     H294788   4.654   7.967   6.258
31516WAT      O94789   1.391   3.217   7.069
31516WAT     H194790   1.363   3.131   7.027
31516WAT     H294791   1.340   3.292   7.027
31517WAT      O94792   0.265   2.039   1.536
31517WAT     H194793   0.231   2.107   1.472
31517WAT     H294794   0.195   1.970   1.552
31518WAT      O94795   0.609   7.472   1.232
31518WAT     H194796   0.603   7.531   1.151
31518WAT     H294797   0.630   7.379   1.203
31519WAT      O94798   4.159   3.028   2.746
31519WAT     H194799   4.153   3.008   2.649
31519WAT     H294800   4.068   3.018   2.788
31520WAT      O94801   2.918   6.175   8.779
31520WAT     H194802   2.914   6.162   8.679
31520WAT     H294803   2.914   6.273   8.800
31521WAT      O94804   9.508   4.661   2.396
31521WAT     H194805   9.472   4.722   2.467
31521WAT     H294806   9.472   4.689   2.307
31522WAT      O94807   5.434   5.196   0.787
31522WAT     H194808   5.365   5.252   0.741
31522WAT     H294809   5.516   5.191   0.730
31523WAT      O94810   4.978   0.786   6.779
31523WAT     H194811   4.890   0.760   6.820
31523WAT     H294812   5.046   0.715   6.796
31524WAT      O94813   3.833   2.217   8.330
31524WAT     H194814   3.778   2.139   8.299
31524WAT     H294815   3.903   2.238   8.262
31525WAT      O94816   8.646   6.146   7.123
31525WAT     H194817   8.617   6.111   7.034
31525WAT     H294818   8.643   6.072   7.191
31526WAT      O94819   4.243   6.958   4.428
31526WAT     H194820   4.218   6.864   4.405
31526WAT     H294821   4.165   7.003   4.473
31527WAT      O94822   1.279   3.563   8.014
31527WAT     H194823   1.378   3.547   8.023
31527WAT     H294824   1.234   3.540   8.100
31528WAT      O94825   5.563   1.361   5.086
31528WAT     H194826   5.521   1.353   5.176
31528WAT     H294827   5.663   1.369   5.096
31529WAT      O94828   1.795   1.978   3.060
31529WAT     H194829   1.849   2.057   3.089
31529WAT     H294830   1.788   1.978   2.960
31530WAT      O94831   1.376   6.858   4.005
31530WAT     H194832   1.277   6.848   4.014
31530WAT     H294833   1.400   6.955   4.011
31531WAT      O94834   8.352   8.610   0.850
31531WAT     H194835   8.320   8.551   0.925
31531WAT     H294836   8.451   8.598   0.839
31532WAT      O94837   9.606   6.592   2.383
31532WAT     H194838   9.682   6.624   2.327
31532WAT     H294839   9.637   6.577   2.477
31533WAT      O94840   4.416   2.179   1.362
31533WAT     H194841   4.328   2.216   1.391
31533WAT     H294842   4.418   2.172   1.262
31534WAT      O94843   1.140   3.338   0.989
31534WAT     H194844   1.073   3.279   0.944
31534WAT     H294845   1.230   3.293   0.987
31535WAT      O94846   4.594   9.184   2.325
31535WAT     H194847   4.596   9.084   2.320
31535WAT     H294848   4.573   9.213   2.418
31536WAT      O94849   9.129   6.267   8.401
31536WAT     H194850   9.083   6.208   8.334
31536WAT     H294851   9.223   6.236   8.415
31537WAT      O94852   5.408   8.592   6.468
31537WAT     H194853   5.428   8.591   6.566
31537WAT     H294854   5.314   8.621   6.453
31538WAT      O94855   0.232   5.368   2.985
31538WAT     H194856   0.318   5.371   2.936
31538WAT     H294857   0.184   5.282   2.964
31539WAT      O94858   5.063   5.692   9.655
31539WAT     H194859   5.059   5.667   9.558
31539WAT     H294860   5.158   5.708   9.681
31540WAT      O94861   6.311   5.965   7.530
31540WAT     H194862   6.268   5.911   7.458
31540WAT     H294863   6.408   5.976   7.510
31541WAT      O94864   2.250   0.208   2.129
31541WAT     H194865   2.222   0.303   2.142
31541WAT     H294866   2.194   0.149   2.187
31542WAT      O94867   7.369   4.104   5.919
31542WAT     H194868   7.417   4.124   6.004
31542WAT     H294869   7.435   4.105   5.843
31543WAT      O94870   5.308   9.627   3.881
31543WAT     H194871   5.274   9.715   3.847
31543WAT     H294872   5.258   9.552   3.839
31544WAT      O94873   6.879   1.706   5.681
31544WAT     H194874   6.887   1.652   5.765
31544WAT     H294875   6.901   1.648   5.602
31545WAT      O94876   9.188   9.742   6.570
31545WAT     H194877   9.118   9.671   6.575
31545WAT     H294878   9.275   9.701   6.544
31546WAT      O94879   7.701   8.615   3.905
31546WAT     H194880   7.669   8.687   3.844
31546WAT     H294881   7.799   8.601   3.893
31547WAT      O94882   3.313   4.693   5.207
31547WAT     H194883   3.245   4.744   5.258
31547WAT     H294884   3.269   4.620   5.155
31548WAT      O94885   4.093   8.830   6.108
31548WAT     H194886   4.105   8.887   6.027
31548WAT     H294887   4.006   8.851   6.151
31549WAT      O94888   6.408   3.994   6.954
31549WAT     H194889   6.478   3.923   6.950
31549WAT     H294890   6.405   4.033   7.046
31550WAT      O94891   6.520   6.944   6.656
31550WAT     H194892   6.606   6.933   6.705
31550WAT     H294893   6.492   6.857   6.617
31551WAT      O94894   5.925   4.803   8.662
31551WAT     H194895   5.868   4.830   8.739
31551WAT     H294896   6.011   4.764   8.696
31552WAT      O94897   1.447   7.151   3.606
31552WAT     H194898   1.518   7.181   3.542
31552WAT     H294899   1.361   7.196   3.583
31553WAT      O94900   7.551   8.439   0.011
31553WAT     H194901   7.495   8.400   0.085
31553WAT     H294902   7.599   8.365  -0.036
31554WAT      O94903   1.597   0.594   4.186
31554WAT     H194904   1.603   0.495   4.174
31554WAT     H294905   1.514   0.628   4.142
31555WAT      O94906   8.628   7.680   7.235
31555WAT     H194907   8.644   7.612   7.164
31555WAT     H294908   8.573   7.640   7.308
31556WAT      O94909   5.461   4.198   3.518
31556WAT     H194910   5.410   4.280   3.493
31556WAT     H294911   5.555   4.207   3.485
31557WAT      O94912   2.407   3.885   8.436
31557WAT     H194913   2.463   3.926   8.508
31557WAT     H294914   2.457   3.886   8.350
31558WAT      O94915   3.669   9.286   9.729
31558WAT     H194916   3.580   9.294   9.684
31558WAT     H294917   3.732   9.353   9.691
31559WAT      O94918   3.667   5.230   2.405
31559WAT     H194919   3.675   5.156   2.338
31559WAT     H294920   3.755   5.241   2.452
31560WAT      O94921   3.400   8.228   0.187
31560WAT     H194922   3.474   8.257   0.247
31560WAT     H294923   3.409   8.275   0.099
31561WAT      O94924   6.848   0.655   8.519
31561WAT     H194925   6.886   0.677   8.609
31561WAT     H294926   6.883   0.719   8.451
31562WAT      O94927   9.183   6.461   2.393
31562WAT     H194928   9.178   6.362   2.381
31562WAT     H294929   9.197   6.483   2.489
31563WAT      O94930   1.000   4.426   8.459
31563WAT     H194931   1.030   4.513   8.497
31563WAT     H294932   0.906   4.434   8.428
31564WAT      O94933   5.032   1.411   7.468
31564WAT     H194934   4.943   1.455   7.477
31564WAT     H294935   5.094   1.446   7.538
31565WAT      O94936   1.539   0.869   7.903
31565WAT     H194937   1.523   0.776   7.934
31565WAT     H294938   1.561   0.868   7.805
31566WAT      O94939   0.189   7.711   8.056
31566WAT     H194940   0.112   7.681   8.112
31566WAT     H294941   0.224   7.798   8.091
31567WAT      O94942   1.835   6.797   1.385
31567WAT     H194943   1.781   6.713   1.383
31567WAT     H294944   1.923   6.781   1.342
31568WAT      O94945   1.721   7.576   3.089
31568WAT     H194946   1.714   7.663   3.040
31568WAT     H294947   1.749   7.593   3.183
31569WAT      O94948   0.184   6.992   4.387
31569WAT     H194949   0.218   7.075   4.432
31569WAT     H294950   0.118   6.946   4.447
31570WAT      O94951   9.014   2.726   4.401
31570WAT     H194952   9.032   2.812   4.450
31570WAT     H294953   8.917   2.703   4.410
31571WAT      O94954   1.110   6.227   8.317
31571WAT     H194955   1.209   6.229   8.303
31571WAT     H294956   1.088   6.163   8.390
31572WAT      O94957   8.016   4.165   4.517
31572WAT     H194958   7.991   4.078   4.476
31572WAT     H294959   8.109   4.189   4.490
31573WAT      O94960   3.811   8.601   6.130
31573WAT     H194961   3.778   8.543   6.204
31573WAT     H294962   3.833   8.692   6.166
31574WAT      O94963   9.401   8.428   1.010
31574WAT     H194964   9.414   8.366   0.933
31574WAT     H294965   9.442   8.516   0.989
31575WAT      O94966   3.923   6.763   3.730
31575WAT     H194967   3.831   6.725   3.735
31575WAT     H294968   3.970   6.747   3.817
31576WAT      O94969   4.302   9.189   9.075
31576WAT     H194970   4.356   9.244   9.011
31576WAT     H294971   4.230   9.246   9.116
31577WAT      O94972   2.949   8.245   5.194
31577WAT     H194973   3.026   8.308   5.191
31577WAT     H294974   2.957   8.177   5.120
31578WAT      O94975   7.657   2.519   7.724
31578WAT     H194976   7.604   2.515   7.809
31578WAT     H294977   7.680   2.427   7.695
31579WAT      O94978   3.440   1.314   7.692
31579WAT     H194979   3.467   1.257   7.770
31579WAT     H294980   3.395   1.396   7.726
31580WAT      O94981   6.840   2.725   5.444
31580WAT     H194982   6.769   2.734   5.514
31580WAT     H294983   6.808   2.769   5.360
31581WAT      O94984   6.998   6.477   9.638
31581WAT     H194985   7.036   6.562   9.601
31581WAT     H294986   7.016   6.402   9.575
31582WAT      O94987   1.088   6.162   2.919
31582WAT     H194988   1.060   6.242   2.972
31582WAT     H294989   1.006   6.118   2.880
31583WAT      O94990   4.523   5.623   4.239
31583WAT     H194991   4.500   5.645   4.334
31583WAT     H294992   4.521   5.524   4.227
31584WAT      O94993   2.398   6.488   4.889
31584WAT     H194994   2.332   6.466   4.817
31584WAT     H294995   2.373   6.439   4.972
31585WAT      O94996   7.162   6.559   5.650
31585WAT     H194997   7.129   6.497   5.579
31585WAT     H294998   7.188   6.507   5.731
31586WAT      O94999   5.000   3.004   4.795
31586WAT     H195000   5.072   3.038   4.855
31586WAT     H295001   4.995   2.904   4.802
31587WAT      O95002   5.064   2.004   7.222
31587WAT     H195003   4.997   1.957   7.164
31587WAT     H295004   5.151   1.956   7.217
31588WAT      O95005   7.860   6.476   3.054
31588WAT     H195006   7.945   6.529   3.057
31588WAT     H295007   7.842   6.436   3.144
31589WAT      O95008   3.686   8.593   5.594
31589WAT     H195009   3.641   8.592   5.683
31589WAT     H295010   3.785   8.590   5.607
31590WAT      O95011   6.381   5.976   0.257
31590WAT     H195012   6.319   5.987   0.335
31590WAT     H295013   6.464   6.030   0.272
31591WAT      O95014   6.958   7.342   5.696
31591WAT     H195015   6.872   7.369   5.738
31591WAT     H295016   6.961   7.243   5.687
31592WAT      O95017   1.759   2.889   3.552
31592WAT     H195018   1.677   2.918   3.503
31592WAT     H295019   1.743   2.800   3.595
31593WAT      O95020   2.546   0.215   5.933
31593WAT     H195021   2.627   0.273   5.922
31593WAT     H295022   2.574   0.119   5.937
31594WAT      O95023   8.682   7.755   1.325
31594WAT     H195024   8.621   7.832   1.303
31594WAT     H295025   8.774   7.789   1.344
31595WAT      O95026   7.652   0.463   9.036
31595WAT     H195027   7.603   0.539   9.077
31595WAT     H295028   7.692   0.406   9.109
31596WAT      O95029   1.424   7.175   3.900
31596WAT     H195030   1.421   7.153   3.803
31596WAT     H295031   1.339   7.222   3.926
31597WAT      O95032   6.025   4.494   5.727
31597WAT     H195033   5.990   4.513   5.635
31597WAT     H295034   5.954   4.450   5.781
31598WAT      O95035   3.124   0.297   0.683
31598WAT     H195036   3.209   0.245   0.689
31598WAT     H295037   3.124   0.369   0.752
31599WAT      O95038   2.110   1.541   2.657
31599WAT     H195039   2.040   1.589   2.711
31599WAT     H295040   2.186   1.604   2.639
31600WAT      O95041   6.837   3.944   9.382
31600WAT     H195042   6.836   3.861   9.325
31600WAT     H295043   6.758   3.944   9.442
31601WAT      O95044   8.079   5.387   6.861
31601WAT     H195045   8.129   5.460   6.907
31601WAT     H295046   8.143   5.323   6.819
31602WAT      O95047   5.436   4.178   2.303
31602WAT     H195048   5.495   4.106   2.268
31602WAT     H295049   5.345   4.170   2.262
31603WAT      O95050   4.964   4.104   8.293
31603WAT     H195051   5.037   4.043   8.324
31603WAT     H295052   4.889   4.102   8.360
31604WAT      O95053   9.582   2.208   4.904
31604WAT     H195054   9.651   2.235   4.837
31604WAT     H295055   9.628   2.189   4.991
31605WAT      O95056   5.048   9.362   4.827
31605WAT     H195057   5.008   9.449   4.796
31605WAT     H295058   4.977   9.292   4.830
31606WAT      O95059   3.082   0.352   6.137
31606WAT     H195060   3.079   0.436   6.192
31606WAT     H295061   3.145   0.365   6.060
31607WAT      O95062   2.395   3.757   9.647
31607WAT     H195063   2.426   3.663   9.638
31607WAT     H295064   2.299   3.758   9.678
31608WAT      O95065   6.138   4.472   5.035
31608WAT     H195066   6.145   4.454   5.133
31608WAT     H295067   6.047   4.449   5.002
31609WAT      O95068   4.736   3.527   1.476
31609WAT     H195069   4.637   3.543   1.471
31609WAT     H295070   4.757   3.472   1.556
31610WAT      O95071   7.644   3.217   9.125
31610WAT     H195072   7.696   3.250   9.047
31610WAT     H295073   7.557   3.180   9.094
31611WAT      O95074   9.810   7.579   5.715
31611WAT     H195075   9.851   7.578   5.806
31611WAT     H295076   9.744   7.505   5.707
31612WAT      O95077   5.214   1.924   0.110
31612WAT     H195078   5.147   1.861   0.070
31612WAT     H295079   5.237   1.895   0.203
31613WAT      O95080   6.925   8.270   8.231
31613WAT     H195081   6.924   8.356   8.180
31613WAT     H295082   6.999   8.212   8.197
31614WAT      O95083   3.269   4.747   4.398
31614WAT     H195084   3.333   4.671   4.409
31614WAT     H295085   3.243   4.755   4.302
31615WAT      O95086   7.900   1.072  -0.001
31615WAT     H195087   7.946   1.024   0.074
31615WAT     H295088   7.807   1.036  -0.011
31616WAT      O95089   7.784   2.933   9.831
31616WAT     H195090   7.805   2.836   9.825
31616WAT     H295091   7.779   2.960   9.927
31617WAT      O95092   7.964   5.754   7.119
31617WAT     H195093   7.995   5.675   7.171
31617WAT     H295094   7.920   5.820   7.180
31618WAT      O95095   0.491   3.007   6.744
31618WAT     H195096   0.551   2.942   6.697
31618WAT     H295097   0.448   2.961   6.822
31619WAT      O95098   7.747   5.531   2.303
31619WAT     H195099   7.702   5.618   2.287
31619WAT     H295100   7.805   5.537   2.385
31620WAT      O95101   1.514   1.669   6.786
31620WAT     H195102   1.504   1.695   6.882
31620WAT     H295103   1.432   1.697   6.735
31621WAT      O95104   2.919   3.806   8.497
31621WAT     H195105   2.892   3.785   8.591
31621WAT     H295106   2.915   3.723   8.442
31622WAT      O95107   3.403   3.916   3.106
31622WAT     H195108   3.477   3.937   3.170
31622WAT     H295109   3.440   3.867   3.027
31623WAT      O95110   3.615   3.112   3.213
31623WAT     H195111   3.636   3.177   3.140
31623WAT     H295112   3.524   3.132   3.250
31624WAT      O95113   7.391   8.223   5.856
31624WAT     H195114   7.334   8.187   5.782
31624WAT     H295115   7.345   8.208   5.943
31625WAT      O95116   5.079   1.237   3.052
31625WAT     H195117   5.155   1.179   3.024
31625WAT     H295118   5.112   1.330   3.069
31626WAT      O95119   0.414   3.481   6.564
31626WAT     H195120   0.440   3.403   6.621
31626WAT     H295121   0.481   3.493   6.491
31627WAT      O95122   1.613   0.939   2.784
31627WAT     H195123   1.583   0.950   2.879
31627WAT     H295124   1.685   0.870   2.779
31628WAT      O95125   2.516   8.581   7.027
31628WAT     H195126   2.481   8.508   6.969
31628WAT     H295127   2.539   8.544   7.118
31629WAT      O95128   9.210   5.575   9.340
31629WAT     H195129   9.301   5.541   9.317
31629WAT     H295130   9.211   5.675   9.343
31630WAT      O95131   6.112   8.497   1.569
31630WAT     H195132   6.142   8.413   1.614
31630WAT     H295133   6.158   8.506   1.481
31631WAT      O95134   4.063   4.507   8.670
31631WAT     H195135   4.009   4.578   8.715
31631WAT     H295136   4.142   4.548   8.624
31632WAT      O95137   8.172   0.689   1.297
31632WAT     H195138   8.125   0.641   1.371
31632WAT     H295139   8.211   0.622   1.233
31633WAT      O95140   6.455   2.104   3.991
31633WAT     H195141   6.377   2.076   4.046
31633WAT     H295142   6.528   2.137   4.051
31634WAT      O95143   5.245   8.448   4.694
31634WAT     H195144   5.303   8.405   4.763
31634WAT     H295145   5.162   8.393   4.681
31635WAT      O95146   2.655   6.098   5.552
31635WAT     H195147   2.700   6.009   5.539
31635WAT     H295148   2.576   6.086   5.611
31636WAT      O95149   0.888   7.401   7.473
31636WAT     H195150   0.964   7.367   7.529
31636WAT     H295151   0.862   7.331   7.407
31637WAT      O95152   7.713   1.541   0.802
31637WAT     H195153   7.655   1.461   0.813
31637WAT     H295154   7.795   1.517   0.749
31638WAT      O95155   8.228   6.325   1.403
31638WAT     H195156   8.209   6.245   1.460
31638WAT     H295157   8.144   6.355   1.358
31639WAT      O95158   7.250   1.590   0.398
31639WAT     H195159   7.309   1.661   0.361
31639WAT     H295160   7.157   1.626   0.412
31640WAT      O95161   0.852   8.631   6.171
31640WAT     H195162   0.855   8.709   6.233
31640WAT     H295163   0.908   8.650   6.090
31641WAT      O95164   1.553   4.550   4.538
31641WAT     H195165   1.626   4.517   4.598
31641WAT     H295166   1.464   4.520   4.575
31642WAT      O95167   5.830   2.329   8.834
31642WAT     H195168   5.875   2.306   8.747
31642WAT     H295169   5.883   2.293   8.910
31643WAT      O95170   3.318   0.636   0.375
31643WAT     H195171   3.300   0.711   0.312
31643WAT     H295172   3.242   0.627   0.440
31644WAT      O95173   7.712   4.338   4.464
31644WAT     H195174   7.646   4.391   4.411
31644WAT     H295175   7.667   4.259   4.506
31645WAT      O95176   9.076   1.957   2.205
31645WAT     H195177   9.010   1.937   2.132
31645WAT     H295178   9.144   2.022   2.171
31646WAT      O95179   5.107   9.398   5.275
31646WAT     H195180   5.187   9.344   5.300
31646WAT     H295181   5.091   9.467   5.346
31647WAT      O95182   2.720   2.895   0.071
31647WAT     H195183   2.745   2.898   0.168
31647WAT     H295184   2.692   2.987   0.042
31648WAT      O95185   0.197   8.346   7.522
31648WAT     H195186   0.158   8.255   7.530
31648WAT     H295187   0.137   8.403   7.465
31649WAT      O95188   0.216   3.397   9.251
31649WAT     H195189   0.137   3.449   9.284
31649WAT     H295190   0.236   3.424   9.156
31650WAT      O95191   5.129   8.237   4.303
31650WAT     H195192   5.153   8.186   4.221
31650WAT     H295193   5.113   8.174   4.379
31651WAT      O95194   7.487   3.206   3.557
31651WAT     H195195   7.425   3.205   3.478
31651WAT     H295196   7.566   3.263   3.536
31652WAT      O95197   6.031   3.849   6.207
31652WAT     H195198   6.091   3.861   6.127
31652WAT     H295199   6.015   3.752   6.221
31653WAT      O95200   7.010   2.772   6.004
31653WAT     H195201   7.084   2.714   5.969
31653WAT     H295202   7.049   2.847   6.058
31654WAT      O95203   6.257   3.421   5.433
31654WAT     H195204   6.172   3.473   5.450
31654WAT     H295205   6.274   3.417   5.335
31655WAT      O95206   8.265   0.531   5.028
31655WAT     H195207   8.188   0.565   5.083
31655WAT     H295208   8.263   0.574   4.938
31656WAT      O95209   0.060   7.125   1.115
31656WAT     H195210   0.079   7.222   1.134
31656WAT     H295211   0.113   7.068   1.177
31657WAT      O95212   2.418   0.333   5.749
31657WAT     H195213   2.425   0.424   5.789
31657WAT     H295214   2.450   0.265   5.815
31658WAT      O95215   4.257   6.476   8.500
31658WAT     H195216   4.284   6.478   8.403
31658WAT     H295217   4.338   6.492   8.557
31659WAT      O95218   0.777   7.356   2.440
31659WAT     H195219   0.829   7.294   2.381
31659WAT     H295220   0.815   7.355   2.532
31660WAT      O95221   5.032   5.972   3.617
31660WAT     H195222   4.976   6.043   3.575
31660WAT     H295223   5.087   5.926   3.547
31661WAT      O95224   1.119   2.030   8.002
31661WAT     H195225   1.032   2.019   8.049
31661WAT     H295226   1.120   2.117   7.952
31662WAT      O95227   0.751   8.906   5.795
31662WAT     H195228   0.804   8.986   5.822
31662WAT     H295229   0.745   8.902   5.695
31663WAT      O95230   2.675   0.404   0.808
31663WAT     H195231   2.641   0.452   0.727
31663WAT     H295232   2.597   0.372   0.862
31664WAT      O95233   6.352   8.250   0.373
31664WAT     H195234   6.294   8.270   0.451
31664WAT     H295235   6.395   8.335   0.341
31665WAT      O95236   7.069   0.184   1.641
31665WAT     H195237   7.074   0.167   1.739
31665WAT     H295238   7.137   0.127   1.594
31666WAT      O95239   3.616   4.705   9.397
31666WAT     H195240   3.672   4.725   9.477
31666WAT     H295241   3.637   4.770   9.324
31667WAT      O95242   7.078   1.318   0.106
31667WAT     H195243   7.131   1.356   0.031
31667WAT     H295244   7.133   1.320   0.190
31668WAT      O95245   3.710   3.091   5.882
31668WAT     H195246   3.616   3.103   5.851
31668WAT     H295247   3.736   3.168   5.941
31669WAT      O95248   9.421   0.480   1.224
31669WAT     H195249   9.341   0.535   1.247
31669WAT     H295250   9.393   0.386   1.206
31670WAT      O95251   5.142   1.278   1.552
31670WAT     H195252   5.070   1.345   1.572
31670WAT     H295253   5.221   1.296   1.611
31671WAT      O95254   3.430   4.948   6.229
31671WAT     H195255   3.511   4.977   6.280
31671WAT     H295256   3.351   4.943   6.291
31672WAT      O95257   9.861   9.385   6.324
31672WAT     H195258   9.942   9.350   6.372
31672WAT     H295259   9.801   9.309   6.300
31673WAT      O95260   0.416   7.467   8.785
31673WAT     H195261   0.462   7.460   8.697
31673WAT     H295262   0.318   7.478   8.770
31674WAT      O95263   6.810   8.477   0.618
31674WAT     H195264   6.724   8.468   0.668
31674WAT     H295265   6.794   8.464   0.520
31675WAT      O95266   9.396   1.621   8.380
31675WAT     H195267   9.484   1.606   8.336
31675WAT     H295268   9.339   1.540   8.370
31676WAT      O95269   2.422   8.356   0.226
31676WAT     H195270   2.377   8.440   0.255
31676WAT     H295271   2.358   8.279   0.232
31677WAT      O95272   0.241   8.453   5.702
31677WAT     H195273   0.331   8.497   5.700
31677WAT     H295274   0.198   8.470   5.791
31678WAT      O95275   9.165   2.456   7.613
31678WAT     H195276   9.207   2.457   7.522
31678WAT     H295277   9.208   2.385   7.669
31679WAT      O95278   7.945   4.273   5.281
31679WAT     H195279   7.915   4.232   5.367
31679WAT     H295280   7.977   4.200   5.220
31680WAT      O95281   0.127   4.011   3.305
31680WAT     H195282   0.064   4.082   3.335
31680WAT     H295283   0.075   3.930   3.276
31681WAT      O95284   1.092   7.605   6.027
31681WAT     H195285   1.074   7.559   6.114
31681WAT     H295286   1.096   7.538   5.953
31682WAT      O95287   6.430   1.459   8.746
31682WAT     H195288   6.330   1.466   8.753
31682WAT     H295289   6.466   1.416   8.828
31683WAT      O95290   0.626   1.717   5.691
31683WAT     H195291   0.693   1.761   5.630
31683WAT     H295292   0.537   1.762   5.681
31684WAT      O95293   2.334   4.738   9.012
31684WAT     H195294   2.247   4.688   9.007
31684WAT     H295295   2.408   4.674   9.031
31685WAT      O95296   0.746   3.508   9.559
31685WAT     H195297   0.820   3.462   9.509
31685WAT     H295298   0.705   3.577   9.500
31686WAT      O95299   6.795   9.717   4.740
31686WAT     H195300   6.738   9.784   4.788
31686WAT     H295301   6.744   9.681   4.662
31687WAT      O95302   0.064   2.160   5.088
31687WAT     H195303   0.097   2.246   5.050
31687WAT     H295304  -0.034   2.167   5.107
31688WAT      O95305   2.355   0.480   8.076
31688WAT     H195306   2.323   0.474   8.171
31688WAT     H295307   2.296   0.544   8.025
31689WAT      O95308   3.149   5.238   7.679
31689WAT     H195309   3.065   5.284   7.649
31689WAT     H295310   3.198   5.296   7.744
31690WAT      O95311   0.273   1.161   7.084
31690WAT     H195312   0.366   1.158   7.049
31690WAT     H295313   0.208   1.144   7.009
31691WAT      O95314   4.929   4.684   2.328
31691WAT     H195315   4.858   4.624   2.290
31691WAT     H295316   4.906   4.709   2.422
31692WAT      O95317   4.235   8.290   2.491
31692WAT     H195318   4.245   8.389   2.480
31692WAT     H295319   4.223   8.269   2.588
31693WAT      O95320   9.497   3.795   8.057
31693WAT     H195321   9.503   3.891   8.029
31693WAT     H295322   9.415   3.780   8.111
31694WAT      O95323   0.870   5.175   2.555
31694WAT     H195324   0.898   5.270   2.567
31694WAT     H295325   0.817   5.167   2.470
31695WAT      O95326   9.633   4.173   4.484
31695WAT     H195327   9.647   4.084   4.440
31695WAT     H295328   9.712   4.232   4.466
31696WAT      O95329   6.056   5.455   3.672
31696WAT     H195330   6.041   5.358   3.650
31696WAT     H295331   6.151   5.469   3.699
31697WAT      O95332   7.528   4.071   7.499
31697WAT     H195333   7.576   3.987   7.472
31697WAT     H295334   7.589   4.149   7.489
31698WAT      O95335   2.990   5.983   1.711
31698WAT     H195336   2.955   6.020   1.797
31698WAT     H295337   3.062   6.043   1.677
31699WAT      O95338   3.565   7.114   6.756
31699WAT     H195339   3.539   7.115   6.853
31699WAT     H295340   3.656   7.075   6.746
31700WAT      O95341   8.441   7.814   3.112
31700WAT     H195342   8.369   7.831   3.180
31700WAT     H295343   8.530   7.825   3.155
31701WAT      O95344   2.863   8.765   9.758
31701WAT     H195345   2.919   8.824   9.701
31701WAT     H295346   2.785   8.731   9.704
31702WAT      O95347   4.295   4.439   0.302
31702WAT     H195348   4.208   4.390   0.309
31702WAT     H295349   4.285   4.531   0.339
31703WAT      O95350   8.825   2.221   7.666
31703WAT     H195351   8.901   2.222   7.730
31703WAT     H295352   8.822   2.132   7.619
31704WAT      O95353   5.154   4.958   3.260
31704WAT     H195354   5.081   5.021   3.286
31704WAT     H295355   5.148   4.875   3.316
31705WAT      O95356   1.452   8.035   7.238
31705WAT     H195357   1.384   7.973   7.199
31705WAT     H295358   1.463   8.114   7.179
31706WAT      O95359   2.947   8.032   2.259
31706WAT     H195360   2.964   7.970   2.336
31706WAT     H295361   2.980   7.990   2.174
31707WAT      O95362   6.693   0.145   3.775
31707WAT     H195363   6.724   0.188   3.690
31707WAT     H295364   6.733   0.193   3.853
31708WAT      O95365   4.831   2.546   4.130
31708WAT     H195366   4.862   2.510   4.042
31708WAT     H295367   4.800   2.641   4.119
31709WAT      O95368   9.828   8.778   4.982
31709WAT     H195369   9.730   8.784   4.964
31709WAT     H295370   9.878   8.825   4.908
31710WAT      O95371   2.565   2.156   9.371
31710WAT     H195372   2.527   2.153   9.278
31710WAT     H295373   2.665   2.156   9.367
31711WAT      O95374   4.177   5.669   3.627
31711WAT     H195375   4.263   5.691   3.673
31711WAT     H295376   4.138   5.751   3.587
31712WAT      O95377   1.390   2.794   2.490
31712WAT     H195378   1.464   2.727   2.482
31712WAT     H295379   1.314   2.767   2.432
31713WAT      O95380   9.248   0.473   0.946
31713WAT     H195381   9.324   0.438   0.891
31713WAT     H295382   9.169   0.491   0.887
31714WAT      O95383   7.706   9.425   5.481
31714WAT     H195384   7.748   9.392   5.397
31714WAT     H295385   7.776   9.439   5.551
31715WAT      O95386   4.552   8.040   1.296
31715WAT     H195387   4.628   8.059   1.234
31715WAT     H295388   4.550   8.111   1.367
31716WAT      O95389   8.704   9.225   8.127
31716WAT     H195390   8.669   9.151   8.070
31716WAT     H295391   8.788   9.195   8.173
31717WAT      O95392   2.656   6.758   5.769
31717WAT     H195393   2.729   6.816   5.804
31717WAT     H295394   2.623   6.794   5.681
31718WAT      O95395   7.563   0.830   4.222
31718WAT     H195396   7.617   0.896   4.170
31718WAT     H295397   7.527   0.760   4.160
31719WAT      O95398   0.423   6.755   7.410
31719WAT     H195399   0.374   6.767   7.496
31719WAT     H295400   0.487   6.679   7.417
31720WAT      O95401   8.481   4.326   1.883
31720WAT     H195402   8.537   4.364   1.957
31720WAT     H295403   8.452   4.234   1.908
31721WAT      O95404   8.129   3.296   7.211
31721WAT     H195405   8.220   3.335   7.218
31721WAT     H295406   8.126   3.233   7.133
31722WAT      O95407   6.771   6.033   5.242
31722WAT     H195408   6.820   5.958   5.287
31722WAT     H295409   6.693   6.060   5.297
31723WAT      O95410   8.776   6.930   7.878
31723WAT     H195411   8.831   6.846   7.876
31723WAT     H295412   8.701   6.919   7.943
31724WAT      O95413   9.405   3.039   9.266
31724WAT     H195414   9.490   3.069   9.223
31724WAT     H295415   9.398   2.939   9.260
31725WAT      O95416   2.175   7.667   5.112
31725WAT     H195417   2.084   7.627   5.119
31725WAT     H295418   2.240   7.596   5.083
31726WAT      O95419   3.022   7.131   4.547
31726WAT     H195420   3.119   7.115   4.565
31726WAT     H295421   2.992   7.070   4.474
31727WAT      O95422   7.021   0.538   0.199
31727WAT     H195423   6.922   0.528   0.195
31727WAT     H295424   7.049   0.561   0.293
31728WAT      O95425   5.121   1.691   2.508
31728WAT     H195426   5.209   1.692   2.557
31728WAT     H295427   5.071   1.776   2.527
31729WAT      O95428   5.511   1.201   3.018
31729WAT     H195429   5.539   1.135   2.949
31729WAT     H295430   5.535   1.167   3.109
31730WAT      O95431   1.984   1.794   6.617
31730WAT     H195432   1.979   1.787   6.517
31730WAT     H295433   1.893   1.817   6.653
31731WAT      O95434   4.233   1.945   9.470
31731WAT     H195435   4.245   1.987   9.380
31731WAT     H295436   4.321   1.910   9.503
31732WAT      O95437   4.871   9.740   1.152
31732WAT     H195438   4.859   9.839   1.150
31732WAT     H295439   4.874   9.709   1.247
31733WAT      O95440   9.580   4.349   3.974
31733WAT     H195441   9.596   4.361   4.072
31733WAT     H295442   9.525   4.425   3.939
31734WAT      O95443   5.200   2.867   2.771
31734WAT     H195444   5.174   2.884   2.676
31734WAT     H295445   5.245   2.949   2.808
31735WAT      O95446   3.912   7.077   6.933
31735WAT     H195447   3.879   6.996   6.981
31735WAT     H295448   3.998   7.056   6.887
31736WAT      O95449   1.505   2.906   5.683
31736WAT     H195450   1.408   2.928   5.690
31736WAT     H295451   1.535   2.862   5.767
31737WAT      O95452   7.063   6.285   7.740
31737WAT     H195453   7.029   6.375   7.714
31737WAT     H295454   7.157   6.274   7.708
31738WAT      O95455   7.836   8.289   2.839
31738WAT     H195456   7.736   8.289   2.837
31738WAT     H295457   7.868   8.267   2.931
31739WAT      O95458   8.818   7.369   2.721
31739WAT     H195459   8.738   7.310   2.736
31739WAT     H295460   8.802   7.426   2.640
31740WAT      O95461   5.778   5.334   4.737
31740WAT     H195462   5.839   5.394   4.789
31740WAT     H295463   5.805   5.239   4.751
31741WAT      O95464   0.495   1.651   0.766
31741WAT     H195465   0.470   1.566   0.812
31741WAT     H295466   0.430   1.669   0.692
31742WAT      O95467   0.060   1.571   8.318
31742WAT     H195468   0.148   1.536   8.349
31742WAT     H295469  -0.012   1.539   8.380
31743WAT      O95470   2.161   9.534   4.758
31743WAT     H195471   2.099   9.483   4.698
31743WAT     H295472   2.173   9.485   4.844
31744WAT      O95473   6.409   5.181   0.913
31744WAT     H195474   6.485   5.244   0.925
31744WAT     H295475   6.404   5.119   0.991
31745WAT      O95476   7.311   7.410   3.052
31745WAT     H195477   7.251   7.466   3.110
31745WAT     H295478   7.391   7.381   3.106
31746WAT      O95479   6.171   5.961   8.476
31746WAT     H195480   6.253   6.012   8.503
31746WAT     H295481   6.089   6.012   8.504
31747WAT      O95482   6.095   9.187   7.009
31747WAT     H195483   6.136   9.103   7.043
31747WAT     H295484   6.006   9.166   6.966
31748WAT      O95485   9.020   1.630   8.541
31748WAT     H195486   9.083   1.628   8.619
31748WAT     H295487   9.060   1.687   8.469
31749WAT      O95488   7.354   0.348   3.728
31749WAT     H195489   7.394   0.432   3.692
31749WAT     H295490   7.280   0.318   3.668
31750WAT      O95491   8.369   2.198   7.110
31750WAT     H195492   8.346   2.282   7.060
31750WAT     H295493   8.467   2.197   7.130
31751WAT      O95494   3.469   9.376   2.234
31751WAT     H195495   3.526   9.418   2.163
31751WAT     H295496   3.401   9.317   2.191
31752WAT      O95497   3.197   4.761   2.066
31752WAT     H195498   3.253   4.690   2.108
31752WAT     H295499   3.254   4.817   2.006
31753WAT      O95500   3.758   1.129   3.927
31753WAT     H195501   3.831   1.094   3.987
31753WAT     H295502   3.757   1.077   3.842
31754WAT      O95503   9.359   3.918   0.032
31754WAT     H195504   9.397   4.009   0.048
31754WAT     H295505   9.339   3.874   0.120
31755WAT      O95506   7.286   3.044   8.860
31755WAT     H195507   7.306   2.999   8.773
31755WAT     H295508   7.267   3.141   8.843
31756WAT      O95509   0.112   8.102   1.534
31756WAT     H195510   0.210   8.084   1.532
31756WAT     H295511   0.063   8.022   1.499
31757WAT      O95512   7.301   7.236   1.287
31757WAT     H195513   7.303   7.301   1.211
31757WAT     H295514   7.391   7.192   1.295
31758WAT      O95515   3.674   0.738   1.561
31758WAT     H195516   3.615   0.661   1.583
31758WAT     H295517   3.630   0.823   1.589
31759WAT      O95518   5.924   4.791   9.685
31759WAT     H195519   6.011   4.745   9.668
31759WAT     H295520   5.850   4.723   9.682
31760WAT      O95521   3.036   4.183   8.067
31760WAT     H195522   3.112   4.186   8.132
31760WAT     H295523   3.058   4.121   7.993
31761WAT      O95524   9.356   0.279   8.557
31761WAT     H195525   9.260   0.288   8.531
31761WAT     H295526   9.373   0.329   8.642
31762WAT      O95527   7.073   0.911   2.460
31762WAT     H195528   7.142   0.914   2.532
31762WAT     H295529   6.993   0.862   2.492
31763WAT      O95530   7.508   0.062   9.386
31763WAT     H195531   7.562   0.061   9.302
31763WAT     H295532   7.425   0.008   9.373
31764WAT      O95533   9.469   3.947   1.519
31764WAT     H195534   9.502   4.027   1.570
31764WAT     H295535   9.490   3.864   1.569
31765WAT      O95536   3.921   7.546   8.001
31765WAT     H195537   4.006   7.589   7.969
31765WAT     H295538   3.898   7.580   8.092
31766WAT      O95539   8.761   0.161   6.816
31766WAT     H195540   8.828   0.218   6.862
31766WAT     H295541   8.688   0.136   6.880
31767WAT      O95542   9.586   9.479   7.292
31767WAT     H195543   9.660   9.450   7.233
31767WAT     H295544   9.598   9.440   7.383
31768WAT      O95545   9.875   6.231   8.105
31768WAT     H195546   9.890   6.164   8.032
31768WAT     H295547   9.779   6.227   8.135
31769WAT      O95548   2.572   5.606   7.760
31769WAT     H195549   2.509   5.638   7.830
31769WAT     H295550   2.565   5.507   7.750
31770WAT      O95551   7.499   3.625   9.360
31770WAT     H195552   7.490   3.571   9.276
31770WAT     H295553   7.494   3.564   9.439
31771WAT      O95554   0.547   8.167   2.631
31771WAT     H195555   0.627   8.157   2.571
31771WAT     H295556   0.524   8.264   2.639
31772WAT      O95557   4.830   4.701   1.256
31772WAT     H195558   4.773   4.771   1.212
31772WAT     H295559   4.793   4.680   1.346
31773WAT      O95560   7.671   3.801   6.703
31773WAT     H195561   7.681   3.796   6.802
31773WAT     H295562   7.574   3.789   6.679
31774WAT      O95563   2.379   7.330   0.067
31774WAT     H195564   2.371   7.246   0.015
31774WAT     H295565   2.355   7.408   0.010
31775WAT      O95566   3.378   7.699   2.979
31775WAT     H195567   3.319   7.619   2.990
31775WAT     H295568   3.328   7.781   3.006
31776WAT      O95569   7.967   5.194   3.762
31776WAT     H195570   7.956   5.095   3.752
31776WAT     H295571   8.061   5.219   3.739
31777WAT      O95572   2.348   7.335   0.339
31777WAT     H195573   2.263   7.385   0.357
31777WAT     H295574   2.368   7.338   0.241
31778WAT      O95575   0.909   1.991   1.596
31778WAT     H195576   0.814   1.973   1.622
31778WAT     H295577   0.921   1.974   1.499
31779WAT      O95578   7.321   6.093   0.712
31779WAT     H195579   7.332   6.182   0.669
31779WAT     H295580   7.394   6.078   0.779
31780WAT      O95581   2.914   1.992   6.911
31780WAT     H195582   2.864   2.011   6.826
31780WAT     H295583   3.012   1.987   6.891
31781WAT      O95584   7.000   2.587   2.739
31781WAT     H195585   7.088   2.590   2.692
31781WAT     H295586   7.005   2.523   2.816
31782WAT      O95587   7.752   0.070   7.599
31782WAT     H195588   7.756   0.132   7.677
31782WAT     H295589   7.794   0.114   7.519
31783WAT      O95590   7.962   8.733   8.580
31783WAT     H195591   8.030   8.762   8.513
31783WAT     H295592   7.933   8.810   8.635
31784WAT      O95593   1.662   7.178   7.691
31784WAT     H195594   1.601   7.197   7.767
31784WAT     H295595   1.614   7.193   7.605
31785WAT      O95596   9.651   1.815   3.449
31785WAT     H195597   9.653   1.722   3.485
31785WAT     H295598   9.726   1.827   3.384
31786WAT      O95599   7.960   8.724   2.258
31786WAT     H195600   7.912   8.811   2.250
31786WAT     H295601   7.935   8.664   2.182
31787WAT      O95602   7.898   4.322   4.705
31787WAT     H195603   7.971   4.389   4.722
31787WAT     H295604   7.916   4.273   4.620
31788WAT      O95605   5.447   0.213   0.274
31788WAT     H195606   5.411   0.206   0.181
31788WAT     H295607   5.534   0.165   0.280
31789WAT      O95608   5.637   1.031   1.900
31789WAT     H195609   5.674   1.121   1.878
31789WAT     H295610   5.541   1.027   1.874
31790WAT      O95611   1.210   5.957   3.104
31790WAT     H195612   1.130   5.903   3.131
31790WAT     H295613   1.182   6.026   3.037
31791WAT      O95614   1.489   1.651   4.661
31791WAT     H195615   1.520   1.664   4.756
31791WAT     H295616   1.410   1.590   4.660
31792WAT      O95617   9.153   9.496   2.637
31792WAT     H195618   9.153   9.415   2.695
31792WAT     H295619   9.085   9.486   2.565
31793WAT      O95620   6.775   2.811   1.261
31793WAT     H195621   6.767   2.773   1.169
31793WAT     H295622   6.869   2.843   1.276
31794WAT      O95623   1.047   9.501   7.033
31794WAT     H195624   1.125   9.524   7.091
31794WAT     H295625   1.012   9.411   7.057
31795WAT      O95626   5.889   7.393   3.528
31795WAT     H195627   5.886   7.453   3.608
31795WAT     H295628   5.883   7.297   3.558
31796WAT      O95629   8.906   7.033   4.860
31796WAT     H195630   8.949   7.003   4.775
31796WAT     H295631   8.927   7.130   4.875
31797WAT      O95632   8.517   7.185   9.501
31797WAT     H195633   8.598   7.207   9.556
31797WAT     H295634   8.511   7.247   9.423
31798WAT      O95635   3.003   4.510   2.537
31798WAT     H195636   2.951   4.445   2.593
31798WAT     H295637   2.995   4.602   2.576
31799WAT      O95638   0.429   8.603   1.394
31799WAT     H195639   0.518   8.646   1.409
31799WAT     H295640   0.425   8.568   1.300
31800WAT      O95641   4.533   5.662   3.980
31800WAT     H195642   4.595   5.729   3.939
31800WAT     H295643   4.543   5.663   4.079
31801WAT      O95644   8.708   0.183   2.204
31801WAT     H195645   8.795   0.133   2.201
31801WAT     H295646   8.719   0.266   2.258
31802WAT      O95647   2.949   8.651   4.416
31802WAT     H195648   3.022   8.584   4.403
31802WAT     H295649   2.900   8.632   4.501
31803WAT      O95650   0.384   2.684   9.583
31803WAT     H195651   0.468   2.674   9.636
31803WAT     H295652   0.310   2.631   9.626
31804WAT      O95653   1.382   8.874   4.923
31804WAT     H195654   1.296   8.875   4.872
31804WAT     H295655   1.399   8.783   4.960
31805WAT      O95656   0.470   5.280   2.553
31805WAT     H195657   0.540   5.244   2.615
31805WAT     H295658   0.425   5.359   2.596
31806WAT      O95659   0.464   0.626   4.486
31806WAT     H195660   0.494   0.572   4.408
31806WAT     H295661   0.472   0.723   4.465
31807WAT      O95662   5.312   5.497   3.235
31807WAT     H195663   5.379   5.469   3.167
31807WAT     H295664   5.315   5.434   3.313
31808WAT      O95665   5.439   9.382   3.445
31808WAT     H195666   5.503   9.313   3.412
31808WAT     H295667   5.386   9.346   3.522
31809WAT      O95668   0.132   8.490   1.188
31809WAT     H195669   0.127   8.561   1.258
31809WAT     H295670   0.105   8.402   1.228
31810WAT      O95671   8.693   1.408   0.323
31810WAT     H195672   8.778   1.461   0.331
31810WAT     H295673   8.715   1.312   0.303
31811WAT      O95674   2.346   6.626   8.490
31811WAT     H195675   2.401   6.616   8.407
31811WAT     H295676   2.406   6.649   8.567
31812WAT      O95677   3.700   0.021   5.999
31812WAT     H195678   3.647  -0.051   6.044
31812WAT     H295679   3.702   0.103   6.057
31813WAT      O95680   4.364   3.019   3.134
31813WAT     H195681   4.306   2.956   3.082
31813WAT     H295682   4.306   3.079   3.189
31814WAT      O95683   0.649   3.056   1.646
31814WAT     H195684   0.674   3.141   1.691
31814WAT     H295685   0.602   3.075   1.560
31815WAT      O95686   2.552   2.463   0.281
31815WAT     H195687   2.550   2.536   0.213
31815WAT     H295688   2.589   2.380   0.240
31816WAT      O95689   5.531   5.846   6.225
31816WAT     H195690   5.435   5.873   6.219
31816WAT     H295691   5.566   5.829   6.133
31817WAT      O95692   5.113   4.647   3.214
31817WAT     H195693   5.059   4.627   3.132
31817WAT     H295694   5.209   4.657   3.188
31818WAT      O95695   0.638   6.401   5.467
31818WAT     H195696   0.737   6.392   5.457
31818WAT     H295697   0.598   6.310   5.484
31819WAT      O95698   5.223   2.169   5.133
31819WAT     H195699   5.147   2.103   5.131
31819WAT     H295700   5.307   2.122   5.161
31820WAT      O95701   3.148   2.540   9.530
31820WAT     H195702   3.121   2.505   9.440
31820WAT     H295703   3.075   2.596   9.568
31821WAT      O95704   2.513   0.120   9.328
31821WAT     H195705   2.438   0.131   9.263
31821WAT     H295706   2.590   0.075   9.282
31822WAT      O95707   4.469   0.870   8.156
31822WAT     H195708   4.428   0.817   8.082
31822WAT     H295709   4.397   0.914   8.209
31823WAT      O95710   2.175   3.863   1.403
31823WAT     H195711   2.110   3.918   1.457
31823WAT     H295712   2.129   3.781   1.370
31824WAT      O95713   2.314   1.243   9.213
31824WAT     H195714   2.346   1.237   9.308
31824WAT     H295715   2.392   1.248   9.152
31825WAT      O95716   2.982   4.679   1.265
31825WAT     H195717   3.004   4.582   1.266
31825WAT     H295718   3.065   4.732   1.244
31826WAT      O95719   9.371   6.572   1.314
31826WAT     H195720   9.443   6.549   1.380
31826WAT     H295721   9.290   6.604   1.363
31827WAT      O95722   3.654   7.414   5.860
31827WAT     H195723   3.573   7.470   5.880
31827WAT     H295724   3.732   7.474   5.841
31828WAT      O95725   6.850   5.069   7.992
31828WAT     H195726   6.806   4.981   7.974
31828WAT     H295727   6.783   5.143   7.981
31829WAT      O95728   1.727   5.644   2.376
31829WAT     H195729   1.685   5.734   2.362
31829WAT     H295730   1.827   5.653   2.366
31830WAT      O95731   5.130   7.632   1.996
31830WAT     H195732   5.194   7.682   1.937
31830WAT     H295733   5.039   7.636   1.956
31831WAT      O95734   4.764   0.007   5.630
31831WAT     H195735   4.723  -0.005   5.540
31831WAT     H295736   4.852   0.054   5.622
31832WAT      O95737   7.820   8.874   5.721
31832WAT     H195738   7.775   8.827   5.645
31832WAT     H295739   7.758   8.945   5.757
31833WAT      O95740   8.734   1.266   1.130
31833WAT     H195741   8.803   1.273   1.202
31833WAT     H295742   8.656   1.324   1.152
31834WAT      O95743   9.067   0.350   2.203
31834WAT     H195744   9.028   0.400   2.126
31834WAT     H295745   9.096   0.415   2.274
31835WAT      O95746   3.104   4.412   8.405
31835WAT     H195747   3.081   4.509   8.419
31835WAT     H295748   3.108   4.366   8.493
31836WAT      O95749   2.386   8.782   4.734
31836WAT     H195750   2.355   8.732   4.653
31836WAT     H295751   2.315   8.846   4.763
31837WAT      O95752   2.218   8.701   1.125
31837WAT     H195753   2.232   8.751   1.210
31837WAT     H295754   2.164   8.619   1.143
31838WAT      O95755   7.510   3.800   3.826
31838WAT     H195756   7.516   3.898   3.844
31838WAT     H295757   7.479   3.752   3.908
31839WAT      O95758   9.851   1.516   6.276
31839WAT     H195759   9.941   1.513   6.231
31839WAT     H295760   9.860   1.480   6.369
31840WAT      O95761   8.593   0.348   6.373
31840WAT     H195762   8.634   0.288   6.442
31840WAT     H295763   8.515   0.396   6.412
31841WAT      O95764   1.014   6.004   9.185
31841WAT     H195765   1.029   6.032   9.280
31841WAT     H295766   0.982   5.909   9.182
31842WAT      O95767   9.475   7.172   1.120
31842WAT     H195768   9.529   7.166   1.204
31842WAT     H295769   9.472   7.266   1.088
31843WAT      O95770   6.175   0.128   7.274
31843WAT     H195771   6.221   0.114   7.362
31843WAT     H295772   6.235   0.180   7.214
31844WAT      O95773   1.409   6.875   3.617
31844WAT     H195774   1.480   6.829   3.671
31844WAT     H295775   1.425   6.973   3.619
31845WAT      O95776   1.091   2.908   5.158
31845WAT     H195777   1.031   2.941   5.085
31845WAT     H295778   1.104   2.809   5.148
31846WAT      O95779   1.705   3.992   4.884
31846WAT     H195780   1.753   3.912   4.848
31846WAT     H295781   1.688   4.057   4.810
31847WAT      O95782   0.015   9.298   8.694
31847WAT     H195783   0.054   9.390   8.692
31847WAT     H295784   0.030   9.257   8.784
31848WAT      O95785   4.129   0.364   7.572
31848WAT     H195786   4.096   0.393   7.482
31848WAT     H295787   4.229   0.368   7.574
31849WAT      O95788   4.367   3.988   1.826
31849WAT     H195789   4.455   4.025   1.856
31849WAT     H295790   4.380   3.898   1.785
31850WAT      O95791   8.634   1.608   2.428
31850WAT     H195792   8.586   1.554   2.497
31850WAT     H295793   8.731   1.614   2.452
31851WAT      O95794   3.601   8.193   7.052
31851WAT     H195795   3.501   8.185   7.051
31851WAT     H295796   3.636   8.183   6.959
31852WAT      O95797   6.795   6.721   0.200
31852WAT     H195798   6.816   6.799   0.141
31852WAT     H295799   6.782   6.639   0.143
31853WAT      O95800   2.532   3.464   8.234
31853WAT     H195801   2.520   3.376   8.187
31853WAT     H295802   2.542   3.448   8.332
31854WAT      O95803   7.349   8.586   8.260
31854WAT     H195804   7.303   8.584   8.172
31854WAT     H295805   7.296   8.534   8.327
31855WAT      O95806   6.687   8.849   8.782
31855WAT     H195807   6.719   8.922   8.842
31855WAT     H295808   6.599   8.875   8.742
31856WAT      O95809   5.569   9.515   6.083
31856WAT     H195810   5.542   9.605   6.049
31856WAT     H295811   5.601   9.524   6.177
31857WAT      O95812   3.747   5.333   1.537
31857WAT     H195813   3.759   5.336   1.636
31857WAT     H295814   3.827   5.374   1.493
31858WAT      O95815   5.568   9.027   2.197
31858WAT     H195816   5.602   9.076   2.117
31858WAT     H295817   5.470   9.046   2.207
31859WAT      O95818   4.339   8.249   6.460
31859WAT     H195819   4.429   8.290   6.443
31859WAT     H295820   4.269   8.304   6.415
31860WAT      O95821   3.206   9.104   7.545
31860WAT     H195822   3.136   9.034   7.560
31860WAT     H295823   3.255   9.084   7.460
31861WAT      O95824   3.703   1.995   8.233
31861WAT     H195825   3.725   1.976   8.137
31861WAT     H295826   3.614   2.041   8.239
31862WAT      O95827   3.186   2.263   8.841
31862WAT     H195828   3.239   2.331   8.892
31862WAT     H295829   3.125   2.310   8.777
31863WAT      O95830   6.745   6.518   9.246
31863WAT     H195831   6.843   6.510   9.230
31863WAT     H295832   6.715   6.445   9.308
31864WAT      O95833   2.093   9.670   0.049
31864WAT     H195834   2.109   9.721   0.134
31864WAT     H295835   2.122   9.576   0.061
31865WAT      O95836   7.844   5.026   4.174
31865WAT     H195837   7.857   5.125   4.166
31865WAT     H295838   7.885   4.981   4.095
31866WAT      O95839   8.121   8.255   5.040
31866WAT     H195840   8.026   8.225   5.049
31866WAT     H295841   8.169   8.194   4.978
31867WAT      O95842   3.039   6.261   7.859
31867WAT     H195843   3.110   6.329   7.840
31867WAT     H295844   2.955   6.287   7.812
31868WAT      O95845   5.937   3.801   4.295
31868WAT     H195846   5.956   3.795   4.196
31868WAT     H295847   5.866   3.869   4.311
31869WAT      O95848   0.679   3.983   3.968
31869WAT     H195849   0.735   3.904   3.941
31869WAT     H295850   0.712   4.065   3.920
31870WAT      O95851   9.478   1.403   7.388
31870WAT     H195852   9.483   1.470   7.314
31870WAT     H295853   9.466   1.451   7.475
31871WAT      O95854   1.506   6.705   0.206
31871WAT     H195855   1.601   6.674   0.211
31871WAT     H295856   1.476   6.705   0.111
31872WAT      O95857   6.613   8.123   0.356
31872WAT     H195858   6.629   8.089   0.449
31872WAT     H295859   6.521   8.162   0.350
31873WAT      O95860   8.920   3.507   2.715
31873WAT     H195861   8.933   3.606   2.714
31873WAT     H295862   8.864   3.482   2.795
31874WAT      O95863   6.620   8.556   0.902
31874WAT     H195864   6.547   8.488   0.913
31874WAT     H295865   6.686   8.547   0.977
31875WAT      O95866   1.169   5.529   8.668
31875WAT     H195867   1.159   5.621   8.707
31875WAT     H295868   1.082   5.481   8.675
31876WAT      O95869   7.772   8.961   6.935
31876WAT     H195870   7.752   8.985   6.840
31876WAT     H295871   7.828   9.032   6.977
31877WAT      O95872   7.401   1.586   3.162
31877WAT     H195873   7.403   1.599   3.261
31877WAT     H295874   7.336   1.649   3.121
31878WAT      O95875   1.732   6.221   8.327
31878WAT     H195876   1.747   6.273   8.243
31878WAT     H295877   1.666   6.268   8.385
31879WAT      O95878   0.999   9.202   0.193
31879WAT     H195879   0.970   9.192   0.289
31879WAT     H295880   0.919   9.223   0.137
31880WAT      O95881   8.899   0.329   9.367
31880WAT     H195882   8.927   0.366   9.279
31880WAT     H295883   8.866   0.404   9.426
31881WAT      O95884   6.934   5.486   0.334
31881WAT     H195885   6.902   5.394   0.311
31881WAT     H295886   7.033   5.492   0.319
31882WAT      O95887   1.706   8.519   4.468
31882WAT     H195888   1.659   8.559   4.389
31882WAT     H295889   1.653   8.441   4.502
31883WAT      O95890   6.184   0.592   3.643
31883WAT     H195891   6.202   0.501   3.605
31883WAT     H295892   6.269   0.633   3.675
31884WAT      O95893   4.657   6.560   7.523
31884WAT     H195894   4.729   6.492   7.520
31884WAT     H295895   4.588   6.532   7.591
31885WAT      O95896   0.408   4.138   1.881
31885WAT     H195897   0.371   4.072   1.816
31885WAT     H295898   0.496   4.104   1.915
31886WAT      O95899   5.349   6.792   8.018
31886WAT     H195900   5.360   6.721   8.088
31886WAT     H295901   5.384   6.759   7.931
31887WAT      O95902   4.446   1.181   4.687
31887WAT     H195903   4.366   1.221   4.643
31887WAT     H295904   4.513   1.253   4.705
31888WAT      O95905   5.730   0.354   5.880
31888WAT     H195906   5.654   0.359   5.944
31888WAT     H295907   5.701   0.389   5.791
31889WAT      O95908   6.182   2.909   0.947
31889WAT     H195909   6.136   2.997   0.932
31889WAT     H295910   6.274   2.912   0.908
31890WAT      O95911   4.192   1.096   7.743
31890WAT     H195912   4.264   1.067   7.805
31890WAT     H295913   4.121   1.145   7.794
31891WAT      O95914   5.595   8.223   3.936
31891WAT     H195915   5.538   8.304   3.919
31891WAT     H295916   5.536   8.144   3.954
31892WAT      O95917   0.411   1.925   0.403
31892WAT     H195918   0.344   1.999   0.407
31892WAT     H295919   0.496   1.954   0.445
31893WAT      O95920   1.281   4.338   9.017
31893WAT     H195921   1.253   4.364   8.925
31893WAT     H295922   1.277   4.238   9.027
31894WAT      O95923   6.970   3.313   8.792
31894WAT     H195924   6.977   3.238   8.725
31894WAT     H295925   7.055   3.365   8.792
31895WAT      O95926   1.562   5.055   2.067
31895WAT     H195927   1.510   4.980   2.108
31895WAT     H295928   1.583   5.032   1.972
31896WAT      O95929   1.831   8.151   2.084
31896WAT     H195930   1.748   8.128   2.135
31896WAT     H295931   1.905   8.168   2.147
31897WAT      O95932   4.851   9.393   1.284
31897WAT     H195933   4.916   9.363   1.214
31897WAT     H295934   4.893   9.386   1.374
31898WAT      O95935   0.801   8.800   8.065
31898WAT     H195936   0.876   8.865   8.075
31898WAT     H295937   0.741   8.807   8.145
31899WAT      O95938   6.554   0.248   1.974
31899WAT     H195939   6.579   0.296   2.058
31899WAT     H295940   6.637   0.223   1.924
   9.88928    9.84380    9.89279 
